Control file title. For DL_FIELD 4.10
49894
    1MOL     C1    1   4.559   3.716   7.995  0.5326 -0.4723  0.7427
    1MOL     C2    2   4.640   3.596   8.043 -0.0956  0.0019  0.5239
    1MOL    Cl3    3   4.553   3.445   8.047  0.1984 -0.2756  0.0336
    1MOL     C4    4   4.772   3.603   8.071 -0.0731  0.1802 -0.3866
    1MOL     C5    5   4.864   3.723   8.092  0.7046 -0.3027  0.4732
    1MOL     H6    6   4.562   3.727   7.886 -1.4418  1.9901  0.8771
    1MOL     H7    7   4.595   3.812   8.031 -0.3418  0.0916  0.1465
    1MOL     H8    8   4.816   3.508   8.097 -2.2827 -0.6898  0.2886
    1MOL     H9    9   4.811   3.809   8.052 -0.5460 -0.1025  2.4703
    1MOL    H10   10   4.877   3.730   8.200  0.4468 -0.6702  0.5319
    1MOL    H11   11   4.451   3.712   8.013  0.6760 -0.6724  1.5521
    1MOL    C12   12   5.002   3.703   8.032 -0.5589 -0.3477 -0.0101
    1MOL    C13   13   5.102   3.816   8.069 -0.5339  0.0807  0.6886
    1MOL   Cl14   14   5.164   3.818   8.222  0.0081 -0.3693 -0.0248
    1MOL    C15   15   5.152   3.909   7.977 -0.6039  0.9273 -0.5920
    1MOL    C16   16   5.115   3.920   7.833  0.1198 -0.6379  0.4153
    1MOL    H17   17   5.044   3.609   8.069 -0.2215  0.0748  0.6943
    1MOL    H18   18   4.990   3.705   7.924  0.2952  0.9991 -0.0912
    1MOL    H19   19   5.225   3.976   8.018 -0.5928 -0.0237  0.9696
    1MOL    H20   20   5.034   3.850   7.812 -1.5342  0.6226  2.3545
    1MOL    H21   21   5.089   4.022   7.805 -1.2061 -1.2372 -0.5933
    1MOL    C22   22   5.235   3.884   7.751 -0.1479  0.4838 -0.5789
    1MOL    C23   23   5.358   3.973   7.776 -0.2865 -0.4842  0.3674
    1MOL   Cl24   24   5.498   3.911   7.871 -0.0987 -0.1964  0.0238
    1MOL    C25   25   5.370   4.090   7.710 -0.1515 -0.2613  0.0136
    1MOL    C26   26   5.486   4.192   7.732  0.3826 -0.1062 -0.2699
    1MOL    H27   27   5.273   3.784   7.774 -3.0655 -0.1299  1.8118
    1MOL    H28   28   5.201   3.874   7.648 -0.1797  2.2325 -0.7479
    1MOL    H29   29   5.286   4.128   7.656 -0.1045 -0.8849 -0.5035
    1MOL    H30   30   5.456   4.249   7.820 -1.1062 -1.0823 -0.1198
    1MOL    H31   31   5.577   4.144   7.767  0.9681  0.1893 -1.3464
    1MOL    C32   32   5.517   4.280   7.610  0.7556  0.3371 -0.0390
    1MOL    C33   33   5.628   4.382   7.633  0.6183  0.2068  0.3802
    1MOL   Cl34   34   5.789   4.312   7.633 -0.1706  0.0562 -0.0870
    1MOL    C35   35   5.613   4.516   7.639 -0.3331  0.4797 -0.6042
    1MOL    C36   36   5.715   4.623   7.660  0.0387  0.2078 -0.5329
    1MOL    H37   37   5.537   4.212   7.527  1.9159 -0.5439  0.9445
    1MOL    H38   38   5.431   4.340   7.581  0.1106  0.3472  1.8554
    1MOL    H39   39   5.513   4.554   7.621 -0.0085  1.8888  0.4018
    1MOL    H40   40   5.747   4.607   7.763 -0.2155  0.2237 -0.4522
    1MOL    H41   41   5.801   4.601   7.597 -0.0694 -1.4996 -0.1089
    1MOL    C42   42   5.660   4.764   7.644  0.0631  0.2925  0.5200
    1MOL    C43   43   5.762   4.862   7.667  0.3202 -0.1169 -0.1434
    1MOL   Cl44   44   5.823   4.930   7.521 -0.2677 -0.5701  0.0877
    1MOL    C45   45   5.807   4.908   7.784  0.5448 -0.0639  0.1224
    1MOL    C46   46   5.768   4.865   7.926  0.4567  0.1722  0.2086
    1MOL    H47   47   5.620   4.779   7.544 -1.5659  0.4701  1.1824
    1MOL    H48   48   5.576   4.781   7.711 -0.2829 -0.1831  0.2039
    1MOL    H49   49   5.880   4.988   7.779 -0.2996  0.5990 -1.7077
    1MOL    H50   50   5.744   4.759   7.930  0.4338  0.1912  0.5566
    1MOL    H51   51   5.863   4.880   7.977  0.1295  0.7462  0.6590
    1MOL    C52   52   5.653   4.954   7.984  0.0210  0.1595 -0.4386
    1MOL    C53   53   5.645   4.947   8.139 -0.2831  0.0782  0.4212
    1MOL   Cl54   54   5.484   4.943   8.205 -0.2009  0.3246  0.2282
    1MOL    C55   55   5.753   4.952   8.219 -0.1601  0.4662  0.0855
    1MOL    C56   56   5.759   4.950   8.369  0.6622 -0.5483 -0.1122
    1MOL    H57   57   5.659   5.058   7.953 -0.8076  0.8140  1.5650
    1MOL    H58   58   5.566   4.916   7.930  0.5735 -0.3638 -0.9787
    1MOL    H59   59   5.849   4.953   8.170  0.9814 -0.9965  2.1913
    1MOL    H60   60   5.821   5.035   8.400 -0.6639 -0.0961  1.3587
    1MOL    H61   61   5.657   4.958   8.406  1.1214  0.5140  0.9590
    1MOL    C62   62   5.822   4.819   0.002 -0.2793 -0.0927 -0.3541
    1MOL    C63   63   5.755   4.694   8.381  0.0163 -0.4321  0.6463
    1MOL   Cl64   64   5.603   4.683   0.047  0.1079  0.0261  0.2367
    1MOL    C65   65   5.796   4.605   8.291  0.2603 -0.0342 -0.0213
    1MOL    C66   66   5.720   4.486   8.255 -0.2671  0.3220  0.7890
    1MOL    H67   67   5.922   4.835   8.384  0.0005 -1.1738 -0.0921
    1MOL    H68   68   5.831   4.824   0.110  0.3745 -1.2649 -0.3505
    1MOL    H69   69   5.891   4.613   8.240  0.3982  0.0380  0.2452
    1MOL    H70   70   5.678   4.515   8.159  1.0125  0.9405  0.4041
    1MOL    H71   71   5.644   4.469   8.332  0.9240 -3.8664  1.1710
    1MOL    C72   72   5.805   4.360   8.244  0.5258  0.3602 -0.4389
    1MOL    C73   73   5.730   4.228   8.228 -0.6101  0.4398 -0.3705
    1MOL   Cl74   74   5.689   4.196   8.064  0.4566  0.0754  0.0552
    1MOL    C75   75   5.707   4.131   8.319 -0.1371  0.5043 -0.5166
    1MOL    C76   76   5.638   3.991   8.293 -0.6379  0.0277  0.2422
    1MOL    H77   77   5.874   4.353   8.328  1.1254  1.8190 -0.8028
    1MOL    H78   78   5.873   4.366   8.160 -0.7881 -4.4361 -2.0349
    1MOL    H79   79   5.748   4.143   8.418  2.0884 -0.6300 -1.2760
    1MOL    H80   80   5.688   3.922   8.360 -0.4825 -2.5540 -2.4681
    1MOL    H81   81   5.676   3.968   8.193  2.4837  0.4114  1.3069
    1MOL    C82   82   5.483   3.992   8.295 -0.0522 -0.2719 -0.4001
    1MOL    C83   83   5.429   4.044   8.420 -0.5840  0.0168 -0.3624
    1MOL   Cl84   84   5.412   4.215   8.419 -0.0629 -0.0440 -0.2746
    1MOL    C85   85   5.408   3.973   0.111  0.1433 -0.1547  0.2801
    1MOL    C86   86   5.374   4.022   0.250  0.2463 -0.3488  0.2247
    1MOL    H87   87   5.441   3.896   8.267 -1.0517 -0.3330  1.2917
    1MOL    H88   88   5.445   4.050   8.210 -1.5577 -0.5591  0.0768
    1MOL    H89   89   5.427   3.869   0.088  0.5399  0.5367 -2.6672
    1MOL    H90   90   5.386   4.130   0.245  0.9992 -0.4346  0.1330
    1MOL    H91   91   5.269   3.994   0.263  0.6826 -1.7583  0.8378
    1MOL    C92   92   5.468   3.982   0.365 -0.5237 -0.5226 -0.2301
    1MOL    C93   93   5.614   4.022   0.348 -0.4122 -0.1344  0.3812
    1MOL   Cl94   94   5.719   3.901   0.295  0.0080 -0.0854 -0.1424
    1MOL    C95   95   5.668   4.142   0.374  0.7581  0.4709 -0.0809
    1MOL    C96   96   5.593   4.270   0.414  0.8719  0.3153  0.2934
    1MOL    H97   97   5.450   3.874   0.368 -2.6336 -0.1821  0.0319
    1MOL    H98   98   5.428   4.020   0.458  0.4889  3.0840 -1.2191
    1MOL    H99   99   5.774   4.162   0.362  0.8183  0.3411  0.2230
    1MOL   H100  100   5.574   4.335   0.329 -0.1113 -2.0190 -1.3384
    1MOL   H101  101   5.494   4.243   0.451  0.7654 -0.5151 -0.5595
    1MOL   C102  102   5.670   4.355   0.513 -0.1274  0.4298  0.1081
    1MOL   C103  103   5.588   4.476   0.559 -0.2681  1.0848  0.0624
    1MOL  Cl104  104   5.527   4.459   0.721  0.3060  0.2714 -0.4657
    1MOL   C105  105   5.572   4.589   0.481  0.2638  0.0645  0.1835
    1MOL   C106  106   5.513   4.723   0.520  0.7309 -0.4692  0.1629
    1MOL   H107  107   5.691   4.295   0.602 -2.1841 -2.3807 -1.2333
    1MOL   H108  108   5.773   4.380   0.487 -0.2843  2.0149  0.9270
    1MOL   H109  109   5.610   4.598   0.381 -0.9639 -1.1855 -0.4074
    1MOL   H110  110   5.498   4.718   0.628 -2.2277  1.2780 -0.1194
    1MOL   H111  111   5.584   4.805   0.521  0.4329 -0.1065 -2.8694
    1MOL   C112  112   5.381   4.769   0.457  0.2549 -0.4717  0.1119
    1MOL   C113  113   5.324   4.905   0.488  0.6283 -0.5401  0.0989
    1MOL  Cl114  114   5.433   5.003   0.577  0.0369 -0.0633  0.2043
    1MOL   C115  115   5.196   4.951   0.472  0.3809 -0.5084  0.2118
    1MOL   C116  116   5.079   4.881   0.399  0.1572 -0.4848  0.3739
    1MOL   H117  117   5.385   4.779   0.349 -1.1461  1.9218  0.2405
    1MOL   H118  118   5.305   4.693   0.480  0.5741 -0.5725  0.8198
    1MOL   H119  119   5.163   5.043   0.518  3.6547  0.1630  1.3847
    1MOL   H120  120   5.105   4.786   0.353 -2.2382 -0.8199 -0.3614
    1MOL   H121  121   5.050   4.948   0.318 -0.8590  0.4386  1.4745
    1MOL   C122  122   4.961   4.828   0.489 -0.3490  0.4333 -0.2146
    1MOL   C123  123   5.016   4.737   0.594 -0.5069  0.2988 -0.5466
    1MOL  Cl124  124   5.021   4.818   0.744  0.0238  0.2411 -0.0647
    1MOL   C125  125   5.044   4.601   0.585  0.4762 -0.1789 -0.3463
    1MOL   C126  126   5.021   4.519   0.456 -0.3398 -0.1359  0.4877
    1MOL   H127  127   4.901   4.896   0.550 -0.5858 -0.0781  0.1325
    1MOL   H128  128   4.893   4.773   0.423 -0.7548  0.9166 -0.2022
    1MOL   H129  129   5.074   4.540   0.669 -0.6485 -1.8282 -1.1098
    1MOL   H130  130   4.945   4.452   0.495  1.0115 -1.0754  1.5548
    1MOL   H131  131   4.975   4.573   0.373 -0.2367  1.1941  1.2815
    1MOL   C132  132   5.139   4.424   0.422 -0.2634  0.4053 -0.0143
    1MOL   C133  133   5.116   4.356   0.290 -0.3063  0.3668  0.0270
    1MOL  Cl134  134   5.035   4.201   0.299 -0.1245 -0.1242  0.2221
    1MOL   C135  135   5.176   4.399   0.178 -0.6974  0.2023 -0.5426
    1MOL   C136  136   5.253   4.525   0.141 -0.9137 -0.0319 -0.4411
    1MOL   H137  137   5.229   4.485   0.415  0.7381 -0.7045  2.6073
    1MOL   H138  138   5.170   4.344   0.489 -0.1256 -0.4041 -1.0281
    1MOL   H139  139   5.165   4.330   0.096 -0.6575  0.0835 -0.4493
    1MOL   H140  140   5.268   4.586   0.230 -2.9752 -0.7575  0.4253
    1MOL   H141  141   5.355   4.501   0.110 -0.5334  2.2071 -1.0030
    1MOL   C142  142   5.192   4.596   0.021  0.5254 -0.5684 -0.3154
    1MOL   C143  143   5.159   4.748   0.049  0.1528  0.2732 -1.0589
    1MOL  Cl144  144   4.988   4.780   0.059  0.1911 -0.4424 -0.1113
    1MOL   C145  145   5.254   4.838   0.040 -0.0159 -0.4165  0.2402
    1MOL   C146  146   5.233   4.990   0.059 -0.2583  0.1722  0.3043
    1MOL   H147  147   5.097   4.544   0.006  1.1988 -1.2004 -2.6716
    1MOL   H148  148   5.257   4.587   8.355 -1.7952  0.2284 -2.1960
    1MOL   H149  149   5.358   4.813   0.020  0.2195  0.4331  0.3688
    1MOL   H150  150   5.238   5.037   8.382 -3.0972  1.1541  0.5780
    1MOL   H151  151   5.139   5.018   0.106 -0.1851  0.0301  0.5373
    1MOL   C152  152   5.355   5.057   0.126  0.1721  0.9922 -0.5191
    1MOL   C153  153   5.330   5.203   0.165  0.2959  0.6361 -0.2433
    1MOL  Cl154  154   5.352   5.226   0.331 -0.0012  0.0031  0.2967
    1MOL   C155  155   5.293   5.298   0.078  0.4794 -0.3040 -0.1017
    1MOL   C156  156   5.269   5.444   0.112 -0.3911 -0.6388  0.1716
    1MOL   H157  157   5.393   4.986   0.200 -0.5333  0.9499 -0.1900
    1MOL   H158  158   5.433   5.079   0.053  0.3471  2.4369  0.0873
    1MOL   H159  159   5.289   5.260   8.398  2.4815 -1.3113  0.1676
    1MOL   H160  160   5.285   5.453   0.220 -1.1459 -1.3802  0.3606
    1MOL   H161  161   5.170   5.478   0.081 -0.0652 -1.2073 -1.4967
    1MOL   C162  162   5.363   5.531   0.025  0.0204  0.0656  0.4649
    1MOL   C163  163   5.372   5.673   0.074  0.4899 -0.4257  0.0835
    1MOL  Cl164  164   5.322   5.787   8.377 -0.1946  0.1881  0.0519
    1MOL   C165  165   5.408   5.704   0.201  0.6800  0.3838 -0.1755
    1MOL   C166  166   5.399   5.844   0.256 -0.1965  0.3139 -0.1434
    1MOL   H167  167   5.460   5.487   0.047 -0.2371  0.5357  2.6601
    1MOL   H168  168   5.343   5.531   8.339  1.5296 -1.0179  0.1682
    1MOL   H169  169   5.438   5.629   0.273  0.3684  2.4227  2.1414
    1MOL   H170  170   5.488   5.900   0.227  1.8645 -2.9955 -0.5583
    1MOL   H171  171   5.328   5.910   0.207 -1.4863 -0.9261  0.0022
    1MOL   C172  172   5.386   5.849   0.411 -0.7168 -0.4128 -0.8340
    1MOL   C173  173   5.389   5.991   0.466 -0.5327  0.4502 -0.7731
    1MOL  Cl174  174   5.243   6.032   0.550  0.1607 -0.1642  0.2707
    1MOL   C175  175   5.479   6.090   0.440  0.0254 -0.2247 -0.5402
    1MOL   C176  176   5.479   6.236   0.485  0.1095 -0.1639 -0.2740
    1MOL   H177  177   5.454   5.782   0.464  0.8188  0.8229 -1.2147
    1MOL   H178  178   5.290   5.799   0.426 -0.0216 -1.0013  1.9723
    1MOL   H179  179   5.573   6.061   0.393  1.1376 -0.5664  1.8359
    1MOL   H180  180   5.473   6.238   0.594  0.8590  0.8774 -0.2355
    1MOL   H181  181   5.392   6.286   0.441 -0.3273 -2.1516 -1.7035
    1MOL   C182  182   5.602   6.321   0.439 -0.7489 -0.2117 -0.1952
    1MOL   C183  183   5.614   6.325   0.294 -0.6952 -0.8966 -0.7009
    1MOL  Cl184  184   5.780   6.324   0.239 -0.3498 -0.1631 -0.4314
    1MOL   C185  185   5.510   6.313   0.207  0.2421  0.5049 -0.5653
    1MOL   C186  186   5.527   6.321   0.055 -0.0306  0.9647  0.4786
    1MOL   H187  187   5.587   6.422   0.477  2.9754 -0.4362  2.0229
    1MOL   H188  188   5.696   6.279   0.475 -1.1777  1.3270  2.8837
    1MOL   H189  189   5.404   6.306   0.224  0.3435 -2.5773 -0.8945
    1MOL   H190  190   5.442   6.383   0.027 -1.7957 -1.8923 -0.6715
    1MOL   H191  191   5.622   6.369   0.029  1.3411 -1.7114  0.4196
    1MOL   C192  192   5.542   6.188   8.403  1.2826  0.2593 -0.2888
    1MOL   C193  193   5.452   6.178   8.281 -0.7155  0.2512  0.5805
    1MOL  Cl194  194   5.546   6.175   8.135  0.0636  0.1822 -0.0216
    1MOL   C195  195   5.319   6.157   8.280 -0.5797  0.3778 -0.2609
    1MOL   C196  196   5.227   6.161   8.406 -0.2882  0.2288 -0.2052
    1MOL   H197  197   5.522   6.104   0.048  1.0860  1.5665  1.3546
    1MOL   H198  198   5.648   6.175   8.381  1.3325  0.6455 -0.2678
    1MOL   H199  199   5.277   6.148   8.181 -1.6956  0.2250  0.2088
    1MOL   H200  200   5.270   6.245   0.039  0.1087  0.1670 -0.4216
    1MOL   H201  201   5.229   6.064   0.034  0.7763 -0.5842 -1.8059
    1MOL   H202  202   5.130   6.194   8.368 -0.4149 -0.2056 -0.2607
    2MOL     C1  203   0.308   6.854   7.490 -0.2361  0.0968 -0.1136
    2MOL     C2  204   0.291   6.737   7.589  0.4944  0.2514 -0.1035
    2MOL    Cl3  205   0.355   6.588   7.517 -0.5392  0.1070 -0.2036
    2MOL     C4  206   0.221   6.743   7.704  0.1870 -0.5494  0.5655
    2MOL     C5  207   0.159   6.866   7.757  0.3344 -0.5355  0.3689
    2MOL     H6  208   0.351   6.940   7.541  0.9665 -0.7012  0.2521
    2MOL     H7  209   0.215   6.872   7.437  0.7202 -1.2117 -2.3203
    2MOL     H8  210   0.211   6.655   7.764  0.3195 -0.6517  0.4375
    2MOL     H9  211   0.148   6.948   7.686 -1.0835 -0.8392  0.2269
    2MOL    H10  212   0.059   6.829   7.778 -0.9182  2.5421  0.0529
    2MOL    H11  213   0.379   6.838   7.409 -0.3819 -1.4597  0.0434
    2MOL    C12  214   0.224   6.923   7.886  0.1280  0.6772  0.1954
    2MOL    C13  215   0.362   6.976   7.863  0.4072 -0.2067  0.0312
    2MOL   Cl14  216   0.482   6.861   7.909  0.1075  0.0741  0.1819
    2MOL    C15  217   0.400   7.098   7.814 -0.8085 -0.1602 -0.3334
    2MOL    C16  218   0.303   7.211   7.777 -0.5703 -0.3069  0.0169
    2MOL    H17  219   0.166   7.003   7.933 -0.3471  0.0196  0.7381
    2MOL    H18  220   0.237   6.846   7.962 -0.1018  0.1223 -0.3233
    2MOL    H19  221   0.506   7.119   7.812 -0.9491  0.7044  0.4949
    2MOL    H20  222   0.322   7.229   7.672 -0.8307 -1.1825 -0.1881
    2MOL    H21  223   0.201   7.175   7.795  0.6905 -3.4649  1.2708
    2MOL    C22  224   0.317   7.334   7.870  0.2754 -0.4525 -0.7259
    2MOL    C23  225   0.180   7.391   7.907 -0.2694  0.1030  0.0406
    2MOL   Cl24  226   0.144   7.389   8.086 -0.3304  0.3993 -0.4612
    2MOL    C25  227   0.084   7.420   7.820 -0.4578  0.3869  0.1845
    2MOL    C26  228   8.369   7.475   7.868 -0.2029 -0.2134  0.3709
    2MOL    H27  229   0.386   7.314   7.952  1.0639 -2.2354 -1.8056
    2MOL    H28  230   0.366   7.412   7.811  0.3321  0.5150  0.5739
    2MOL    H29  231   0.106   7.411   7.715 -1.4640  1.0294 -0.0903
    2MOL    H30  232   8.303   7.388   7.871 -0.2695 -0.2084 -0.8874
    2MOL    H31  233   8.381   7.517   7.968 -0.0176  0.8547 -0.1007
    2MOL    C32  234   8.330   7.585   7.773 -0.1888 -0.3690 -0.3836
    2MOL    C33  235   8.184   7.619   7.809 -0.7730  0.1268 -0.2109
    2MOL   Cl34  236   8.157   7.784   7.864 -0.0615 -0.0671  0.2280
    2MOL    C35  237   8.083   7.529   7.805 -0.1489  0.6513  0.1210
    2MOL    C36  238   7.942   7.559   7.861  0.4355 -0.6168  0.3227
    2MOL    H37  239   8.389   7.677   7.773  1.4864 -1.4349  0.5898
    2MOL    H38  240   8.331   7.551   7.670 -1.9887 -2.2883  0.1932
    2MOL    H39  241   8.095   7.427   7.772 -0.2078 -0.0024  2.0371
    2MOL    H40  242   7.899   7.488   7.933  0.3738 -1.1187 -0.2028
    2MOL    H41  243   7.949   7.639   7.934  1.5136  0.4574 -0.9351
    2MOL    C42  244   7.839   7.593   7.751  1.6523  0.0741 -0.3101
    2MOL    C43  245   7.735   7.690   7.805  0.0050 -0.0794  0.6559
    2MOL   Cl44  246   7.615   7.597   7.888 -0.0976 -0.2713  0.7602
    2MOL    C45  247   7.726   7.821   7.776 -0.8567  0.3986 -0.3605
    2MOL    C46  248   7.829   7.908   7.710  0.8819 -0.0904 -0.0388
    2MOL    H47  249   7.882   7.632   7.659  0.5758  2.0363 -0.0028
    2MOL    H48  250   7.783   7.501   7.733  1.8887 -0.1248 -0.0362
    2MOL    H49  251   7.641   7.876   7.813  1.7344  3.4952  1.2363
    2MOL    H50  252   7.862   7.972   7.792  0.3819 -1.0287  0.8920
    2MOL    H51  253   7.917   7.849   7.685  0.0338 -2.0325  1.4433
    2MOL    C52  254   7.787   7.987   7.578 -0.5311  0.3240  0.2848
    2MOL    C53  255   7.904   8.078   7.539 -0.5357  0.0759  0.4432
    2MOL   Cl54  256   7.873   8.244   7.590 -0.0518  0.0116 -0.3417
    2MOL    C55  257   8.003   8.042   7.459  0.0170 -0.2499 -0.4624
    2MOL    C56  258   8.105   8.129   7.391 -0.1265  0.6345 -0.2447
    2MOL    H57  259   7.781   7.922   7.491 -2.0457 -0.4783  0.9879
    2MOL    H58  260   7.692   8.040   7.584 -1.1126 -0.6704  0.0013
    2MOL    H59  261   8.008   7.938   7.429  0.1814 -0.1195 -0.8838
    2MOL    H60  262   8.101   8.100   7.286  0.3740 -1.7395  0.3680
    2MOL    H61  263   8.074   8.232   7.407  2.5951  1.2146  1.6302
    2MOL    C62  264   8.246   8.119   7.453  0.5869  0.1374 -0.0360
    2MOL    C63  265   8.301   7.977   7.471 -0.2658  0.1925  0.2306
    2MOL   Cl64  266   8.388   7.953   7.621  0.0717  0.1593  0.2462
    2MOL    C65  267   8.296   7.884   7.373  0.3439 -0.0446  0.4622
    2MOL    C66  268   8.344   7.745   7.381 -0.8137  0.5105 -0.1090
    2MOL    H67  269   8.308   8.190   7.398  0.6922 -1.2466 -1.7599
    2MOL    H68  270   8.238   8.156   7.555 -0.0113 -0.5857  0.1798
    2MOL    H69  271   8.251   7.916   7.280  0.3832 -1.8788 -0.2058
    2MOL    H70  272   8.410   7.728   7.466 -2.9596  1.3304  1.7605
    2MOL    H71  273   8.401   7.738   7.288  2.6475  0.0279  1.9637
    2MOL    C72  274   8.233   7.636   7.373 -0.7657 -0.1024 -0.1632
    2MOL    C73  275   8.154   7.634   7.239 -0.1552 -0.1506 -0.2351
    2MOL   Cl74  276   8.231   7.535   7.114 -0.2909 -0.0208  0.0609
    2MOL    C75  277   8.034   7.687   7.226 -0.4522  0.0992 -0.0519
    2MOL    C76  278   7.956   7.687   7.091 -0.3216  0.6664 -0.1886
    2MOL    H77  279   8.173   7.651   7.463  0.3800  2.8670  0.1489
    2MOL    H78  280   8.276   7.544   7.412 -0.1445 -0.2123 -1.0974
    2MOL    H79  281   7.977   7.728   7.308 -3.0632 -1.4701 -1.0323
    2MOL    H80  282   8.027   7.674   7.009  0.1811 -0.9748  0.4825
    2MOL    H81  283   7.911   7.785   7.075 -0.4400  0.8416  1.1818
    2MOL    C82  284   7.842   7.584   7.083  0.8832 -0.4359  0.3499
    2MOL    C83  285   7.755   7.589   6.957  0.3687 -0.5455 -1.3115
    2MOL   Cl84  286   7.853   7.606   6.815  0.0386  0.4589 -0.1256
    2MOL    C85  287   7.620   7.572   6.952 -0.3697 -0.3357  0.0287
    2MOL    C86  288   7.539   7.571   6.822  0.6458  0.0464 -0.3405
    2MOL    H87  289   7.768   7.588   7.163  2.5595  1.9579  1.8699
    2MOL    H88  290   7.877   7.481   7.082 -1.8389 -1.3988 -0.6084
    2MOL    H89  291   7.572   7.560   7.047 -0.8623  0.2454 -0.1438
    2MOL    H90  292   7.466   7.651   6.811 -0.4733 -1.1406 -1.9501
    2MOL    H91  293   7.609   7.587   6.740  1.6675 -1.6887  0.1646
    2MOL    C92  294   7.469   7.429   6.803  0.0807 -0.2422 -0.2954
    2MOL    C93  295   7.334   7.445   6.740  0.1455  0.5586  0.1014
    2MOL   Cl94  296   7.334   7.435   6.569  0.1511  0.1563  0.0783
    2MOL    C95  297   7.218   7.460   6.808 -0.0354 -0.2463  0.0720
    2MOL    C96  298   7.197   7.468   6.953 -0.1015 -0.6269  0.4571
    2MOL    H97  299   7.472   7.381   6.901 -1.2401  0.5484  0.1560
    2MOL    H98  300   7.530   7.359   6.746  0.3536 -1.1918  1.1296
    2MOL    H99  301   7.131   7.470   6.744  0.7752 -1.0231 -1.1797
    2MOL   H100  302   7.097   7.430   6.972  0.5168 -1.3985  2.2035
    2MOL   H101  303   7.270   7.407   7.006 -0.7440  0.2751  2.3990
    2MOL   C102  304   7.195   7.622   6.997 -0.2298  0.1088 -0.6353
    2MOL   C103  305   7.138   7.649   7.136  0.5425  0.3062 -0.3349
    2MOL  Cl104  306   7.185   7.528   7.255 -0.3713 -0.2919  0.0395
    2MOL   C105  307   7.060   7.754   7.168 -0.7135 -0.9716 -0.2609
    2MOL   C106  308   7.007   7.787   7.312  0.2903 -0.5919 -0.5773
    2MOL   H107  309   7.294   7.666   7.003  0.0537 -0.5920 -0.1229
    2MOL   H108  310   7.129   7.677   6.930  0.1505  0.1876 -0.9380
    2MOL   H109  311   7.031   7.829   7.096 -0.1930 -0.7228 -0.2152
    2MOL   H110  312   6.991   7.691   7.360 -1.2688  0.4617  1.0574
    2MOL   H111  313   7.093   7.836   7.358  0.9630 -1.2054 -1.1608
    2MOL   C112  314   6.871   7.858   7.321 -0.3240  0.4953  0.2970
    2MOL   C113  315   6.822   7.921   7.447  0.8093  0.1648  0.1703
    2MOL  Cl114  316   6.927   8.039   7.513  0.2032 -0.1323  0.0012
    2MOL   C115  317   6.716   7.892   7.522  0.0165 -0.1930 -0.5911
    2MOL   C116  318   6.631   7.773   7.504  0.2810  0.6155  0.3626
    2MOL   H117  319   6.864   7.949   7.263 -1.1244 -0.2540 -0.7997
    2MOL   H118  320   6.793   7.798   7.273  1.7715 -1.3746 -0.8768
    2MOL   H119  321   6.698   7.954   7.608  2.9942 -0.1967  0.0766
    2MOL   H120  322   6.686   7.713   7.431 -1.2288 -0.8257  0.3569
    2MOL   H121  323   6.536   7.796   7.456 -0.0532  0.9187  1.1698
    2MOL   C122  324   6.610   7.695   7.635  0.3750 -1.2256  0.0182
    2MOL   C123  325   6.507   7.766   7.721  0.0637 -0.2013  0.3462
    2MOL  Cl124  326   6.583   7.859   7.842  0.2995 -0.1640  0.1829
    2MOL   C125  327   6.374   7.751   7.698 -0.9230 -0.0878  0.1283
    2MOL   C126  328   6.307   7.660   7.596 -0.6779  1.2059 -0.1122
    2MOL   H127  329   6.570   7.596   7.614 -0.2152 -1.4082  1.8604
    2MOL   H128  330   6.704   7.678   7.689  0.6531  0.9795  0.2582
    2MOL   H129  331   6.309   7.806   7.765 -1.3124  1.2952 -1.3342
    2MOL   H130  332   6.385   7.616   7.534  1.2122 -0.6832  3.4266
    2MOL   H131  333   6.249   7.584   7.648 -0.3528  1.2802  0.3672
    2MOL   C132  334   6.215   7.744   7.512  0.1060 -0.1368  0.0139
    2MOL   C133  335   6.131   7.652   7.424  0.3388  0.0089 -0.0527
    2MOL  Cl134  336   6.224   7.585   7.292 -0.3036 -0.2499 -0.0514
    2MOL   C135  337   6.002   7.613   7.441 -0.4711 -0.4444  0.2630
    2MOL   C136  338   5.916   7.671   7.555 -0.0542 -0.9216 -0.3972
    2MOL   H137  339   6.159   7.805   7.583  0.1662  0.8125 -0.7458
    2MOL   H138  340   6.273   7.813   7.451 -1.4065  1.2318  0.1157
    2MOL   H139  341   5.949   7.545   7.376  0.1015 -1.3305  0.7250
    2MOL   H140  342   5.957   7.768   7.583 -2.5590  0.6915 -2.1150
    2MOL   H141  343   5.815   7.691   7.521  0.3095 -0.0150 -0.9583
    2MOL   C142  344   5.905   7.578   7.669  0.8463  0.3936 -0.2582
    2MOL   C143  345   5.855   7.647   7.797  0.0091  0.6428 -0.1022
    2MOL  Cl144  346   5.995   7.717   7.874 -0.3195  0.1269  0.6586
    2MOL   C145  347   5.725   7.671   7.826  0.1992 -0.0313  0.1639
    2MOL   C146  348   5.668   7.722   7.952  0.0120 -1.0213 -0.0602
    2MOL   H147  349   6.006   7.544   7.693  0.9957  1.8994  1.3540
    2MOL   H148  350   5.847   7.488   7.650  1.3980 -0.5262  2.2337
    2MOL   H149  351   5.646   7.629   7.765  1.9723 -2.5349 -0.4985
    2MOL   H150  352   5.738   7.742   8.034  0.1129 -1.1214 -0.1210
    2MOL   H151  353   5.634   7.819   7.915  1.1434 -0.3845  0.5252
    2MOL   C152  354   5.552   7.645   8.009 -0.1060  0.4922  0.3881
    2MOL   C153  355   5.497   7.694   8.140 -0.0805  0.9179  0.5326
    2MOL  Cl154  356   5.539   7.854   8.187 -0.3248  0.0458 -0.5853
    2MOL   C155  357   5.421   7.617   8.229 -0.2806 -0.2868 -0.1481
    2MOL   C156  358   5.371   7.659   8.364  0.5473 -0.0662 -0.2870
    2MOL   H157  359   5.474   7.671   7.936  1.0851 -0.7521 -1.3719
    2MOL   H158  360   5.577   7.539   8.004 -1.5369  0.1526 -0.0539
    2MOL   H159  361   5.396   7.516   8.201  0.3487 -0.1092 -1.3605
    2MOL   H160  362   5.435   7.743   8.393 -1.4287  1.2994  0.2282
    2MOL   H161  363   5.391   7.577   0.012 -0.0665  0.2017  0.2112
    2MOL   C162  364   5.224   7.688   8.355 -0.6417 -0.2648 -0.5008
    2MOL   C163  365   5.160   7.686   0.067  0.6196  0.1631  0.8852
    2MOL  Cl164  366   5.076   7.540   0.085 -0.0224 -0.1180  0.1059
    2MOL   C165  367   5.149   7.790   0.155 -0.3392 -0.1476 -0.3710
    2MOL   C166  368   5.073   7.796   0.288 -0.7683 -0.2618  0.7371
    2MOL   H167  369   5.213   7.791   8.321 -0.3025  0.5235  1.6447
    2MOL   H168  370   5.174   7.620   8.287 -0.9513 -0.8057  0.2620
    2MOL   H169  371   5.206   7.879   0.130 -1.8064  1.4341  1.8081
    2MOL   H170  372   5.013   7.706   0.303  2.1928 -2.1205  2.1114
    2MOL   H171  373   5.142   7.785   0.372 -0.3021  0.2896  0.4303
    2MOL   C172  374   4.999   7.931   0.301 -0.4173 -0.3004  0.4695
    2MOL   C173  375   4.931   7.944   0.435  0.3898  0.9029 -0.1559
    2MOL  Cl174  376   4.788   7.840   0.445  0.1475 -0.3224  0.1476
    2MOL   C175  377   4.972   8.024   0.535  0.1744 -0.5751 -0.7536
    2MOL   C176  378   4.920   8.052   0.672  0.7496 -0.1469 -0.0007
    2MOL   H177  379   4.917   7.939   0.230  0.0424 -1.9853 -0.2636
    2MOL   H178  380   5.069   8.014   0.293  1.3568 -1.7785  0.3442
    2MOL   H179  381   5.064   8.080   0.526  0.4191 -0.9100 -0.4100
    2MOL   H180  382   4.979   8.018   0.757  1.5001 -0.6890 -0.7404
    2MOL   H181  383   4.826   7.998   0.685 -0.0232  1.6854  2.5728
    2MOL   C182  384   4.887   8.204   0.688 -0.1941  0.7478 -0.4122
    2MOL   C183  385   4.816   8.240   0.813 -0.6412 -0.8296 -0.4232
    2MOL  Cl184  386   4.738   8.393   0.791 -0.0939 -0.1256 -0.2927
    2MOL   C185  387   4.821   8.186   0.935  0.0191  0.7449 -0.3353
    2MOL   C186  388   4.759   8.234   1.059  0.3519 -0.6576  0.4236
    2MOL   H187  389   4.976   8.257   0.721 -1.2027  1.2720  1.5676
    2MOL   H188  390   4.830   8.248   0.606 -1.0793 -0.6163 -0.5583
    2MOL   H189  391   4.872   8.092   0.950 -0.2292  0.7080  0.2862
    2MOL   H190  392   4.829   8.208   1.138 -1.1762  2.2934  2.8332
    2MOL   H191  393   4.739   8.341   1.056  0.4879 -0.6440 -0.2844
    2MOL   C192  394   4.617   8.180   1.090 -0.3072  0.2295 -0.2393
    2MOL   C193  395   4.604   8.045   1.160 -0.2825  0.1880 -0.1657
    2MOL  Cl194  396   4.755   7.957   1.170  0.0597  0.0150 -0.3231
    2MOL   C195  397   4.491   7.988   1.211 -0.1010  0.1422 -0.5508
    2MOL   C196  398   4.362   8.053   1.203  0.9277 -0.2473 -0.3664
    2MOL   H197  399   4.546   8.189   1.008  1.8793  2.5520 -1.9346
    2MOL   H198  400   4.573   8.258   1.151  2.5637  1.2379  0.6174
    2MOL   H199  401   4.490   7.890   1.258  1.0331 -0.2851 -1.3886
    2MOL   H200  402   4.364   8.153   1.158 -0.8182 -0.2839 -0.5744
    2MOL   H201  403   4.328   8.070   1.305  1.9615 -2.8939  0.4367
    2MOL   H202  404   4.281   8.003   1.149  0.3834 -1.8902  1.9245
    3MOL     C1  405   7.661   5.710   4.757 -0.0100  0.1882  0.0693
    3MOL     C2  406   7.781   5.617   4.788 -0.7787 -0.5446 -0.1598
    3MOL    Cl3  407   7.917   5.719   4.825 -0.0962  0.2768  0.1754
    3MOL     C4  408   7.793   5.484   4.778  0.3047 -0.0469 -1.1288
    3MOL     C5  409   7.689   5.388   4.729  0.5419  0.3824 -0.1575
    3MOL     H6  410   7.575   5.658   4.714 -0.8009  0.1161  1.6759
    3MOL     H7  411   7.695   5.784   4.685  0.3108  0.3499  0.3832
    3MOL     H8  412   7.891   5.444   4.803  0.2955  2.3138  3.2458
    3MOL     H9  413   7.697   5.299   4.791 -0.4685  0.3323 -0.0998
    3MOL    H10  414   7.591   5.432   4.746 -0.0258 -0.7293 -0.5848
    3MOL    H11  415   7.633   5.774   4.841  2.6432 -0.0831  1.2100
    3MOL    C12  416   7.710   5.373   4.576 -0.3292  0.5316  0.2981
    3MOL    C13  417   7.634   5.244   4.532 -0.2130  0.1869 -0.8354
    3MOL   Cl14  418   7.755   5.117   4.523 -0.2756 -0.2227  0.1877
    3MOL    C15  419   7.502   5.218   4.518  0.9974 -0.2789  0.4436
    3MOL    C16  420   7.389   5.321   4.525 -0.2700  0.2931  0.6820
    3MOL    H17  421   7.659   5.457   4.528  3.9292  1.6352 -2.5589
    3MOL    H18  422   7.813   5.382   4.543 -0.5872  0.8259 -0.4274
    3MOL    H19  423   7.470   5.119   4.487  1.1611 -0.1795 -0.0568
    3MOL    H20  424   7.319   5.285   4.600 -0.7830 -1.2881 -0.5022
    3MOL    H21  425   7.418   5.422   4.551  2.2624 -0.3416  0.4692
    3MOL    C22  426   7.324   5.331   4.394 -0.0020 -0.4578 -0.7425
    3MOL    C23  427   7.178   5.385   4.393  0.0852 -0.0472  0.3475
    3MOL   Cl24  428   7.052   5.261   4.361 -0.0439  0.1764 -0.0857
    3MOL    C25  429   7.149   5.517   4.413 -0.5815 -0.0109 -0.5914
    3MOL    C26  430   7.015   5.572   4.416  0.0303 -0.4958  0.1635
    3MOL    H27  431   7.390   5.405   4.348  0.9080 -1.1625 -0.5713
    3MOL    H28  432   7.330   5.242   4.332  0.2772  0.5184 -2.1556
    3MOL    H29  433   7.230   5.584   4.437 -1.1681  0.6134 -0.3157
    3MOL    H30  434   6.938   5.501   4.388  0.6530 -0.8611 -0.6240
    3MOL    H31  435   7.003   5.592   4.523  0.1351  0.3270  0.0240
    3MOL    C32  436   7.009   5.696   4.325  0.6119  0.3930 -0.5473
    3MOL    C33  437   6.874   5.761   4.327 -1.0212 -0.2195  0.0414
    3MOL   Cl34  438   6.791   5.747   4.174 -0.1562 -0.0119  0.2769
    3MOL    C35  439   6.820   5.814   4.435  0.4840 -0.7110  0.2569
    3MOL    C36  440   6.684   5.884   4.443  0.4555 -0.2681  0.2536
    3MOL    H37  441   7.085   5.770   4.352 -0.0003  1.2213 -1.0652
    3MOL    H38  442   7.034   5.687   4.219 -0.7549  0.5786 -0.8881
    3MOL    H39  443   6.874   5.821   4.528 -0.3179 -0.9385  0.7448
    3MOL    H40  444   6.628   5.868   4.351 -1.3764  0.7127  1.1804
    3MOL    H41  445   6.634   5.830   4.523 -1.3958  0.7979 -0.1577
    3MOL    C42  446   6.702   6.030   4.483 -0.0542 -0.6690  0.3342
    3MOL    C43  447   6.782   6.044   4.605 -0.7692  0.1054 -0.6384
    3MOL   Cl44  448   6.694   6.019   4.747  0.0461 -0.3456  0.5559
    3MOL    C45  449   6.911   6.072   4.601  0.5737 -0.8009 -0.1640
    3MOL    C46  450   6.995   6.102   4.476  0.1482  0.3286  0.1201
    3MOL    H47  451   6.731   6.079   4.390  1.1924 -0.6030  0.7456
    3MOL    H48  452   6.603   6.070   4.503 -0.1723 -0.4634 -0.6263
    3MOL    H49  453   6.968   6.076   4.692 -0.9484  1.0169  0.7426
    3MOL    H50  454   7.087   6.046   4.492 -1.1317 -2.0272 -0.6360
    3MOL    H51  455   6.962   6.058   4.383 -1.0187  3.8252 -1.2088
    3MOL    C52  456   7.045   6.251   4.480 -0.7459 -0.1855  0.2027
    3MOL    C53  457   7.139   6.292   4.376  0.2890  0.0485 -0.9895
    3MOL   Cl54  458   7.300   6.248   4.424  0.1948  0.3645 -0.0113
    3MOL    C55  459   7.108   6.367   4.270  0.1819  0.1051 -0.3211
    3MOL    C56  460   7.203   6.425   4.169 -0.4184  0.2928  0.5623
    3MOL    H57  461   6.976   6.334   4.477  0.5265  0.8752 -0.1478
    3MOL    H58  462   7.097   6.261   4.576  0.5398  0.0993 -0.5068
    3MOL    H59  463   7.007   6.402   4.255  0.5895  1.2481 -0.4429
    3MOL    H60  464   7.240   6.522   4.201  1.7936 -0.6980  1.1381
    3MOL    H61  465   7.295   6.368   4.181 -1.4896 -1.3129  1.5064
    3MOL    C62  466   7.156   6.436   4.023 -0.6296  0.6260  0.8594
    3MOL    C63  467   7.264   6.494   3.929  0.0799 -0.5822  0.8769
    3MOL   Cl64  468   7.277   6.659   3.951 -0.0183 -0.5776 -0.0297
    3MOL    C65  469   7.345   6.427   3.843 -0.0400  0.1723  0.2774
    3MOL    C66  470   7.448   6.488   3.756  0.4803  1.0169  0.3235
    3MOL    H67  471   7.123   6.344   3.975 -0.7264  1.6171 -0.9995
    3MOL    H68  472   7.076   6.510   4.022 -2.8357 -1.7114  0.1184
    3MOL    H69  473   7.338   6.319   3.850 -2.1655  0.3523  1.3594
    3MOL    H70  474   7.421   6.590   3.730  1.5867  1.0031 -0.9047
    3MOL    H71  475   7.431   6.429   3.666  0.3410  0.2148  0.8601
    3MOL    C72  476   7.589   6.480   3.824 -0.3520  0.0307 -0.4848
    3MOL    C73  477   7.690   6.560   3.737  0.8818  0.1208  0.5430
    3MOL   Cl74  478   7.687   6.727   3.770  0.0904  0.2101 -0.0436
    3MOL    C75  479   7.777   6.501   3.657  0.3080 -0.7659 -0.0086
    3MOL    C76  480   7.882   6.565   3.573  0.6136 -0.0144 -0.1749
    3MOL    H77  481   7.618   6.381   3.861  0.5042  1.0161  1.5409
    3MOL    H78  482   7.578   6.535   3.918 -0.1173 -2.1643  0.8837
    3MOL    H79  483   7.779   6.393   3.649 -2.9075 -0.7853 -0.9889
    3MOL    H80  484   7.856   6.670   3.562 -0.5712  0.0014  2.4352
    3MOL    H81  485   7.871   6.506   3.482 -0.4772  0.3283 -0.2706
    3MOL    C82  486   8.024   6.541   3.632 -0.0010  0.1796 -0.5954
    3MOL    C83  487   8.129   6.608   3.544 -0.1502  0.4509 -1.1234
    3MOL   Cl84  488   8.195   6.503   3.423  0.0441  0.1804 -0.3369
    3MOL    C85  489   8.165   6.735   3.557  0.5858  0.3400  0.7673
    3MOL    C86  490   8.258   6.822   3.474 -0.1746 -0.0593 -0.3153
    3MOL    H87  491   8.044   6.434   3.640  0.2159  0.1551 -1.4036
    3MOL    H88  492   8.049   6.575   3.732  0.1025 -0.5716 -0.3629
    3MOL    H89  493   8.119   6.789   3.637  0.3521  3.2419 -1.2243
    3MOL    H90  494   8.304   6.763   3.394  1.0007 -0.7859  0.8620
    3MOL    H91  495   8.194   6.900   3.435 -2.3519 -0.5020  2.1918
    3MOL    C92  496   8.374   6.880   3.553 -0.2939  0.0958  0.0076
    3MOL    C93  497   0.064   6.930   3.468 -0.4655 -0.8324 -0.0906
    3MOL   Cl94  498   0.047   7.098   3.436 -0.7249 -0.0942  0.4292
    3MOL    C95  499   0.168   6.855   3.417  0.1180 -0.3446  0.0781
    3MOL    C96  500   0.193   6.704   3.446 -0.9489 -0.0336 -0.3428
    3MOL    H97  501   8.419   6.801   3.613  0.2310  0.4150  0.0342
    3MOL    H98  502   8.342   6.952   3.628  1.6717 -0.5297  1.4736
    3MOL    H99  503   0.243   6.895   3.351 -1.5184  0.6360 -1.2573
    3MOL   H100  504   0.280   6.699   3.512 -0.4497  2.4241 -0.7243
    3MOL   H101  505   0.108   6.654   3.491 -2.1500 -1.1793 -3.7495
    3MOL   C102  506   0.223   6.626   3.312 -0.5396 -0.3072  0.0396
    3MOL   C103  507   0.246   6.475   3.325 -0.2067 -0.2107  0.6527
    3MOL  Cl104  508   0.122   6.390   3.409 -0.0932  0.2468  0.0174
    3MOL   C105  509   0.345   6.413   3.267  0.1843  0.0161  1.0290
    3MOL   C106  510   0.367   6.263   3.280 -0.2729  0.4005 -0.3448
    3MOL   H107  511   0.145   6.626   3.237  0.7426 -0.4241 -1.3237
    3MOL   H108  512   0.312   6.671   3.267 -1.6453  0.6704 -1.2002
    3MOL   H109  513   0.410   6.477   3.209  1.4702 -2.1080  0.0606
    3MOL   H110  514   0.476   6.257   3.279 -0.2825  0.2907 -0.7439
    3MOL   H111  515   0.347   6.218   3.378  1.1142  0.1751 -0.1412
    3MOL   C112  516   0.312   6.171   3.169  0.3227  0.0131 -0.2410
    3MOL   C113  517   0.159   6.163   3.162 -0.1185  0.2668  0.0474
    3MOL  Cl114  518   0.091   6.040   3.267 -0.0354 -0.0529 -0.0184
    3MOL   C115  519   0.082   6.236   3.079 -0.0297  0.8556  0.2021
    3MOL   C116  520   0.139   6.330   2.974 -0.4670 -0.1675  0.0458
    3MOL   H117  521   0.370   6.192   3.079  1.3565  0.9142  0.6195
    3MOL   H118  522   0.350   6.072   3.196 -1.2051 -0.4035  0.4097
    3MOL   H119  523   8.397   6.215   3.089 -0.4430  1.8557 -1.8617
    3MOL   H120  524   0.164   6.259   2.895 -0.5280  1.0353 -1.0802
    3MOL   H121  525   0.226   6.386   3.008 -0.9268  1.6690 -1.6728
    3MOL   C122  526   0.016   6.418   2.921  0.4943  0.5159 -0.2818
    3MOL   C123  527   0.069   6.545   2.856 -0.2508 -0.3449  0.9326
    3MOL  Cl124  528   0.051   6.695   2.941 -0.0546  0.0088  0.1653
    3MOL   C125  529   0.130   6.548   2.732 -0.1527  0.7042  0.8056
    3MOL   C126  530   0.162   6.428   2.643  0.1856  0.4782 -0.6840
    3MOL   H127  531   8.381   6.352   2.856 -1.0024  1.1748  0.3045
    3MOL   H128  532   8.376   6.449   3.006 -0.0429 -1.9969  0.2718
    3MOL   H129  533   0.168   6.644   2.703 -1.2175  1.0301  0.4685
    3MOL   H130  534   0.098   6.346   2.678 -0.1124 -0.0144 -2.3508
    3MOL   H131  535   0.154   6.443   2.536 -0.6212 -2.4119 -1.0727
    3MOL   C132  536   0.304   6.370   2.668  0.3858  0.9778  0.4129
    3MOL   C133  537   0.409   6.443   2.586  0.4103 -0.5627  0.6566
    3MOL  Cl134  538   0.432   6.371   2.434 -0.3602 -0.0343 -0.2848
    3MOL   C135  539   0.490   6.542   2.619 -0.8930  0.0430  0.2625
    3MOL   C136  540   0.508   6.606   2.753  0.3354 -0.0227  0.4341
    3MOL   H137  541   0.322   6.382   2.775  0.2908  3.4092  0.1752
    3MOL   H138  542   0.315   6.267   2.635  0.1898  0.6411  1.3877
    3MOL   H139  543   0.552   6.574   2.536  2.2606 -1.2559  2.0168
    3MOL   H140  544   0.493   6.713   2.757 -0.8491 -0.0602 -2.1405
    3MOL   H141  545   0.429   6.576   2.823 -0.3292  1.2019  0.2168
    3MOL   C142  546   0.642   6.566   2.816  0.9741  0.1222  0.0539
    3MOL   C143  547   0.665   6.429   2.880  0.7452  0.3085  0.3115
    3MOL  Cl144  548   0.633   6.444   3.053 -0.2507 -0.3099 -0.0615
    3MOL   C145  549   0.703   6.319   2.812 -0.5558 -0.8059 -0.1579
    3MOL   C146  550   0.737   6.191   2.875 -0.1193  0.7757  0.8138
    3MOL   H147  551   0.673   6.636   2.894  1.2847  0.5028 -0.4066
    3MOL   H148  552   0.718   6.576   2.739  2.4811  0.5540  1.5689
    3MOL   H149  553   0.722   6.319   2.705 -2.3535 -1.0482 -0.4973
    3MOL   H150  554   0.842   6.175   2.852 -0.8754 -1.2174 -1.4267
    3MOL   H151  555   0.730   6.201   2.984  2.7248 -0.4492  1.1600
    3MOL   C152  556   0.651   6.080   2.818 -1.0182  0.3626 -0.1598
    3MOL   C153  557   0.682   5.944   2.862 -0.3328  0.2738  0.3788
    3MOL  Cl154  558   0.553   5.882   2.957 -0.6225  0.0692  0.2297
    3MOL   C155  559   0.790   5.872   2.837 -0.0183  0.1444  0.2675
    3MOL   C156  560   0.816   5.732   2.876 -0.9209 -0.0872  0.1428
    3MOL   H157  561   0.547   6.112   2.821 -1.0927  0.0496  0.8431
    3MOL   H158  562   0.670   6.082   2.711  1.7924 -0.7966  0.2611
    3MOL   H159  563   0.863   5.922   2.776  1.4985 -1.0835  1.0481
    3MOL   H160  564   0.761   5.659   2.816  4.2760 -2.9772 -1.3810
    3MOL   H161  565   0.768   5.712   2.972  2.6405  1.1237  2.2677
    3MOL   C162  566   0.970   5.698   2.895  0.1838 -0.4422 -0.1506
    3MOL   C163  567   1.008   5.556   2.878  0.0285  0.1695 -0.6220
    3MOL  Cl164  568   1.058   5.491   3.034 -0.4426 -0.1227 -0.4605
    3MOL   C165  569   0.999   5.488   2.763 -0.1493  0.8197  0.4819
    3MOL   C166  570   1.019   5.337   2.751 -0.5113 -0.0049  0.3870
    3MOL   H167  571   1.030   5.741   2.815 -0.1210 -1.2507 -0.8336
    3MOL   H168  572   1.013   5.740   2.985  1.1505 -1.2736 -0.2180
    3MOL   H169  573   0.969   5.534   2.670 -0.5843  2.1941  1.2752
    3MOL   H170  574   0.975   5.278   2.832 -1.6417  1.0572  0.5663
    3MOL   H171  575   0.976   5.303   2.656  0.4649 -0.1087 -0.0223
    3MOL   C172  576   1.163   5.302   2.739 -0.8127  0.2101 -0.0092
    3MOL   C173  577   1.176   5.153   2.697 -0.2993 -0.8039 -0.7028
    3MOL  Cl174  578   1.338   5.102   2.716 -0.2466  0.2385  0.3044
    3MOL   C175  579   1.085   5.067   2.655  0.2393  0.1429 -0.2612
    3MOL   C176  580   1.104   4.913   2.629 -0.1586  0.2368 -0.1204
    3MOL   H177  581   1.228   5.309   2.827 -2.1331 -0.5816  1.0400
    3MOL   H178  582   1.212   5.358   2.659 -2.0534  1.5661  0.1467
    3MOL   H179  583   0.981   5.096   2.644 -0.5516 -1.1045  3.2035
    3MOL   H180  584   1.018   4.859   2.667 -1.3736  0.5356 -2.4082
    3MOL   H181  585   1.195   4.881   2.681 -0.9274 -1.2546  0.3400
    3MOL   C182  586   1.128   4.878   2.479 -0.1082 -0.1904 -0.2199
    3MOL   C183  587   1.137   4.725   2.457 -0.0908  0.3777 -0.2306
    3MOL  Cl184  588   1.295   4.671   2.500  0.0099 -0.4731  0.1067
    3MOL   C185  589   1.036   4.649   2.408  0.3470  0.0669 -0.8986
    3MOL   C186  590   1.036   4.496   2.399  0.6254  0.2036 -0.0293
    3MOL   H187  591   1.039   4.918   2.432  0.5832 -1.8735 -3.1165
    3MOL   H188  592   1.210   4.939   2.441  0.3751 -0.5173  0.2809
    3MOL   H189  593   0.948   4.706   2.382  0.9885  2.2592  1.5096
    3MOL   H190  594   1.044   4.471   2.294 -0.2883  0.2537 -0.1142
    3MOL   H191  595   1.129   4.457   2.439 -0.1992 -2.3867 -0.5862
    3MOL   C192  596   0.925   4.418   2.472 -0.2623  0.3019  0.3919
    3MOL   C193  597   0.948   4.267   2.464 -0.0264 -0.2478  0.3123
    3MOL  Cl194  598   1.071   4.213   2.575 -0.1462  0.1429  0.3322
    3MOL   C195  599   0.882   4.181   2.389 -0.2494  0.0755  0.0210
    3MOL   C196  600   0.768   4.206   2.288  0.2302  0.0270  0.7773
    3MOL   H197  601   0.834   4.444   2.419 -0.4242 -0.0175  0.5122
    3MOL   H198  602   0.921   4.437   2.580  1.6347 -1.9172  0.9008
    3MOL   H199  603   0.909   4.077   2.401  0.0506  0.0559 -0.7635
    3MOL   H200  604   0.669   4.188   2.330 -0.2451  1.2377  0.2022
    3MOL   H201  605   0.768   4.137   2.203 -1.9813  2.4635 -1.2865
    3MOL   H202  606   0.767   4.306   2.245  1.5612 -0.1332  0.3513
    4MOL     C1  607   5.458   2.692   4.500  0.8463 -0.3992 -0.0031
    4MOL     C2  608   5.397   2.671   4.641 -0.1724  0.4641  0.2993
    4MOL    Cl3  609   5.450   2.518   4.694  0.1473  0.3646 -0.5599
    4MOL     C4  610   5.318   2.751   4.718 -0.0514  0.1093  0.6488
    4MOL     C5  611   5.260   2.887   4.673 -0.2476 -0.3168  0.9690
    4MOL     H6  612   5.387   2.728   4.426  2.9961  1.1521 -1.3938
    4MOL     H7  613   5.475   2.589   4.467  0.2126 -0.9801  1.4396
    4MOL     H8  614   5.294   2.720   4.819 -0.7449 -3.1757 -0.4771
    4MOL     H9  615   5.258   2.886   4.564 -1.0548  0.5735  0.9674
    4MOL    H10  616   5.154   2.885   4.699  0.0821 -0.5848  2.3622
    4MOL    H11  617   5.546   2.757   4.496 -0.1519  0.9406 -0.5814
    4MOL    C12  618   5.337   2.999   4.752  0.4556 -0.2078 -0.4830
    4MOL    C13  619   5.283   3.130   4.712  0.1900  0.4767  0.3429
    4MOL   Cl14  620   5.164   3.187   4.828 -0.3244 -0.0934  0.1253
    4MOL    C15  621   5.312   3.204   4.603  0.3889 -0.0476  0.2457
    4MOL    C16  622   5.417   3.144   4.507  0.5573 -0.4540 -0.1908
    4MOL    H17  623   5.329   2.988   4.860  0.4243  0.9975 -0.3592
    4MOL    H18  624   5.445   2.985   4.749  0.2280 -2.8716  1.3104
    4MOL    H19  625   5.258   3.296   4.585  0.5029  0.0799  0.5534
    4MOL    H20  626   5.505   3.208   4.506  0.2170  0.1081  2.5526
    4MOL    H21  627   5.458   3.050   4.542  2.5515  0.2555 -0.5519
    4MOL    C22  628   5.353   3.137   4.367 -0.3332 -0.1675 -0.3389
    4MOL    C23  629   5.438   3.087   4.248  0.0152  0.1641 -0.3376
    4MOL   Cl24  630   5.449   2.918   4.251  0.1493  0.1298  0.1538
    4MOL    C25  631   5.508   3.167   4.167  0.2439  0.6931 -0.1611
    4MOL    C26  632   5.613   3.127   4.067 -0.1559  0.4139 -0.3960
    4MOL    H27  633   5.258   3.085   4.369 -0.0828 -0.6048  0.2252
    4MOL    H28  634   5.317   3.236   4.337  1.8475  1.6003  2.6752
    4MOL    H29  635   5.498   3.274   4.178  0.2923  0.6154  0.6447
    4MOL    H30  636   5.708   3.132   4.121 -0.7856  0.8456  0.6820
    4MOL    H31  637   5.603   3.024   4.032  0.2040  0.8188 -1.7351
    4MOL    C32  638   5.615   3.221   3.947 -0.2560 -0.4077 -0.1955
    4MOL    C33  639   5.476   3.233   3.884 -0.4914 -0.7013 -0.2088
    4MOL   Cl34  640   5.420   3.079   3.820  0.5486  0.0926 -0.2551
    4MOL    C35  641   5.404   3.345   3.871 -0.2858 -0.3124 -0.8689
    4MOL    C36  642   5.274   3.355   3.805 -0.3551  0.8427  0.8061
    4MOL    H37  643   5.658   3.318   3.973 -2.6918  0.6812 -0.0297
    4MOL    H38  644   5.681   3.181   3.870  2.2891  1.1193  1.1288
    4MOL    H39  645   5.445   3.439   3.903 -1.9718  1.4209 -3.6516
    4MOL    H40  646   5.294   3.411   3.714  0.2960  1.0127  1.0550
    4MOL    H41  647   5.234   3.259   3.771 -0.7606  1.1169  0.5020
    4MOL    C42  648   5.170   3.426   3.901 -0.5932  0.7021  0.4662
    4MOL    C43  649   5.161   3.569   3.853  0.1472 -0.2619 -0.1478
    4MOL   Cl44  650   5.261   3.672   3.956 -0.1687  0.2297  0.1153
    4MOL    C45  651   5.083   3.617   3.750  0.3415  0.5804 -0.3968
    4MOL    C46  652   4.991   3.531   3.661 -0.8951  0.1928 -0.0908
    4MOL    H47  653   5.069   3.387   3.890  0.7284 -3.2542  1.6337
    4MOL    H48  654   5.206   3.421   4.004  0.0440  0.8704  0.2522
    4MOL    H49  655   5.098   3.723   3.732  1.9218  0.3043 -0.7886
    4MOL    H50  656   5.010   3.425   3.677  0.2069  0.1710 -1.4722
    4MOL    H51  657   4.889   3.548   3.695 -1.0533 -0.8422 -0.0292
    4MOL    C52  658   5.021   3.550   3.509 -0.2834  0.0213  0.1920
    4MOL    C53  659   5.138   3.462   3.462 -0.3081  0.4786 -0.0665
    4MOL   Cl54  660   5.264   3.559   3.392  0.2190 -0.0617  0.1835
    4MOL    C55  661   5.142   3.326   3.461  0.7487 -0.8088 -0.0495
    4MOL    C56  662   5.247   3.242   3.395 -0.4712 -0.2995  0.1512
    4MOL    H57  663   4.936   3.507   3.456  1.5418 -1.3974 -1.6163
    4MOL    H58  664   5.029   3.656   3.482  0.7466 -0.5137 -1.6665
    4MOL    H59  665   5.061   3.272   3.507  0.6003 -0.7996 -0.2978
    4MOL    H60  666   5.323   3.300   3.342 -0.2393 -0.6773  0.0649
    4MOL    H61  667   5.306   3.197   3.476  1.7837 -0.2175 -1.4012
    4MOL    C62  668   5.190   3.139   3.295 -0.3535  0.1527  0.2811
    4MOL    C63  669   5.295   3.041   3.241  0.3013 -0.0795 -0.6795
    4MOL   Cl64  670   5.303   3.061   3.069  0.2471 -0.0950 -0.0470
    4MOL    C65  671   5.385   2.976   3.316  0.3873  0.5531 -0.3086
    4MOL    C66  672   5.498   2.904   3.251  0.6313  0.0521  0.5180
    4MOL    H67  673   5.120   3.083   3.357 -0.5104 -0.8393 -0.7748
    4MOL    H68  674   5.141   3.194   3.215 -0.8691 -0.1480  0.3860
    4MOL    H69  675   5.375   2.978   3.423 -1.6132  1.4553 -0.4993
    4MOL    H70  676   5.477   2.881   3.146 -2.2282  0.5080  0.9756
    4MOL    H71  677   5.509   2.808   3.301 -0.3030  1.0198  2.6133
    4MOL    C72  678   5.639   2.979   3.254 -0.0075 -0.2754 -0.4168
    4MOL    C73  679   5.754   2.906   3.189  0.6265 -0.4236  0.5046
    4MOL   Cl74  680   5.736   2.896   3.015 -0.5213 -0.0611 -0.1635
    4MOL    C75  681   5.860   2.846   3.245  0.1866 -0.2260 -0.5167
    4MOL    C76  682   5.977   2.774   3.180 -1.0154  0.1073 -0.7521
    4MOL    H77  683   5.667   3.016   3.353 -0.5429 -0.0682 -0.3385
    4MOL    H78  684   5.617   3.075   3.208 -2.5428 -1.6707 -2.2442
    4MOL    H79  685   5.869   2.841   3.352  0.6940  0.1713 -0.5385
    4MOL    H80  686   5.964   2.758   3.073 -0.0556 -0.2140 -0.8264
    4MOL    H81  687   5.988   2.672   3.218  1.3805  1.2519  1.8207
    4MOL    C82  688   6.109   2.855   3.206 -0.2519 -0.0125 -0.0953
    4MOL    C83  689   6.112   2.994   3.142 -0.2139  0.2065  0.1011
    4MOL   Cl84  690   6.141   3.118   3.265 -0.4537 -0.1269 -0.3967
    4MOL    C85  691   6.075   3.017   3.013  0.1345 -0.0462  0.7358
    4MOL    C86  692   6.072   3.145   2.941  0.4873 -0.5831  0.0623
    4MOL    H87  693   6.196   2.804   3.163  0.1136 -0.6592  1.3817
    4MOL    H88  694   6.139   2.854   3.311 -2.1322  1.9129  0.4831
    4MOL    H89  695   6.046   2.931   2.955 -3.1480  1.7807 -0.4708
    4MOL    H90  696   6.107   3.235   2.992  2.3390 -1.6867  0.7891
    4MOL    H91  697   6.143   3.116   2.863  1.5685  0.9013  0.4652
    4MOL    C92  698   5.940   3.165   2.879 -1.0507 -0.0932 -0.6926
    4MOL    C93  699   5.953   3.283   2.783 -0.6784 -0.5599 -0.1755
    4MOL   Cl94  700   5.936   3.434   2.855 -0.0900  0.0128  0.1753
    4MOL    C95  701   5.973   3.268   2.649 -0.3954 -0.6560 -0.3500
    4MOL    C96  702   5.987   3.133   2.583 -0.1032 -0.6755 -0.3350
    4MOL    H97  703   5.873   3.205   2.955  0.2093  0.2508  0.2638
    4MOL    H98  704   5.899   3.072   2.840 -2.3438 -1.0889  2.8258
    4MOL    H99  705   5.982   3.358   2.590  1.3696 -0.5226  0.0955
    4MOL   H100  706   6.007   3.049   2.649 -0.6181 -1.6383 -1.3856
    4MOL   H101  707   5.887   3.113   2.545  0.0630 -1.5754 -0.3248
    4MOL   C102  708   6.088   3.148   2.466 -0.7437  0.4992  0.7113
    4MOL   C103  709   6.094   3.033   2.369 -0.4574  0.7158 -0.7380
    4MOL  Cl104  710   6.087   3.081   2.204  0.0384 -0.0494 -0.1630
    4MOL   C105  711   6.101   2.907   2.404  0.3513 -0.1503  0.1921
    4MOL   C106  712   6.093   2.782   2.310 -0.4514 -0.5053  0.1289
    4MOL   H107  713   6.081   3.246   2.419  0.1017  0.5456  0.6828
    4MOL   H108  714   6.188   3.144   2.508 -0.2012  0.5989 -0.5414
    4MOL   H109  715   6.116   2.892   2.510 -0.1131  1.5716  0.5200
    4MOL   H110  716   6.098   2.810   2.205 -2.5263  3.5559  1.0367
    4MOL   H111  717   6.187   2.734   2.338  0.6300  0.7363 -1.3179
    4MOL   C112  718   5.968   2.699   2.323  0.3926  0.3106  0.4921
    4MOL   C113  719   5.977   2.576   2.233 -0.3292 -0.2324 -0.8759
    4MOL  Cl114  720   5.866   2.577   2.099 -0.0937 -0.4281  0.3576
    4MOL   C115  721   6.074   2.483   2.244  0.4528  0.0469  0.5457
    4MOL   C116  722   6.157   2.461   2.364 -0.0908 -0.5203 -0.1491
    4MOL   H117  723   5.943   2.669   2.424 -1.2460  1.6981  0.5175
    4MOL   H118  724   5.885   2.765   2.298  1.0724  1.5041  1.3457
    4MOL   H119  725   6.100   2.424   2.157  1.2365 -1.8956  2.0564
    4MOL   H120  726   6.126   2.535   2.439  1.4872 -2.5419  2.5617
    4MOL   H121  727   6.260   2.473   2.331 -0.3852 -0.0256 -0.8983
    4MOL   C122  728   6.136   2.318   2.420 -0.1606  1.3099  0.1887
    4MOL   C123  729   6.197   2.314   2.558  0.6237 -0.2272 -0.3818
    4MOL  Cl124  730   6.356   2.243   2.548 -0.5295 -0.5021 -0.2325
    4MOL   C125  731   6.144   2.356   2.676 -0.0969  0.0399  0.2941
    4MOL   C126  732   6.011   2.435   2.685  0.3127  1.2757  0.2065
    4MOL   H127  733   6.031   2.292   2.427  0.6008 -1.7658  0.9824
    4MOL   H128  734   6.174   2.248   2.346 -0.9888  0.6134  0.4206
    4MOL   H129  735   6.195   2.346   2.771 -1.4230  0.6549  1.0801
    4MOL   H130  736   5.971   2.475   2.591 -1.3222 -0.3060  0.2250
    4MOL   H131  737   5.935   2.362   2.710  0.8945  0.3177 -0.7740
    4MOL   C132  738   6.022   2.552   2.787 -0.5106  0.1704  0.2779
    4MOL   C133  739   5.903   2.639   2.799 -0.3220 -0.2399 -0.1445
    4MOL  Cl134  740   5.913   2.786   2.707  0.0811  0.1948 -0.1346
    4MOL   C135  741   5.797   2.612   2.874  0.9125  0.5588 -0.1319
    4MOL   C136  742   5.773   2.493   2.960 -0.6646 -0.5973 -0.0157
    4MOL   H137  743   6.034   2.510   2.887 -1.1767 -1.7635 -0.4264
    4MOL   H138  744   6.110   2.612   2.764 -0.0018 -0.7153 -0.1251
    4MOL   H139  745   5.716   2.684   2.876 -0.1661 -0.6444  1.5094
    4MOL   H140  746   5.840   2.414   2.926  0.2331  1.0784 -2.2210
    4MOL   H141  747   5.809   2.510   3.062 -1.0345  2.7831 -0.3932
    4MOL   C142  748   5.634   2.442   2.943 -0.1425 -0.4988  0.4425
    4MOL   C143  749   5.527   2.514   3.022 -0.1244  0.1755 -0.0118
    4MOL  Cl144  750   5.545   2.515   3.192  0.1797  0.0076  0.3242
    4MOL   C145  751   5.421   2.580   2.962  0.7210 -0.1578 -0.6617
    4MOL   C146  752   5.305   2.661   3.029 -0.6479 -0.3104 -0.1700
    4MOL   H147  753   5.632   2.338   2.975  0.5509 -0.6820 -0.0958
    4MOL   H148  754   5.616   2.444   2.836  2.0760 -2.5254 -0.0037
    4MOL   H149  755   5.397   2.568   2.858  1.4413 -1.6039 -0.6805
    4MOL   H150  756   5.328   2.698   3.128  1.3479  0.3710 -0.8584
    4MOL   H151  757   5.292   2.758   2.982 -3.1327  0.1922  1.4443
    4MOL   C152  758   5.176   2.602   3.023  0.4292  0.4189  0.2582
    4MOL   C153  759   5.079   2.685   3.094  0.2377  0.4258  0.4191
    4MOL  Cl154  760   5.023   2.810   2.990  0.1579 -0.1904  0.3305
    4MOL   C155  761   5.052   2.672   3.225  0.7757 -0.4725  0.2831
    4MOL   C156  762   4.961   2.754   3.314 -0.3958 -0.2508 -0.4787
    4MOL   H157  763   5.143   2.580   2.921 -0.1770 -0.0545  0.5555
    4MOL   H158  764   5.167   2.502   3.064 -0.8522  0.9283  1.2446
    4MOL   H159  765   5.093   2.586   3.276  1.3717  1.2478  2.7857
    4MOL   H160  766   4.883   2.688   3.352 -3.0606  1.3520 -2.8893
    4MOL   H161  767   4.914   2.833   3.255  1.2232  0.1512 -1.2371
    4MOL   C162  768   5.042   2.803   3.439  0.0286 -0.4204 -0.4830
    4MOL   C163  769   4.959   2.852   3.554  0.2358  0.0623  0.5093
    4MOL  Cl164  770   5.026   3.004   3.610  0.1807  0.1747  0.3421
    4MOL   C165  771   4.843   2.803   3.587 -0.2831  0.1770  0.6745
    4MOL   C166  772   4.750   2.856   3.683  0.2821  0.2442  0.8184
    4MOL   H167  773   5.102   2.724   3.483 -1.8450 -1.9395 -0.5798
    4MOL   H168  774   5.115   2.872   3.399 -0.4686 -0.6490 -1.8045
    4MOL   H169  775   4.802   2.714   3.540 -1.1640  0.8909  0.0750
    4MOL   H170  776   4.806   2.921   3.751  1.5342  0.6346 -0.5540
    4MOL   H171  777   4.686   2.920   3.622  1.0226  3.0590  2.8745
    4MOL   C172  778   4.671   2.748   3.764 -0.3493 -0.3251 -0.2100
    4MOL   C173  779   4.551   2.808   3.828  0.4068 -0.0789  0.2484
    4MOL  Cl174  780   4.403   2.737   3.779 -0.1082 -0.2435 -0.0344
    4MOL   C175  781   4.556   2.913   3.917  0.3715  0.3819 -0.4264
    4MOL   C176  782   4.430   2.978   3.975  0.0193  0.6399  0.6733
    4MOL   H177  783   4.732   2.722   3.850  1.4437 -0.1428 -1.4042
    4MOL   H178  784   4.639   2.657   3.712  0.3145 -0.8445  0.2779
    4MOL   H179  785   4.653   2.953   3.941  1.2515 -1.0832 -1.3880
    4MOL   H180  786   4.448   3.040   4.063  1.0542 -1.5542  2.0649
    4MOL   H181  787   4.366   2.894   4.003  0.2702 -0.0869 -0.8853
    4MOL   C182  788   4.365   3.061   3.867  0.0044  0.1956 -0.1294
    4MOL   C183  789   4.219   3.099   3.873 -0.3367 -0.0980 -0.0499
    4MOL  Cl184  790   4.182   3.180   3.725 -0.3321 -0.2294  0.0337
    4MOL   C185  791   4.137   3.083   3.979 -0.3474 -0.3152 -1.1422
    4MOL   C186  792   3.993   3.132   3.989  0.1372 -0.1996  0.5696
    4MOL   H187  793   4.420   3.155   3.856  0.0190  0.2911  0.7693
    4MOL   H188  794   4.392   3.008   3.775  2.2715  1.2966 -0.1328
    4MOL   H189  795   4.172   3.039   4.071  0.5083 -1.7629 -2.1332
    4MOL   H190  796   3.982   3.155   4.095 -0.2924  0.1226  0.4579
    4MOL   H191  797   3.979   3.226   3.935 -0.9841  0.6056  2.2145
    4MOL   C192  798   3.897   3.027   3.944  0.1831 -0.5937  0.3654
    4MOL   C193  799   3.750   3.064   3.970 -0.2733  0.2598  1.3994
    4MOL  Cl194  800   3.694   3.026   4.126 -0.2312 -0.0186  0.3110
    4MOL   C195  801   3.660   3.102   3.877  0.7542  0.0046 -0.5084
    4MOL   C196  802   3.689   3.115   3.730  0.4163  0.3030  0.1905
    4MOL   H197  803   3.933   2.941   3.999  3.1242  0.7377  0.6413
    4MOL   H198  804   3.916   3.008   3.838 -0.1797 -0.1152  0.2115
    4MOL   H199  805   3.563   3.131   3.912  0.1428 -0.4775 -1.7594
    4MOL   H200  806   3.599   3.077   3.680  0.4012 -1.5373  1.5720
    4MOL   H201  807   3.759   3.040   3.693 -1.6935 -1.8970  0.4881
    4MOL   H202  808   3.711   3.213   3.689  2.7040 -0.0694  0.4969
    5MOL     C1  809   4.318   5.768   3.795  0.3895  0.1914 -0.4790
    5MOL     C2  810   4.339   5.865   3.680 -0.0599 -0.9685  0.0576
    5MOL    Cl3  811   4.191   5.953   3.636  0.2769 -0.1393 -0.5532
    5MOL     C4  812   4.454   5.908   3.618 -0.8337 -0.4547  0.4586
    5MOL     C5  813   4.593   5.861   3.645  0.4532  0.4105  0.1224
    5MOL     H6  814   4.408   5.708   3.809  0.0688  0.2854  2.1337
    5MOL     H7  815   4.233   5.703   3.773 -0.1657  0.4054  1.0123
    5MOL     H8  816   4.433   5.986   3.546  0.5692  0.0717  0.5987
    5MOL     H9  817   4.655   5.950   3.651 -0.0037  0.7669 -0.3650
    5MOL    H10  818   4.593   5.800   3.735 -0.1196 -0.4821 -0.4725
    5MOL    H11  819   4.303   5.832   3.882 -1.9635  1.7296 -1.9395
    5MOL    C12  820   4.652   5.767   3.534 -1.2425 -0.7673 -0.6285
    5MOL    C13  821   4.665   5.820   3.394  0.2022  0.8694  0.1076
    5MOL   Cl14  822   4.531   5.769   3.300  0.4353 -0.2244 -0.1137
    5MOL    C15  823   4.755   5.901   3.344 -0.0011 -0.5107  0.1500
    5MOL    C16  824   4.879   5.954   3.414 -0.3675 -0.1760 -0.4112
    5MOL    H17  825   4.754   5.748   3.568 -1.6762 -0.5177  0.8589
    5MOL    H18  826   4.604   5.670   3.542 -4.9763  0.8671 -2.1314
    5MOL    H19  827   4.752   5.929   3.239  1.5374  0.4775  0.3543
    5MOL    H20  828   4.887   6.061   3.393 -0.9469 -0.1766 -0.6537
    5MOL    H21  829   4.877   5.943   3.522 -1.4170  1.5797 -0.2337
    5MOL    C22  830   5.013   5.886   3.362 -0.1815  0.2596  0.9682
    5MOL    C23  831   5.130   5.972   3.396 -0.3822  0.0969  0.0377
    5MOL   Cl24  832   5.154   6.108   3.286 -0.1672  0.5139 -0.2262
    5MOL    C25  833   5.203   5.954   3.511  0.2847  0.4040 -0.4878
    5MOL    C26  834   5.324   6.035   3.549  0.6271  0.0145  0.0247
    5MOL    H27  835   5.024   5.795   3.422  0.1674 -0.1885  0.2240
    5MOL    H28  836   5.023   5.862   3.256  3.0657  0.0927  1.2723
    5MOL    H29  837   5.174   5.880   3.584  2.5804 -0.9193 -0.8737
    5MOL    H30  838   5.333   6.121   3.484 -2.5948  0.3495 -0.0332
    5MOL    H31  839   5.313   6.073   3.650  2.3142 -2.1951  1.0891
    5MOL    C32  840   5.453   5.957   3.524 -0.4813 -0.3175  0.3043
    5MOL    C33  841   5.585   6.023   3.584  0.1797 -0.2170 -0.5250
    5MOL   Cl34  842   5.726   5.920   3.556 -0.1770  0.1216  0.1357
    5MOL    C35  843   5.591   6.148   3.636  0.1250 -0.1524 -0.2869
    5MOL    C36  844   5.719   6.208   3.695  0.0588 -0.2409  0.2734
    5MOL    H37  845   5.451   5.852   3.555 -3.8339 -0.7847 -1.1614
    5MOL    H38  846   5.460   5.954   3.416  1.2772  0.6991  0.3882
    5MOL    H39  847   5.498   6.202   3.645  0.6467  0.4098  2.3508
    5MOL    H40  848   5.683   6.270   3.777  3.3947  1.1996  0.7578
    5MOL    H41  849   5.779   6.126   3.736 -0.3145 -0.1880  0.9323
    5MOL    C42  850   5.786   6.315   3.595 -0.1047 -0.4041 -0.1428
    5MOL    C43  851   5.925   6.361   3.638 -0.0254  0.1141 -0.3331
    5MOL   Cl44  852   6.047   6.250   3.590  0.1028  0.1602 -0.3028
    5MOL    C45  853   5.956   6.469   3.712  0.9131 -0.6991 -0.0260
    5MOL    C46  854   5.864   6.565   3.771 -0.3494 -0.3330  0.1108
    5MOL    H47  855   5.801   6.260   3.502 -0.0520  0.1326 -0.4576
    5MOL    H48  856   5.725   6.403   3.574  0.5306 -0.1922 -1.1331
    5MOL    H49  857   6.061   6.485   3.735  0.5698  1.3761  0.1690
    5MOL    H50  858   5.779   6.583   3.705 -1.0759 -1.0106  0.8453
    5MOL    H51  859   5.836   6.511   3.861  0.1914 -0.0546  0.4502
    5MOL    C52  860   5.941   6.697   3.808  0.3119  0.2680  0.1422
    5MOL    C53  861   5.839   6.779   3.875  0.5556 -0.1819 -0.2292
    5MOL   Cl54  862   5.874   6.777   4.047  0.0386  0.0725  0.1344
    5MOL    C55  863   5.740   6.848   3.812  0.6885  0.4068 -0.0029
    5MOL    C56  864   5.632   6.926   3.889 -0.0247 -0.3446 -0.3116
    5MOL    H57  865   6.023   6.676   3.877 -0.7139 -0.4951  1.1609
    5MOL    H58  866   5.979   6.751   3.721 -0.6074  2.5059  1.1039
    5MOL    H59  867   5.722   6.844   3.706  2.3481 -0.9971 -0.2623
    5MOL    H60  868   5.671   6.951   3.988  1.0334  0.1626 -0.8526
    5MOL    H61  869   5.615   7.020   3.838 -0.6820 -0.2028  0.1563
    5MOL    C62  870   5.506   6.848   3.905 -0.2287  0.0048  0.5778
    5MOL    C63  871   5.404   6.924   3.992  0.2770  0.5880  0.3013
    5MOL   Cl64  872   5.267   6.967   3.896 -0.2173 -0.4524  0.0776
    5MOL    C65  873   5.402   6.928   4.127  0.3131  0.0302  0.0958
    5MOL    C66  874   5.278   6.967   4.205  0.1498 -0.4238 -0.7017
    5MOL    H67  875   5.461   6.828   3.808 -0.0318 -0.3853  0.5685
    5MOL    H68  876   5.528   6.752   3.952  0.9165  0.2365  0.5445
    5MOL    H69  877   5.486   6.896   4.187  0.4254  2.0223  1.0635
    5MOL    H70  878   5.246   7.063   4.166 -3.6199 -1.3730 -0.1091
    5MOL    H71  879   5.318   6.996   4.302 -0.3699 -1.0897 -0.2814
    5MOL    C72  880   5.173   6.859   4.211  0.2078 -0.2548  1.2251
    5MOL    C73  881   5.038   6.900   4.270 -0.0421 -0.0290  0.0763
    5MOL   Cl74  882   5.022   6.837   4.433  0.0843  0.1476 -0.3891
    5MOL    C75  883   4.949   6.989   4.220 -0.6212 -0.4265  0.3642
    5MOL    C76  884   4.827   7.034   4.294  0.5919 -0.8903  0.1954
    5MOL    H77  885   5.214   6.778   4.271  0.3997  1.0331  2.8586
    5MOL    H78  886   5.152   6.834   4.107  0.9760 -2.2497  1.5281
    5MOL    H79  887   4.964   7.038   4.125  2.2297 -0.6786  0.6314
    5MOL    H80  888   4.815   6.986   4.391 -2.2504 -1.9974 -0.6372
    5MOL    H81  889   4.740   6.993   4.243  0.8890  0.5388 -1.4945
    5MOL    C82  890   4.814   7.189   4.304 -0.0362  0.7559  0.4936
    5MOL    C83  891   4.680   7.241   4.335  0.6934  0.7219 -0.4798
    5MOL   Cl84  892   4.639   7.221   4.506 -0.3285  0.1650  0.0687
    5MOL    C85  893   4.609   7.321   4.247 -0.2018  0.6953 -0.3230
    5MOL    C86  894   4.487   7.411   4.275 -0.1405 -0.0281 -1.9819
    5MOL    H87  895   4.844   7.220   4.204  0.4116 -1.0202  0.0715
    5MOL    H88  896   4.893   7.223   4.370  0.6500 -1.3936  0.7977
    5MOL    H89  897   4.651   7.332   4.148 -0.4666  1.1103 -0.3878
    5MOL    H90  898   4.512   7.494   4.341 -1.9931 -0.5455 -0.5817
    5MOL    H91  899   4.449   7.457   4.184 -3.2467  1.2289 -0.1535
    5MOL    C92  900   4.369   7.328   4.326  0.2662 -0.6072  0.2652
    5MOL    C93  901   4.242   7.410   4.336  0.2367 -0.7240 -0.0165
    5MOL   Cl94  902   4.151   7.416   4.190  0.3734  0.1060  0.1924
    5MOL    C95  903   4.190   7.470   4.451 -0.2029 -0.7464  0.3253
    5MOL    C96  904   4.261   7.469   4.582  1.1781 -0.3074  0.3009
    5MOL    H97  905   4.387   7.276   4.420 -0.3622 -2.1284 -0.4368
    5MOL    H98  906   4.356   7.245   4.258 -0.9469 -1.0732  1.0373
    5MOL    H99  907   4.095   7.522   4.448 -0.0273 -0.3965  0.7726
    5MOL   H100  908   4.370   7.460   4.575  0.8607 -2.1829 -2.9924
    5MOL   H101  909   4.235   7.565   4.626  2.1669  0.3160 -0.4501
    5MOL   C102  910   4.212   7.365   4.683  0.1588 -0.2738  0.9448
    5MOL   C103  911   4.289   7.375   4.816 -0.0104  0.3505  0.2916
    5MOL  Cl104  912   4.238   7.518   4.910  0.2017 -0.1923 -0.0153
    5MOL   C105  913   4.381   7.288   4.850  0.2171  0.2384  0.6730
    5MOL   C106  914   4.457   7.291   4.975  0.4412  0.0863  0.2821
    5MOL   H107  915   4.110   7.393   4.708 -0.4135  1.0141 -2.5675
    5MOL   H108  916   4.217   7.262   4.647 -0.1347  1.2992 -4.0257
    5MOL   H109  917   4.400   7.209   4.778 -2.1347 -0.6069  0.9434
    5MOL   H110  918   4.436   7.379   5.035  1.0443  0.3057  0.1730
    5MOL   H111  919   4.444   7.192   5.019  2.6452 -0.3167  0.0654
    5MOL   C112  920   4.601   7.294   4.929 -0.1308  0.6807 -0.0857
    5MOL   C113  921   4.712   7.273   5.038  0.1432 -0.2648  0.1032
    5MOL  Cl114  922   4.751   7.099   5.050 -0.0493  0.3492  0.1604
    5MOL   C115  923   4.784   7.365   5.110  0.0995 -0.1754  0.1224
    5MOL   C116  924   4.749   7.511   5.120 -0.0800 -0.2144 -0.3206
    5MOL   H117  925   4.609   7.207   4.863 -1.0486  0.4738  0.0596
    5MOL   H118  926   4.613   7.381   4.865 -0.2264  0.7293 -0.0389
    5MOL   H119  927   4.862   7.321   5.170  1.4710  0.7109 -0.9699
    5MOL   H120  928   4.704   7.533   5.217 -0.5167 -2.6478  0.0549
    5MOL   H121  929   4.678   7.539   5.042  1.3954 -0.1794 -1.6652
    5MOL   C122  930   4.879   7.598   5.107  0.3991  0.5688 -0.1726
    5MOL   C123  931   4.864   7.754   5.094 -0.0107 -0.1968  0.0858
    5MOL  Cl124  932   4.762   7.799   4.961 -0.0642 -0.0312  0.0507
    5MOL   C125  933   4.926   7.851   5.161 -0.3906 -0.2494 -0.0540
    5MOL   C126  934   5.017   7.838   5.286  0.3828  0.0576  0.0460
    5MOL   H127  935   4.945   7.579   5.191  0.8103  1.3043 -0.3282
    5MOL   H128  936   4.939   7.547   5.031  2.0255  0.3686  1.2209
    5MOL   H129  937   4.922   7.953   5.126 -1.5881 -0.3503 -0.2164
    5MOL   H130  938   4.967   7.879   5.374  0.4290  0.9826 -0.3488
    5MOL   H131  939   5.037   7.735   5.314 -0.5021  0.2069  1.2231
    5MOL   C132  940   5.158   7.902   5.268  0.1231  0.6031  0.1471
    5MOL   C133  941   5.238   7.867   5.394  0.5028  0.0794 -0.0884
    5MOL  Cl134  942   5.229   7.995   5.511 -0.3342  0.0995  0.1235
    5MOL   C135  943   5.323   7.762   5.406 -0.7564 -0.6648  0.3282
    5MOL   C136  944   5.334   7.656   5.303  0.0846 -0.0401 -0.0261
    5MOL   H137  945   5.202   7.872   5.172 -1.8031  0.1936 -0.6281
    5MOL   H138  946   5.149   8.011   5.268  1.7108  0.7470  1.0188
    5MOL   H139  947   5.384   7.764   5.494 -0.7559 -1.3294  0.3379
    5MOL   H140  948   5.247   7.659   5.238 -0.1883 -1.1475  0.2788
    5MOL   H141  949   5.422   7.667   5.240 -1.2100  1.4956 -1.5993
    5MOL   C142  950   5.329   7.520   5.366 -0.1583 -0.1555  0.1271
    5MOL   C143  951   5.327   7.408   5.261  0.4469 -0.3569  0.2623
    5MOL  Cl144  952   5.162   7.348   5.236  0.0357 -0.3438 -0.0266
    5MOL   C145  953   5.437   7.350   5.212  0.0339  0.1685  0.4189
    5MOL   C146  954   5.435   7.216   5.129 -0.7017 -0.4591 -0.3506
    5MOL   H147  955   5.246   7.516   5.437 -0.4286 -0.1249 -0.1847
    5MOL   H148  956   5.422   7.508   5.421  0.4074  0.1085 -0.7691
    5MOL   H149  957   5.533   7.398   5.227 -0.1993  0.2119  1.8178
    5MOL   H150  958   5.481   7.138   5.190 -2.0840 -0.4092  0.7863
    5MOL   H151  959   5.336   7.172   5.116 -0.3727 -0.6852 -2.2325
    5MOL   C152  960   5.484   7.229   4.987  0.1529  0.0655  0.8013
    5MOL   C153  961   5.634   7.205   4.967  0.2390 -0.8353 -0.6045
    5MOL  Cl154  962   5.715   7.346   4.912  0.4095  0.3503 -0.6189
    5MOL   C155  963   5.699   7.090   4.991 -0.1845  0.1385 -0.0206
    5MOL   C156  964   5.842   7.062   4.969 -0.4930 -0.7304  0.0966
    5MOL   H157  965   5.438   7.156   4.920 -1.0353 -0.0259  1.7128
    5MOL   H158  966   5.469   7.326   4.941 -1.2399 -0.9182 -0.9027
    5MOL   H159  967   5.659   6.998   5.031 -0.9096 -0.0927 -1.2454
    5MOL   H160  968   5.888   7.035   5.064  0.3522  1.7567  0.4453
    5MOL   H161  969   5.894   7.155   4.947  1.0192 -1.8132 -0.9857
    5MOL   C162  970   5.870   6.957   4.855 -0.0431 -0.5643 -0.1823
    5MOL   C163  971   6.019   6.921   4.848 -1.0689  0.0714  0.4660
    5MOL  Cl164  972   6.075   6.809   4.972  0.2512  0.1865  0.0544
    5MOL   C165  973   6.106   6.952   4.747  0.0687 -0.3733 -0.6809
    5MOL   C166  974   6.252   6.921   4.721  0.4048 -0.1900  0.2732
    5MOL   H167  975   5.799   6.876   4.869  0.1554 -0.6138  0.5131
    5MOL   H168  976   5.851   7.009   4.760  2.6035  2.6898  0.9748
    5MOL   H169  977   6.072   7.025   4.675  0.4044  2.4328  1.9307
    5MOL   H170  978   6.290   6.870   4.810  2.7777  0.0046 -0.5965
    5MOL   H171  979   6.262   6.841   4.648  1.2524 -0.0397  0.2225
    5MOL   C172  980   6.353   7.028   4.688 -0.8742  0.2029  0.0523
    5MOL   C173  981   6.386   7.052   4.543  1.0609 -0.1730  0.5316
    5MOL  Cl174  982   6.294   7.182   4.481 -0.4047 -0.0490  0.0517
    5MOL   C175  983   6.474   6.986   4.466 -0.4996 -0.7219  0.2503
    5MOL   C176  984   6.501   7.007   4.321  0.4902  0.5413 -0.0389
    5MOL   H177  985   6.448   6.992   4.728 -1.0855  1.7171  2.0343
    5MOL   H178  986   6.333   7.125   4.734  2.1748  0.2597  1.3611
    5MOL   H179  987   6.535   6.908   4.508 -0.5268 -0.6629  0.3980
    5MOL   H180  988   6.607   7.014   4.295  0.5417 -0.4611 -0.1208
    5MOL   H181  989   6.468   7.107   4.292  2.6198  1.2066 -0.3161
    5MOL   C182  990   6.410   6.909   4.234  0.2809 -0.0312  0.4132
    5MOL   C183  991   6.429   6.934   4.083 -0.6568  0.1633  0.3036
    5MOL  Cl184  992   6.288   6.905   4.001 -0.4159 -0.3355 -0.0282
    5MOL   C185  993   6.543   6.977   4.019 -0.5815 -0.3053  0.1837
    5MOL   C186  994   6.563   7.008   3.871  0.2108 -0.0904 -0.0609
    5MOL   H187  995   6.428   6.804   4.257 -0.0129 -0.6537 -2.0405
    5MOL   H188  996   6.308   6.930   4.266 -1.1249 -0.5807 -3.4745
    5MOL   H189  997   6.635   6.985   4.076  0.3148 -0.7789 -1.1692
    5MOL   H190  998   6.622   6.926   3.830  0.1257 -0.8126  1.2258
    5MOL   H191  999   6.465   7.006   3.822 -0.0475 -0.1955  0.4619
    5MOL   C192 1000   6.642   7.143   3.851  0.2442 -0.0584 -0.0598
    5MOL   C193 1001   6.647   7.197   3.707  0.2634  0.7894 -0.4535
    5MOL  Cl194 1002   6.511   7.302   3.685  0.3573 -0.1482 -0.0550
    5MOL   C195 1003   6.744   7.180   3.616  0.2891 -0.1108 -0.2008
    5MOL   C196 1004   6.868   7.097   3.626 -0.2592  0.0066  0.3958
    5MOL   H197 1005   6.748   7.126   3.875  0.5823  2.1311  0.0490
    5MOL   H198 1006   6.610   7.222   3.919  4.4862  0.1680  1.8543
    5MOL   H199 1007   6.734   7.228   3.520 -2.3776  1.0403  0.5991
    5MOL   H200 1008   6.872   7.034   3.538  0.2803 -0.8473  1.0197
    5MOL   H201 1009   6.860   7.031   3.713 -1.3511 -2.1890 -1.3336
    5MOL   H202 1010   6.963   7.146   3.645  0.4752 -0.3873 -2.1572
    6MOL     C1 1011   2.595   1.358   4.812 -0.4657  0.1630  0.2953
    6MOL     C2 1012   2.533   1.299   4.690  0.6676  0.4894 -0.6382
    6MOL    Cl3 1013   2.574   1.392   4.547  0.0121  0.3768  0.1480
    6MOL     C4 1014   2.449   1.193   4.677 -0.0753 -0.8888 -0.7131
    6MOL     C5 1015   2.419   1.093   4.800  0.2124 -0.3331 -0.2362
    6MOL     H6 1016   2.678   1.297   4.848  0.2094  1.8025  1.5466
    6MOL     H7 1017   2.520   1.367   4.891  1.1522  1.2398  1.7602
    6MOL     H8 1018   2.411   1.165   4.580  0.7564 -1.9465 -0.7474
    6MOL     H9 1019   2.499   1.020   4.787  0.6624  0.0546  0.3591
    6MOL    H10 1020   2.426   1.148   4.894 -2.2952 -1.8755  0.8989
    6MOL    H11 1021   2.630   1.460   4.801  1.7440 -0.5179  0.7184
    6MOL    C12 1022   2.271   1.042   4.804  0.4948  0.1829  0.3263
    6MOL    C13 1023   2.238   0.970   4.933 -0.2082  0.2577 -0.0120
    6MOL   Cl14 1024   2.357   0.852   4.972  0.3689  0.1286 -0.0195
    6MOL    C15 1025   2.139   0.996   5.014  0.1483  0.3088 -0.3956
    6MOL    C16 1026   2.035   1.103   4.985 -0.3982  0.3912 -0.0003
    6MOL    H17 1027   2.208   1.131   4.815  1.9587  1.5005 -1.6390
    6MOL    H18 1028   2.236   0.991   4.714  1.7829 -0.1717  0.0251
    6MOL    H19 1029   2.134   0.937   5.104 -3.8115 -0.9316 -1.3519
    6MOL    H20 1030   2.068   1.205   4.971 -0.9584  0.4991 -0.5525
    6MOL    H21 1031   1.972   1.080   4.899 -0.8414  1.2711  0.0850
    6MOL    C22 1032   1.944   1.107   5.109  0.2504 -0.2494 -0.4936
    6MOL    C23 1033   1.825   1.199   5.099  0.2289 -0.6332 -0.2982
    6MOL   Cl24 1034   1.859   1.366   5.109 -0.2016  0.5630  0.1473
    6MOL    C25 1035   1.698   1.155   5.084 -0.0820 -0.1802  0.4849
    6MOL    C26 1036   1.574   1.241   5.059  0.4599  0.1463  0.0362
    6MOL    H27 1037   1.901   1.008   5.123 -0.0543  0.0828  0.9248
    6MOL    H28 1038   2.000   1.132   5.199 -0.7926  2.0360 -0.4410
    6MOL    H29 1039   1.673   1.050   5.077 -0.2042 -0.1042 -0.2701
    6MOL    H30 1040   1.597   1.342   5.024  1.1807  0.5573  1.6409
    6MOL    H31 1041   1.520   1.206   4.971  0.3071  0.5594 -0.0364
    6MOL    C32 1042   1.470   1.223   5.168  0.2337  0.0410  0.5314
    6MOL    C33 1043   1.341   1.302   5.132 -0.0009  0.0917  0.2636
    6MOL   Cl34 1044   1.209   1.199   5.063  0.1840 -0.0372  0.2024
    6MOL    C35 1045   1.334   1.438   5.133 -0.0135  0.1966 -0.2323
    6MOL    C36 1046   1.207   1.520   5.098 -0.0989 -0.0719 -0.2554
    6MOL    H37 1047   1.444   1.117   5.167  0.9399 -0.1823  3.0963
    6MOL    H38 1048   1.509   1.234   5.269 -1.4435  0.7138  1.1049
    6MOL    H39 1049   1.423   1.496   5.152  0.1745 -0.2662  0.3219
    6MOL    H40 1050   1.211   1.574   5.004  1.0127  2.8265  1.3950
    6MOL    H41 1051   1.127   1.447   5.085  1.3626 -1.4765 -1.6902
    6MOL    C42 1052   1.179   1.624   5.205 -0.1814  0.0239  0.0562
    6MOL    C43 1053   1.059   1.714   5.172 -0.0558 -0.0411 -0.0130
    6MOL   Cl44 1054   1.119   1.871   5.138  0.1934 -0.1992  0.0522
    6MOL    C45 1055   0.932   1.684   5.183  0.5020  0.4430 -0.9516
    6MOL    C46 1056   0.874   1.546   5.208 -0.3173 -0.8055 -0.2558
    6MOL    H47 1057   1.165   1.596   5.310  1.6610  0.4062  0.4130
    6MOL    H48 1058   1.272   1.679   5.206 -1.0528  1.5591 -1.5652
    6MOL    H49 1059   0.858   1.761   5.170 -1.2268 -0.9482  0.2870
    6MOL    H50 1060   0.955   1.473   5.216 -0.5528 -0.9788  0.5749
    6MOL    H51 1061   0.814   1.539   5.298  0.7338 -1.1681  0.4180
    6MOL    C52 1062   0.785   1.493   5.093 -0.0129  0.3797 -0.4849
    6MOL    C53 1063   0.740   1.354   5.118  0.2504  0.0681 -0.0633
    6MOL   Cl54 1064   0.589   1.340   5.185  0.1794 -0.1367 -0.0891
    6MOL    C55 1065   0.819   1.255   5.075 -0.3096  0.7312  0.2440
    6MOL    C56 1066   0.794   1.104   5.071 -0.7422 -0.4259  0.6755
    6MOL    H57 1067   0.698   1.558   5.082 -0.9564 -1.0060 -1.2523
    6MOL    H58 1068   0.838   1.503   4.999  1.6611 -0.6135  0.3310
    6MOL    H59 1069   0.917   1.280   5.039  0.3172 -0.5466  1.0367
    6MOL    H60 1070   0.687   1.093   5.089 -1.0374 -1.2705 -1.4294
    6MOL    H61 1071   0.810   1.069   4.969  0.5086 -0.3816  0.8576
    6MOL    C62 1072   0.883   1.029   5.175  0.2362  0.2375 -0.2125
    6MOL    C63 1073   0.878   0.875   5.150  0.4932  0.1714  0.2850
    6MOL   Cl64 1074   1.005   0.826   5.050 -0.3732  0.2318 -0.2169
    6MOL    C65 1075   0.792   0.790   5.209 -0.7361  0.1210 -0.0132
    6MOL    C66 1076   0.798   0.638   5.195  0.6895  0.3202  0.7530
    6MOL    H67 1077   0.987   1.061   5.184  0.7106 -1.2773  0.0034
    6MOL    H68 1078   0.856   1.060   5.276  1.5711  1.1133 -0.1156
    6MOL    H69 1079   0.713   0.831   5.272  0.2954 -1.0359  2.0977
    6MOL    H70 1080   0.820   0.596   5.293 -2.9149 -2.0302  0.6472
    6MOL    H71 1081   0.881   0.602   5.136  0.7992 -1.3063  1.8764
    6MOL    C72 1082   0.664   0.582   5.148  0.6272  0.0272  0.3862
    6MOL    C73 1083   0.624   0.616   5.004  0.5304 -0.5444 -0.5918
    6MOL   Cl74 1084   0.462   0.577   4.983  0.1165 -0.0582 -0.1035
    6MOL    C75 1085   0.706   0.660   4.905  0.0015 -0.1222 -0.2428
    6MOL    C76 1086   0.671   0.703   4.763 -0.2986 -0.9529  0.3718
    6MOL    H77 1087   0.589   0.630   5.212  0.8174 -0.8206  1.2471
    6MOL    H78 1088   0.657   0.473   5.151 -0.0832  0.0016 -1.4266
    6MOL    H79 1089   0.811   0.675   4.924 -0.5805 -0.0870  3.2246
    6MOL    H80 1090   0.566   0.695   4.736 -0.7934  2.3243  1.1187
    6MOL    H81 1091   0.716   0.628   4.698 -1.1489  0.6206 -2.0609
    6MOL    C82 1092   0.718   0.850   4.735 -0.4687  0.6488 -0.7941
    6MOL    C83 1093   0.676   0.895   4.595 -0.5469  0.4838  0.4352
    6MOL   Cl84 1094   0.760   0.808   4.470 -0.3711  0.0311 -0.1416
    6MOL    C85 1095   0.593   1.000   4.568 -1.0558  0.2981 -0.0076
    6MOL    C86 1096   0.559   1.041   4.429 -0.3652 -0.5006  0.3391
    6MOL    H87 1097   0.823   0.864   4.761 -0.4601  4.0435 -2.3910
    6MOL    H88 1098   0.658   0.918   4.796 -1.5792 -2.5795  1.9191
    6MOL    H89 1099   0.539   1.058   4.641 -0.9505 -0.4318  0.6676
    6MOL    H90 1100   0.576   1.147   4.411 -3.2638 -0.4368 -2.6089
    6MOL    H91 1101   0.630   1.001   4.357  0.0183 -0.4536  0.6910
    6MOL    C92 1102   0.409   1.000   4.396  0.0263 -0.0695 -0.3020
    6MOL    C93 1103   0.296   1.047   4.481 -0.2519 -0.2780 -0.2365
    6MOL   Cl94 1104   0.283   1.220   4.495  0.4519  0.1445  0.2795
    6MOL    C95 1105   0.206   0.969   4.543  0.1321  0.1627 -0.9273
    6MOL    C96 1106   0.194   0.817   4.539 -0.3891 -0.8664 -0.0687
    6MOL    H97 1107   0.417   0.891   4.393 -1.6597 -0.2316  0.8187
    6MOL    H98 1108   0.392   1.036   4.295  0.0527  2.1852  0.4834
    6MOL    H99 1109   0.127   1.020   4.595 -0.0953  2.0586 -3.0168
    6MOL   H100 1110   0.281   0.775   4.488 -0.3992 -1.4728  0.4097
    6MOL   H101 1111   0.209   0.779   4.640  1.5998 -1.2530 -0.4956
    6MOL   C102 1112   0.082   0.761   4.448 -0.2938  0.0530 -0.0743
    6MOL   C103 1113   0.048   0.619   4.489  0.0599 -0.8337  0.5857
    6MOL  Cl104 1114   8.337   0.628   4.599  0.0037 -0.0266 -0.0139
    6MOL   C105 1115   0.092   0.509   4.427 -0.1855 -0.3610 -0.3019
    6MOL   C106 1116   0.049   0.368   4.459  0.6113 -0.7988 -0.3308
    6MOL   H107 1117   8.409   0.816   4.447  0.1555  0.9342  2.2796
    6MOL   H108 1118   0.121   0.770   4.346 -4.0675 -0.1593 -1.5955
    6MOL   H109 1119   0.164   0.521   4.348 -0.6340  1.3140 -0.4767
    6MOL   H110 1120   0.136   0.305   4.478  0.5074 -1.0276 -0.6222
    6MOL   H111 1121   8.416   0.370   4.554  1.2050  1.0449 -0.0003
    6MOL   C112 1122   8.370   0.318   4.345 -0.2071 -0.4011 -0.5122
    6MOL   C113 1123   8.321   0.175   4.362 -0.6609  0.4011 -0.3898
    6MOL  Cl114 1124   8.192   0.155   4.476  0.1598  0.1785  0.1560
    6MOL   C115 1125   8.370   0.073   4.289  0.5552 -0.7579  0.2357
    6MOL   C116 1126   0.061   0.074   4.184  0.4221  0.1944 -0.0558
    6MOL   H117 1127   8.275   0.371   4.337 -0.3259 -0.4889  0.2828
    6MOL   H118 1128   8.419   0.335   4.249  1.0781  0.0476  0.2071
    6MOL   H119 1129   8.320   8.399   4.300 -1.8469  0.3082 -1.1740
    6MOL   H120 1130   0.041   0.161   4.122 -0.2593 -0.0337 -0.1643
    6MOL   H121 1131   0.042   8.416   4.112  2.0272  0.0521 -0.3402
    6MOL   C122 1132   0.199   0.072   4.252  0.2146  0.7512  0.1687
    6MOL   C123 1133   0.318   0.056   4.155  0.0628 -0.2231 -0.1131
    6MOL  Cl124 1134   0.310   8.318   4.086  0.0765  0.0243  0.6926
    6MOL   C125 1135   0.422   0.132   4.132  0.4655 -0.0910 -0.0201
    6MOL   C126 1136   0.443   0.270   4.188  0.0078  0.0693  0.2216
    6MOL   H127 1137   0.207   0.169   4.300 -0.7490  2.4486 -2.9283
    6MOL   H128 1138   0.202   8.406   4.318  0.1572 -1.0622 -2.1173
    6MOL   H129 1139   0.503   0.090   4.074  0.2829  2.4988 -2.2429
    6MOL   H130 1140   0.511   0.320   4.118 -0.9159  2.5280  1.0058
    6MOL   H131 1141   0.354   0.333   4.197  1.6417  2.3696  0.8631
    6MOL   C132 1142   0.509   0.259   4.320 -0.0037 -0.2259 -0.0320
    6MOL   C133 1143   0.583   0.387   4.359 -0.2343  0.3633 -0.8905
    6MOL  Cl134 1144   0.493   0.486   4.467  0.4298  0.0727 -0.1527
    6MOL   C135 1145   0.708   0.427   4.322 -0.0394 -0.4901  0.6963
    6MOL   C136 1146   0.805   0.356   4.227  0.0629 -0.3119 -0.4178
    6MOL   H137 1147   0.432   0.240   4.394  1.0474 -0.6942  0.9508
    6MOL   H138 1148   0.576   0.173   4.315 -1.5826 -1.6160  2.0448
    6MOL   H139 1149   0.741   0.519   4.367  0.3677 -0.2429 -0.0940
    6MOL   H140 1150   0.899   0.339   4.279  1.6332  2.6253 -2.1947
    6MOL   H141 1151   0.760   0.256   4.228 -2.5943  0.7757 -3.1171
    6MOL   C142 1152   0.815   0.409   4.083  0.6797 -0.1958 -0.1293
    6MOL   C143 1153   0.893   0.531   4.062 -0.1853 -0.2743 -0.5196
    6MOL  Cl144 1154   0.869   0.588   3.896  0.0339  0.1297 -0.0858
    6MOL   C145 1155   0.969   0.593   4.151 -0.0340 -0.0455 -0.4801
    6MOL   C146 1156   1.037   0.727   4.141  0.4808 -0.0894  0.2118
    6MOL   H147 1157   0.714   0.401   4.043 -0.3390 -0.6487  2.4107
    6MOL   H148 1158   0.878   0.334   4.036 -1.5418 -2.3333  0.2027
    6MOL   H149 1159   0.969   0.554   4.252 -0.8678 -0.1472 -0.5173
    6MOL   H150 1160   1.031   0.761   4.037  1.2562  0.3507  0.3083
    6MOL   H151 1161   0.981   0.802   4.196 -0.5069 -0.8414  0.2517
    6MOL   C152 1162   1.186   0.720   4.173 -0.0738 -0.1724  0.0784
    6MOL   C153 1163   1.248   0.855   4.191 -0.8754  0.0924  0.0484
    6MOL  Cl154 1164   1.369   0.885   4.069  0.0758 -0.1334  0.2368
    6MOL   C155 1165   1.241   0.931   4.303  0.8097  0.3281 -0.3177
    6MOL   C156 1166   1.309   1.064   4.325 -0.7525 -0.2524 -0.0495
    6MOL   H157 1167   1.208   0.670   4.267 -0.5468 -0.3408  0.0985
    6MOL   H158 1168   1.238   0.672   4.091 -2.0734 -2.1267 -0.0829
    6MOL   H159 1169   1.177   0.897   4.383  0.8000 -0.4012 -0.6259
    6MOL   H160 1170   1.232   1.133   4.359 -0.6438  0.5856 -1.4474
    6MOL   H161 1171   1.361   1.111   4.241  1.9302  1.2374  2.3103
    6MOL   C162 1172   1.422   1.057   4.435  0.1678 -0.3538  0.8345
    6MOL   C163 1173   1.559   1.019   4.378  0.0852 -0.4917  0.1316
    6MOL  Cl164 1174   1.650   1.156   4.325  0.2647  0.0165 -0.3054
    6MOL   C165 1175   1.599   0.892   4.364 -0.3560  0.0592 -0.3989
    6MOL   C166 1176   1.738   0.862   4.312  0.1115 -0.0211 -0.1131
    6MOL   H167 1177   1.417   1.159   4.474  1.4392 -0.6319  1.7635
    6MOL   H168 1178   1.383   0.998   4.518 -0.8384 -0.2760  0.4241
    6MOL   H169 1179   1.539   0.809   4.396  1.3381 -1.3678 -0.8577
    6MOL   H170 1180   1.810   0.944   4.317  0.4025 -0.2519 -0.5464
    6MOL   H171 1181   1.774   0.792   4.387  0.4717 -0.2175 -0.4653
    6MOL   C172 1182   1.725   0.803   4.169  0.4486  0.2207 -0.2000
    6MOL   C173 1183   1.856   0.756   4.109 -0.1185  0.0570  0.4739
    6MOL  Cl174 1184   1.879   0.833   3.949 -0.1294 -0.0360  0.2395
    6MOL   C175 1185   1.959   0.698   4.180  0.0775 -0.6686 -0.0911
    6MOL   C176 1186   2.095   0.667   4.123 -0.2441  0.3108  0.6335
    6MOL   H177 1187   1.702   0.875   4.091  1.4244 -2.1347 -2.7477
    6MOL   H178 1188   1.657   0.718   4.169  1.6866 -0.8303  1.8423
    6MOL   H179 1189   1.934   0.673   4.282 -2.1910  1.6399 -0.0362
    6MOL   H180 1190   2.168   0.728   4.176  0.1450  2.7556 -2.5847
    6MOL   H181 1191   2.104   0.696   4.019 -0.9579  0.6121  0.6521
    6MOL   C182 1192   2.128   0.518   4.141  0.1629  0.1562 -0.3331
    6MOL   C183 1193   2.237   0.481   4.244 -0.0444  0.1715  0.7361
    6MOL  Cl184 1194   2.339   0.363   4.186  0.0386 -0.2285 -0.1124
    6MOL   C185 1195   2.272   0.551   4.355  0.2065  0.8613  0.5046
    6MOL   C186 1196   2.396   0.525   4.431  0.2466 -0.5562 -0.5371
    6MOL   H187 1197   2.036   0.461   4.156  1.4297 -1.4107  1.7031
    6MOL   H188 1198   2.158   0.489   4.041  0.1283  3.1303 -1.2463
    6MOL   H189 1199   2.216   0.634   4.397 -2.1067  0.1566 -1.0913
    6MOL   H190 1200   2.453   0.435   4.410 -0.2862 -0.2923 -3.2354
    6MOL   H191 1201   2.467   0.608   4.418 -0.1709 -0.1355 -0.1667
    6MOL   C192 1202   2.357   0.525   4.577 -0.0638 -0.5119  0.4746
    6MOL   C193 1203   2.485   0.502   4.665 -0.4108 -0.5264  0.7235
    6MOL  Cl194 1204   2.497   0.338   4.714  0.1803 -0.1450 -0.2268
    6MOL   C195 1205   2.566   0.596   4.711  0.6487  0.0828  0.6422
    6MOL   C196 1206   2.553   0.743   4.694  0.2324 -0.3942 -0.1183
    6MOL   H197 1207   2.276   0.454   4.597  0.8794 -2.3952 -2.0367
    6MOL   H198 1208   2.313   0.617   4.614  0.3596 -0.2084  0.2272
    6MOL   H199 1209   2.651   0.563   4.767  0.0338  0.2232  1.6710
    6MOL   H200 1210   2.451   0.779   4.679  0.3278  1.5826  3.5102
    6MOL   H201 1211   2.621   0.784   4.619  1.2892  1.3782  1.7542
    6MOL   H202 1212   2.586   0.787   4.788 -0.6001  1.0049 -0.4622
    7MOL     C1 1213   6.695   2.447   7.524 -0.4431  0.1592 -0.1593
    7MOL     C2 1214   6.668   2.303   7.554  0.2674 -0.6168  0.2563
    7MOL    Cl3 1215   6.506   2.271   7.603  0.1470  0.1229  0.0104
    7MOL     C4 1216   6.758   2.209   7.543  0.0128 -0.3952 -0.4020
    7MOL     C5 1217   6.905   2.241   7.515 -0.1770 -0.5911 -0.4516
    7MOL     H6 1218   6.763   2.490   7.597 -1.1780 -0.6504  1.0372
    7MOL     H7 1219   6.604   2.504   7.542 -0.5850 -0.4914  1.3227
    7MOL     H8 1220   6.727   2.108   7.565  1.6532 -1.3219 -2.2617
    7MOL     H9 1221   6.915   2.322   7.442  2.7573 -0.6903 -0.2249
    7MOL    H10 1222   6.942   2.265   7.615 -1.4528  0.3802 -0.2031
    7MOL    H11 1223   6.736   2.461   7.424  1.8524  0.4947  0.7880
    7MOL    C12 1224   6.974   2.115   7.460  0.2390 -0.1140 -0.3831
    7MOL    C13 1225   7.131   2.120   7.467  0.4830  0.3543 -0.0799
    7MOL   Cl14 1226   7.191   2.040   7.610  0.2112 -0.1841  0.2496
    7MOL    C15 1227   7.214   2.196   7.393  0.4583  0.7829  0.2232
    7MOL    C16 1228   7.177   2.277   7.270  0.3232 -0.9756 -0.5806
    7MOL    H17 1229   6.924   2.028   7.502  0.3936 -0.4684 -0.9290
    7MOL    H18 1230   6.946   2.108   7.355  0.5024  0.9623 -0.5309
    7MOL    H19 1231   7.319   2.195   7.419  0.8923 -0.3612 -1.4962
    7MOL    H20 1232   7.090   2.233   7.220 -0.3060 -2.1135  1.4629
    7MOL    H21 1233   7.158   2.378   7.308  0.8503 -0.8431 -0.6651
    7MOL    C22 1234   7.294   2.279   7.171 -0.2165 -0.0951  0.2195
    7MOL    C23 1235   7.256   2.357   7.046 -0.4369  0.0693 -0.2141
    7MOL   Cl24 1236   7.247   2.524   7.072  0.3111  0.0625  0.1395
    7MOL    C25 1237   7.243   2.302   6.924 -0.8953 -0.3678  0.2114
    7MOL    C26 1238   7.217   2.382   6.801 -0.6586 -0.5812 -0.1345
    7MOL    H27 1239   7.386   2.315   7.216  0.0335 -0.6771  0.1821
    7MOL    H28 1240   7.326   2.181   7.136  1.2199  0.3379  0.3059
    7MOL    H29 1241   7.256   2.195   6.922 -0.0707 -0.2627 -1.4350
    7MOL    H30 1242   7.149   2.452   6.851  1.1410  0.4550  0.9450
    7MOL    H31 1243   7.303   2.441   6.769 -0.8678 -1.5600 -2.5878
    7MOL    C32 1244   7.154   2.306   6.675  0.3735  0.2184  0.4266
    7MOL    C33 1245   7.091   2.403   6.573 -0.6992  0.4022 -1.0700
    7MOL   Cl34 1246   6.957   2.487   6.644 -0.3768 -0.1092 -0.0094
    7MOL    C35 1247   7.142   2.432   6.452 -0.0074 -0.3010 -0.1092
    7MOL    C36 1248   7.082   2.535   6.357 -0.5852  0.3854  0.1655
    7MOL    H37 1249   7.228   2.235   6.639 -0.6713 -0.5319 -0.2781
    7MOL    H38 1250   7.067   2.252   6.713  0.9207 -0.7812  0.2631
    7MOL    H39 1251   7.230   2.382   6.414 -0.2122 -0.2391 -0.6722
    7MOL    H40 1252   7.054   2.483   6.265  0.8868 -0.6240  0.2822
    7MOL    H41 1253   6.985   2.562   6.399 -0.1720  1.2200  0.5749
    7MOL    C42 1254   7.177   2.654   6.336 -0.2880  0.0956 -0.0778
    7MOL    C43 1255   7.139   2.736   6.216 -0.0293  0.2364 -0.7221
    7MOL   Cl44 1256   7.244   2.711   6.085 -0.0003  0.3783  0.3673
    7MOL    C45 1257   7.042   2.829   6.218  0.4968  0.1827  0.2008
    7MOL    C46 1258   6.956   2.855   6.340  0.6272 -0.0949  0.7296
    7MOL    H47 1259   7.180   2.710   6.430  0.6929 -0.7480  0.3919
    7MOL    H48 1260   7.280   2.620   6.328 -0.3268 -0.8156  2.6680
    7MOL    H49 1261   7.009   2.885   6.131  1.0057 -1.6918 -1.2468
    7MOL    H50 1262   7.004   2.795   6.418  0.0221 -1.8580 -0.2229
    7MOL    H51 1263   6.963   2.961   6.365  0.2902 -0.0475  0.6176
    7MOL    C52 1264   6.806   2.824   6.320  0.0307 -0.0817 -0.7021
    7MOL    C53 1265   6.723   2.845   6.447  0.1508 -0.4704 -0.3134
    7MOL   Cl54 1266   6.572   2.921   6.421  0.3689 -0.0923 -0.2628
    7MOL    C55 1267   6.764   2.826   6.569 -0.2011  0.4371  0.3515
    7MOL    C56 1268   6.683   2.839   6.696  0.3433 -0.0436  0.1511
    7MOL    H57 1269   6.766   2.873   6.231  0.0892 -2.0750 -1.8591
    7MOL    H58 1270   6.787   2.721   6.291  0.8032 -0.5792  0.5318
    7MOL    H59 1271   6.865   2.788   6.577 -0.1448  0.6644  0.7453
    7MOL    H60 1272   6.710   2.938   6.733 -0.3410  0.6251 -1.0813
    7MOL    H61 1273   6.578   2.846   6.666  0.4996 -1.7284 -0.8687
    7MOL    C62 1274   6.699   2.715   6.786  0.3681 -0.2900  0.0316
    7MOL    C63 1275   6.623   2.731   6.915  0.3751 -0.3825 -0.8170
    7MOL   Cl64 1276   6.654   2.878   6.999 -0.1103  0.4711  0.0189
    7MOL    C65 1277   6.542   2.637   6.967 -0.6461 -0.1466 -0.5490
    7MOL    C66 1278   6.458   2.648   7.098  0.6739 -0.0673  0.0309
    7MOL    H67 1279   6.656   2.631   6.732 -0.2417 -0.5142  0.8625
    7MOL    H68 1280   6.801   2.684   6.810  0.0748  0.0576  1.8397
    7MOL    H69 1281   6.543   2.549   6.905 -2.0697 -0.4893 -0.1023
    7MOL    H70 1282   6.361   2.687   7.067  2.1025  1.6531 -2.3912
    7MOL    H71 1283   6.506   2.710   7.173  1.1585 -0.1069 -0.2446
    7MOL    C72 1284   6.437   2.506   7.157  0.3822  0.2664 -0.4167
    7MOL    C73 1285   6.356   2.504   7.286  0.0056  0.6480  0.0864
    7MOL   Cl74 1286   6.235   2.378   7.284  0.2530  0.3345 -0.5052
    7MOL    C75 1287   6.375   2.579   7.398  0.9194  0.5214 -0.1203
    7MOL    C76 1288   6.307   2.564   7.531 -0.4234 -0.6157 -0.3810
    7MOL    H77 1289   6.530   2.455   7.183  1.0928  1.3130 -0.8186
    7MOL    H78 1290   6.376   2.444   7.091  1.5077  0.0818 -1.2976
    7MOL    H79 1291   6.454   2.652   7.406  1.0309  0.5361 -1.1840
    7MOL    H80 1292   6.377   2.525   7.604  1.2353  0.0922 -1.5620
    7MOL    H81 1293   6.233   2.484   7.522 -2.5989  1.3862 -0.4759
    7MOL    C82 1294   6.259   2.697   7.587 -0.4493 -0.3031 -0.0619
    7MOL    C83 1295   6.128   2.695   7.663 -0.0799 -0.4783 -0.3026
    7MOL   Cl84 1296   6.129   2.805   7.800 -0.2400  0.0327 -0.2368
    7MOL    C85 1297   6.020   2.632   7.607  0.0335 -0.6535  0.0634
    7MOL    C86 1298   5.883   2.634   7.672 -0.1242  1.0909 -0.1182
    7MOL    H87 1299   6.250   2.772   7.508  0.9707 -1.4002 -1.2970
    7MOL    H88 1300   6.341   2.734   7.647 -0.2589 -0.8833  0.0400
    7MOL    H89 1301   6.030   2.589   7.508 -0.9130 -2.3939  0.6984
    7MOL    H90 1302   5.834   2.539   7.652 -2.9290  2.8274 -1.8276
    7MOL    H91 1303   5.884   2.656   7.779  0.4052  0.1321  0.0750
    7MOL    C92 1304   5.795   2.742   7.602  0.3455 -0.8398 -0.0512
    7MOL    C93 1305   5.656   2.744   7.664  1.1221  0.0398  0.0415
    7MOL   Cl94 1306   5.581   2.594   7.670  0.1741 -0.2039  0.2089
    7MOL    C95 1307   5.591   2.852   7.708  0.3870  0.3531 -0.2307
    7MOL    C96 1308   5.648   2.996   7.706 -0.0920  0.5336  0.0456
    7MOL    H97 1309   5.765   2.729   7.498 -2.6397  0.3796  0.6082
    7MOL    H98 1310   5.838   2.840   7.581 -0.3784 -0.6951 -0.9013
    7MOL    H99 1311   5.493   2.842   7.751  0.9598  0.2372  1.0839
    7MOL   H100 1312   5.712   3.024   7.790  0.5594 -0.0392 -0.2529
    7MOL   H101 1313   5.713   3.014   7.621  1.3474 -1.4649  0.6918
    7MOL   C102 1314   5.543   3.104   7.710 -0.7646 -0.1861  0.2327
    7MOL   C103 1315   5.595   3.243   7.702  0.1149 -0.2247 -0.9417
    7MOL  Cl104 1316   5.625   3.282   7.539  0.2528 -0.1450 -0.0321
    7MOL   C105 1317   5.618   3.326   7.806  0.5227  0.2229  0.2174
    7MOL   C106 1318   5.681   3.460   7.789  0.4827 -0.4087  0.0146
    7MOL   H107 1319   5.464   3.090   7.637 -0.4979 -0.0656 -0.0796
    7MOL   H108 1320   5.493   3.102   7.807  1.6631  1.3536  1.5868
    7MOL   H109 1321   5.593   3.301   7.908  0.9945 -0.0773  0.2579
    7MOL   H110 1322   5.662   3.487   7.685  0.7034  0.1876  0.1261
    7MOL   H111 1323   5.629   3.528   7.856  2.6301  0.5860  0.7151
    7MOL   C112 1324   5.834   3.471   7.808 -0.0417  0.4296  0.3519
    7MOL   C113 1325   5.874   3.429   7.946  0.3842  0.1201 -0.4519
    7MOL  Cl114 1326   5.846   3.553   8.061 -0.2922  0.2926 -0.2069
    7MOL   C115 1327   5.933   3.312   7.982  0.6950  0.5822  0.3663
    7MOL   C116 1328   5.967   3.193   7.896 -0.1070 -0.1566 -0.1230
    7MOL   H117 1329   5.890   3.429   7.724 -0.2212 -2.2380  1.5232
    7MOL   H118 1330   5.867   3.575   7.807 -2.2859  1.1896 -2.8331
    7MOL   H119 1331   5.971   3.297   8.083  1.1984 -0.8413 -0.0242
    7MOL   H120 1332   5.896   3.202   7.813 -1.5506  3.1419  1.3746
    7MOL   H121 1333   5.941   3.109   7.961  1.0574 -0.9422 -0.6581
    7MOL   C122 1334   6.116   3.189   7.857  0.6094  1.1058  0.3309
    7MOL   C123 1335   6.154   3.281   7.745  0.4891 -0.4703 -0.5670
    7MOL  Cl124 1336   6.087   3.231   7.594 -0.3028  0.0689 -0.6838
    7MOL   C125 1337   6.202   3.403   7.762 -0.0257  1.0510 -0.0364
    7MOL   C126 1338   6.252   3.476   7.885  0.3948  0.1363 -0.3193
    7MOL   H127 1339   6.179   3.200   7.945  2.2470  0.5769 -0.7713
    7MOL   H128 1340   6.143   3.093   7.813 -1.0076  1.0425 -0.5771
    7MOL   H129 1341   6.210   3.457   7.669 -1.0711  0.0816 -0.6934
    7MOL   H130 1342   6.230   3.425   7.979  0.3404  1.7295  0.5568
    7MOL   H131 1343   6.361   3.474   7.890  0.3577 -0.5593  0.2436
    7MOL   C132 1344   6.197   3.625   7.894 -0.4115  0.6990 -0.1070
    7MOL   C133 1345   6.244   3.701   8.017 -0.5571  0.1909  0.3810
    7MOL  Cl134 1346   6.150   3.674   8.159  0.1131 -0.0990  0.6267
    7MOL   C135 1347   6.328   3.808   8.017 -0.4053 -0.0590  0.5176
    7MOL   C136 1348   6.412   3.864   7.898  0.5374  0.2638  0.1728
    7MOL   H137 1349   6.245   3.669   7.807  1.1147  1.2146  0.9728
    7MOL   H138 1350   6.089   3.629   7.880 -0.3499 -0.1847 -0.9008
    7MOL   H139 1351   6.343   3.860   8.110 -0.1911 -0.7825  0.8912
    7MOL   H140 1352   6.430   3.781   7.830  1.8375  1.3238 -0.7952
    7MOL   H141 1353   6.362   3.938   7.836  1.6177  0.5524 -0.3608
    7MOL   C142 1354   6.552   3.914   7.945 -0.4142  0.4382 -0.2632
    7MOL   C143 1355   6.650   3.960   7.838  0.0035  0.7358 -0.0565
    7MOL  Cl144 1356   6.597   4.100   7.764  0.0220 -0.3020  0.0693
    7MOL   C145 1357   6.770   3.900   7.813 -0.0168 -0.4199  0.0854
    7MOL   C146 1358   6.881   3.944   7.713  0.4112 -0.3705 -0.0908
    7MOL   H147 1359   6.612   3.846   8.004 -3.1576 -2.1564 -0.3580
    7MOL   H148 1360   6.530   3.998   8.012  2.2015 -0.0197  1.2187
    7MOL   H149 1361   6.788   3.809   7.868  1.0510  0.2806  0.9314
    7MOL   H150 1362   6.841   4.007   7.633 -0.8369  1.0063  1.5760
    7MOL   H151 1363   6.965   4.000   7.755 -2.2082  3.4719  0.2834
    7MOL   C152 1364   6.946   3.817   7.643 -0.6162  0.5278 -0.1982
    7MOL   C153 1365   7.051   3.745   7.717  0.3231  0.1191 -0.2831
    7MOL  Cl154 1366   7.208   3.767   7.650 -0.2320 -0.1038 -0.2971
    7MOL   C155 1367   7.033   3.668   7.822 -0.1735  0.3069 -0.0736
    7MOL   C156 1368   7.144   3.584   7.889 -0.5746 -0.5032  0.2108
    7MOL   H157 1369   6.861   3.750   7.648 -0.6790  0.6100 -0.1540
    7MOL   H158 1370   6.977   3.834   7.540 -0.3995  2.4023  0.1541
    7MOL   H159 1371   6.935   3.659   7.867 -0.4344 -1.6735 -0.9842
    7MOL   H160 1372   7.134   3.579   7.998  1.5688  1.6134  0.5451
    7MOL   H161 1373   7.240   3.633   7.869 -0.0878 -1.3415  0.4563
    7MOL   C162 1374   7.137   3.447   7.832  0.2787  0.3117 -0.2334
    7MOL   C163 1375   7.250   3.358   7.875 -0.0914 -0.4608 -0.2020
    7MOL  Cl164 1376   7.380   3.365   7.760  0.4237 -0.1106  0.0136
    7MOL   C165 1377   7.252   3.274   7.983  0.0216 -0.3857  0.8082
    7MOL   C166 1378   7.369   3.185   8.025 -0.3747 -0.1037  0.1853
    7MOL   H167 1379   7.046   3.399   7.868  0.4318 -0.6831 -1.1380
    7MOL   H168 1380   7.133   3.430   7.724  1.2847  0.3725 -0.2830
    7MOL   H169 1381   7.167   3.282   8.049 -1.1191  3.1155 -0.9804
    7MOL   H170 1382   7.339   3.080   8.017 -0.0473 -0.3391  1.8258
    7MOL   H171 1383   7.458   3.194   7.962 -0.8062  1.9664 -0.1479
    7MOL   C172 1384   7.390   3.211   8.173 -0.3979 -0.3999  0.1822
    7MOL   C173 1385   7.476   3.115   8.252  0.6087  0.0711 -0.0804
    7MOL  Cl174 1386   7.477   3.158   0.002  0.0425 -0.3478  0.3420
    7MOL   C175 1387   7.531   3.005   8.200  0.2337 -0.3823 -0.7703
    7MOL   C176 1388   7.617   2.900   8.272 -0.9626 -0.1523  0.0671
    7MOL   H177 1389   7.298   3.225   8.230 -0.5034  0.3152 -0.1622
    7MOL   H178 1390   7.449   3.303   8.179 -1.3789  0.2332  0.2473
    7MOL   H179 1391   7.529   2.979   8.095 -0.1256  0.9393 -1.1074
    7MOL   H180 1392   7.622   2.921   8.379 -1.0734 -1.4297  0.3300
    7MOL   H181 1393   7.716   2.893   8.226 -0.4705 -1.8581  1.3272
    7MOL   C182 1394   7.556   2.758   8.272 -0.1939 -0.5588  0.2208
    7MOL   C183 1395   7.540   2.692   8.133  0.2989  0.2607  0.3838
    7MOL  Cl184 1396   7.693   2.658   8.071  0.1717  0.0401 -0.0409
    7MOL   C185 1397   7.427   2.661   8.064  0.2318 -0.9191 -0.0495
    7MOL   C186 1398   7.412   2.594   7.932 -0.9379 -0.0618 -0.1860
    7MOL   H187 1399   7.619   2.701   8.340  0.1334 -0.6568 -0.1600
    7MOL   H188 1400   7.456   2.752   8.314 -0.8390  3.3484 -0.5132
    7MOL   H189 1401   7.329   2.685   8.102  0.7752  0.5010  0.4570
    7MOL   H190 1402   7.400   2.676   7.862  0.4696 -0.3555 -0.8014
    7MOL   H191 1403   7.512   2.564   7.899 -0.0204 -0.1113  2.4695
    7MOL   C192 1404   7.296   2.490   7.914 -0.0578  0.0443  0.3913
    7MOL   C193 1405   7.304   2.380   7.809 -0.3192 -0.1966  0.7101
    7MOL  Cl194 1406   7.385   2.243   7.863  0.0916 -0.1008 -0.4672
    7MOL   C195 1407   7.270   2.396   7.680 -0.7105 -0.2523  0.4569
    7MOL   C196 1408   7.206   2.516   7.612  0.3882  0.3606 -0.2088
    7MOL   H197 1409   7.196   2.533   7.922 -0.1531 -0.1045 -0.0145
    7MOL   H198 1410   7.290   2.435   8.008 -0.5690 -2.1737 -0.8997
    7MOL   H199 1411   7.299   2.316   7.614  0.9432  0.3949  0.3646
    7MOL   H200 1412   7.198   2.606   7.673 -1.4141 -0.4719  0.8434
    7MOL   H201 1413   7.102   2.484   7.599  0.7472 -0.5233 -0.9282
    7MOL   H202 1414   7.255   2.533   7.517  1.1880 -1.6443 -0.1887
    8MOL     C1 1415   7.221   8.188   2.351  0.2061  0.9914 -0.3425
    8MOL     C2 1416   7.077   8.135   2.372 -0.1464 -0.6165  0.0059
    8MOL    Cl3 1417   6.969   8.235   2.282 -0.2940  0.0080 -0.0595
    8MOL     C4 1418   7.039   8.046   2.465 -0.0829  0.8813 -0.2783
    8MOL     C5 1419   7.133   7.967   2.560 -0.2183 -0.1583 -0.5391
    8MOL     H6 1420   7.221   8.277   2.289 -0.3131  2.0158  1.1103
    8MOL     H7 1421   7.287   8.126   2.290  0.3044 -0.3167  1.0723
    8MOL     H8 1422   6.934   8.032   2.484 -0.3690  2.3613 -0.7790
    8MOL     H9 1423   7.145   7.864   2.525  0.8274  0.5461 -2.3116
    8MOL    H10 1424   7.232   8.011   2.553  0.2991 -1.5832 -2.6104
    8MOL    H11 1425   7.267   8.216   2.446  1.2019  0.9267 -0.7963
    8MOL    C12 1426   7.090   7.963   2.708  0.1504 -0.0654 -0.1756
    8MOL    C13 1427   7.197   7.899   2.799 -0.3523  0.7308 -0.4473
    8MOL   Cl14 1428   7.285   8.025   2.864  0.5093  0.4609 -0.1908
    8MOL    C15 1429   7.228   7.769   2.805 -1.1070 -0.5040  0.3829
    8MOL    C16 1430   7.158   7.661   2.728  0.3535 -0.7300 -0.2529
    8MOL    H17 1431   7.071   8.067   2.734 -0.1207 -0.1723  0.0729
    8MOL    H18 1432   6.992   7.916   2.722  0.3251 -0.3928 -0.0592
    8MOL    H19 1433   7.318   7.743   2.859 -0.7945 -2.5723 -1.1047
    8MOL    H20 1434   7.062   7.699   2.692  0.4892  1.2136  1.3649
    8MOL    H21 1435   7.205   7.628   2.635 -1.6306  1.0692 -1.9603
    8MOL    C22 1436   7.126   7.547   2.823  0.1888 -0.1655  0.1983
    8MOL    C23 1437   7.080   7.424   2.759  0.4619  0.7582 -0.4510
    8MOL   Cl24 1438   7.128   7.287   2.853 -0.2267  0.2169 -0.0680
    8MOL    C25 1439   6.998   7.407   2.652 -0.4233 -0.7189  0.6210
    8MOL    C26 1440   6.954   7.275   2.584  0.0883 -0.5765 -0.2549
    8MOL    H27 1441   7.208   7.529   2.893  1.0748 -1.3330 -1.1161
    8MOL    H28 1442   7.043   7.582   2.884 -1.1508 -1.2095 -0.9908
    8MOL    H29 1443   6.961   7.496   2.602 -0.8286  0.1436  2.4184
    8MOL    H30 1444   6.958   7.290   2.476 -1.9489  1.2216 -0.1079
    8MOL    H31 1445   7.019   7.200   2.629  0.4523  0.2042  0.5238
    8MOL    C32 1446   6.810   7.234   2.639 -0.2839 -0.3480  0.1556
    8MOL    C33 1447   6.779   7.091   2.585 -0.8900  0.5713 -0.1554
    8MOL   Cl34 1448   6.732   7.101   2.420 -0.1069 -0.3553 -0.3491
    8MOL    C35 1449   6.796   6.977   2.653 -0.2498  0.1986 -0.2007
    8MOL    C36 1450   6.771   6.841   2.592 -0.1699  0.0881 -0.6504
    8MOL    H37 1451   6.799   7.247   2.747 -1.6583 -0.7258  0.0656
    8MOL    H38 1452   6.741   7.306   2.595 -1.1928 -1.1824  0.2105
    8MOL    H39 1453   6.827   6.979   2.756 -0.7751 -0.1375 -0.0339
    8MOL    H40 1454   6.797   6.850   2.486 -0.0023  0.8030 -0.5499
    8MOL    H41 1455   6.835   6.767   2.639  1.4582  0.0110 -2.9033
    8MOL    C42 1456   6.624   6.800   2.604 -0.7288  0.2209  0.1336
    8MOL    C43 1457   6.590   6.665   2.551  0.3278  0.6997  0.6221
    8MOL   Cl44 1458   6.581   6.541   2.665  0.0485  0.0385  0.1164
    8MOL    C45 1459   6.563   6.641   2.419 -0.1317 -0.7469 -0.2537
    8MOL    C46 1460   6.573   6.744   2.307  0.8759 -0.9696  0.1794
    8MOL    H47 1461   6.589   6.810   2.707  2.5105  2.3701  1.1159
    8MOL    H48 1462   6.558   6.878   2.565 -1.3205 -0.5283 -0.3644
    8MOL    H49 1463   6.546   6.541   2.380  1.2798 -0.5433 -1.4253
    8MOL    H50 1464   6.611   6.840   2.342 -1.1275  0.0408 -0.2919
    8MOL    H51 1465   6.650   6.707   2.240  0.3249  0.5745 -1.3689
    8MOL    C52 1466   6.452   6.746   2.213 -0.2913 -0.1334  0.1160
    8MOL    C53 1467   6.481   6.832   2.087  0.4153  0.1008  0.0696
    8MOL   Cl54 1468   6.525   6.743   1.955  0.1564 -0.0754  0.2584
    8MOL    C55 1469   6.471   6.959   2.081 -0.3025 -0.0925 -0.2598
    8MOL    C56 1470   6.476   7.050   1.962  0.0550 -0.5500  0.6097
    8MOL    H57 1471   6.426   6.645   2.180  1.8927 -0.1025 -1.8140
    8MOL    H58 1472   6.365   6.786   2.266  0.6029  1.4756  0.3989
    8MOL    H59 1473   6.440   7.015   2.168 -0.5993  0.5893 -0.7959
    8MOL    H60 1474   6.512   6.995   1.875 -2.4195 -0.2669 -0.6236
    8MOL    H61 1475   6.373   7.084   1.949 -0.5397 -1.4541  2.8033
    8MOL    C62 1476   6.571   7.171   1.990 -0.0762  0.0346 -0.3752
    8MOL    C63 1477   6.622   7.248   1.868 -0.4737  0.3753  0.0583
    8MOL   Cl64 1478   6.771   7.329   1.897 -0.0782  0.2611  0.0797
    8MOL    C65 1479   6.567   7.242   1.745 -0.3507 -0.6078  0.2246
    8MOL    C66 1480   6.606   7.300   1.605  0.7653  0.1665 -0.6348
    8MOL    H67 1481   6.529   7.237   2.065  2.1523  0.2329  0.7221
    8MOL    H68 1482   6.660   7.135   2.041 -1.0871  0.3951  1.6851
    8MOL    H69 1483   6.476   7.188   1.721  0.0562 -0.6253 -1.3179
    8MOL    H70 1484   6.630   7.204   1.560 -0.7887 -0.8476  0.5987
    8MOL    H71 1485   6.700   7.354   1.614  0.8679  0.0122 -0.7851
    8MOL    C72 1486   6.506   7.392   1.535  0.2042 -0.2682  0.5357
    8MOL    C73 1487   6.524   7.428   1.387 -0.1942 -0.2848  0.1516
    8MOL   Cl74 1488   6.688   7.481   1.361  0.1029 -0.3150  0.4272
    8MOL    C75 1489   6.422   7.427   1.303  0.4030 -0.6403  0.4143
    8MOL    C76 1490   6.432   7.475   1.157 -0.8037  0.0312  0.2335
    8MOL    H77 1491   6.510   7.489   1.584  0.9116 -0.3713  0.6797
    8MOL    H78 1492   6.399   7.380   1.553  0.3503 -0.8807  0.9868
    8MOL    H79 1493   6.325   7.390   1.333 -0.7584  0.5013 -1.7918
    8MOL    H80 1494   6.417   7.394   1.086  2.0632 -1.7987  1.6099
    8MOL    H81 1495   6.524   7.527   1.131 -0.8046 -0.5040 -0.8807
    8MOL    C82 1496   6.310   7.565   1.123  0.4944 -0.5281 -0.0002
    8MOL    C83 1497   6.198   7.497   1.048  0.4484 -0.2836  0.6741
    8MOL   Cl84 1498   6.060   7.469   1.146  0.0344  0.1315 -0.3768
    8MOL    C85 1499   6.200   7.464   0.918  0.6208  0.4284  0.3188
    8MOL    C86 1500   6.086   7.392   0.838  0.5440 -0.2877  0.2894
    8MOL    H87 1501   6.330   7.634   1.041  0.9942 -0.9567 -0.2383
    8MOL    H88 1502   6.274   7.630   1.204 -1.5370 -0.4135 -0.9465
    8MOL    H89 1503   6.284   7.497   0.859  1.3013  0.5629  1.3470
    8MOL    H90 1504   6.135   7.297   0.814  1.9870  0.0853  1.6856
    8MOL    H91 1505   6.005   7.361   0.904  1.8274 -1.2068  1.4574
    8MOL    C92 1506   6.037   7.471   0.716  0.0942  0.1142 -0.0070
    8MOL    C93 1507   5.966   7.382   0.610 -0.4216  0.2054 -0.3708
    8MOL   Cl94 1508   5.829   7.294   0.668 -0.5322  0.2779 -0.0706
    8MOL    C95 1509   5.985   7.375   0.477  0.2780 -0.3144 -0.5016
    8MOL    C96 1510   6.091   7.455   0.397  0.9504  0.0288 -0.0512
    8MOL    H97 1511   6.117   7.531   0.674  0.0623  0.3779  0.3063
    8MOL    H98 1512   5.965   7.550   0.736  0.5678  0.1959  1.4433
    8MOL    H99 1513   5.924   7.309   0.417  1.2968 -1.5214 -0.2290
    8MOL   H100 1514   6.129   7.540   0.454  1.7744  0.0324 -0.5928
    8MOL   H101 1515   6.178   7.390   0.392  0.1757 -0.9468 -0.9322
    8MOL   C102 1516   6.027   7.491   0.261  0.3834 -0.2963 -0.2059
    8MOL   C103 1517   6.125   7.564   0.173 -0.5529  0.0411 -0.4301
    8MOL  Cl104 1518   6.110   7.735   0.204  0.3282  0.0384 -0.0602
    8MOL   C105 1519   6.182   7.512   0.065 -0.2629  0.9807 -0.1550
    8MOL   C106 1520   6.264   7.586   8.383  0.4575 -0.8768  0.3856
    8MOL   H107 1521   5.975   7.405   0.219 -0.8343  0.2723  0.1158
    8MOL   H108 1522   5.944   7.557   0.289 -0.1724 -2.0928  2.5149
    8MOL   H109 1523   6.167   7.407   0.047 -0.2439  0.8272  0.7279
    8MOL   H110 1524   6.306   7.677   0.005 -1.6021 -0.4035  1.4921
    8MOL   H111 1525   6.354   7.527   8.367  0.1807 -1.9550  2.5428
    8MOL   C112 1526   6.189   7.629   8.258 -0.2454  0.1374  0.3154
    8MOL   C113 1527   6.279   7.705   8.171 -0.6762 -0.1548 -0.5505
    8MOL  Cl114 1528   6.265   7.880   8.179 -0.5712  0.1847  0.3462
    8MOL   C115 1529   6.356   7.653   8.074 -0.2503  0.3536  0.0098
    8MOL   C116 1530   6.361   7.503   8.041  0.7014 -0.0607 -0.5658
    8MOL   H117 1531   6.151   7.538   8.210 -0.6419 -0.8702  2.4885
    8MOL   H118 1532   6.103   7.691   8.281 -0.7709  0.1434 -1.6035
    8MOL   H119 1533   6.416   7.721   8.015 -0.3935  0.4135 -0.0659
    8MOL   H120 1534   6.358   7.436   8.127  1.2813 -0.3807 -0.7928
    8MOL   H121 1535   6.459   7.483   7.997  0.5841  0.7955 -1.2345
    8MOL   C122 1536   6.253   7.468   7.941 -0.8892 -0.1535  0.2047
    8MOL   C123 1537   6.267   7.327   7.889 -0.0763  0.5768 -0.4309
    8MOL  Cl124 1538   6.347   7.346   7.733 -0.0238  0.4776 -0.2469
    8MOL   C125 1539   6.229   7.214   7.945  0.0323 -0.4212 -0.1349
    8MOL   C126 1540   6.164   7.183   8.079  0.4729 -0.2158 -0.1577
    8MOL   H127 1541   6.152   7.468   7.980 -0.1517  1.1800  2.1478
    8MOL   H128 1542   6.248   7.530   7.851 -0.8425 -1.3147 -0.6131
    8MOL   H129 1543   6.243   7.128   7.881  2.6145 -0.1515  0.0271
    8MOL   H130 1544   6.205   7.085   8.103 -0.4161 -0.6645 -0.4320
    8MOL   H131 1545   6.209   7.262   8.139  0.7335 -0.3320 -0.2018
    8MOL   C132 1546   6.005   7.196   8.072 -0.3737  0.8357  0.7659
    8MOL   C133 1547   5.923   7.139   8.188  0.2442 -0.6268  0.5323
    8MOL  Cl134 1548   5.900   6.973   8.180  0.0322 -0.1262 -0.1712
    8MOL   C135 1549   5.884   7.216   8.290 -0.4516  0.0192  1.0040
    8MOL   C136 1550   5.900   7.368   8.301 -0.0817 -0.1907 -0.2810
    8MOL   H137 1551   5.981   7.299   8.047 -2.1170  0.1654 -0.4813
    8MOL   H138 1552   5.981   7.139   7.982  1.5706  0.7473  0.2931
    8MOL   H139 1553   5.830   7.168   8.370 -0.4763  0.7077  1.4001
    8MOL   H140 1554   5.937   7.385   8.402 -1.2557 -1.1400  0.3181
    8MOL   H141 1555   5.969   7.414   8.230  1.4857 -1.0517  0.6506
    8MOL   C142 1556   5.758   7.444   8.281 -0.3311 -0.1903 -0.3331
    8MOL   C143 1557   5.690   7.464   8.414 -0.1125 -0.2195 -0.0676
    8MOL  Cl144 1558   5.578   7.331   0.018  0.2818 -0.4112 -0.2092
    8MOL   C145 1559   5.706   7.563   0.083 -0.2904  0.4479 -0.6194
    8MOL   C146 1560   5.630   7.556   0.226  0.0792  0.1761  1.0848
    8MOL   H147 1561   5.691   7.394   8.211 -0.0543 -0.6987 -0.2382
    8MOL   H148 1562   5.794   7.539   8.242 -0.0038 -0.5094 -0.8134
    8MOL   H149 1563   5.778   7.641   0.067  0.4777  0.0255  0.6490
    8MOL   H150 1564   5.543   7.492   0.243  1.1486 -1.6833 -0.2119
    8MOL   H151 1565   5.703   7.514   0.296 -1.1996  0.3644  2.5613
    8MOL   C152 1566   5.593   7.699   0.276 -0.5622  0.1317 -0.0598
    8MOL   C153 1567   5.556   7.722   0.424  0.4599 -0.2224  0.4666
    8MOL  Cl154 1568   5.440   7.848   0.428 -0.2716 -0.3479 -0.0039
    8MOL   C155 1569   5.599   7.648   0.528 -0.1176 -0.0556 -0.3937
    8MOL   C156 1570   5.549   7.680   0.673 -0.0425 -0.1304  0.3257
    8MOL   H157 1571   5.680   7.760   0.253 -0.8270  0.6228  0.2357
    8MOL   H158 1572   5.515   7.739   0.212  1.8204  0.4116 -2.9079
    8MOL   H159 1573   5.667   7.564   0.523 -0.2483 -0.0836 -2.0377
    8MOL   H160 1574   5.494   7.774   0.678 -1.3766 -0.7660 -1.5441
    8MOL   H161 1575   5.647   7.707   0.711 -0.1053  0.5740  0.0012
    8MOL   C162 1576   5.479   7.560   0.742 -0.1377 -0.7585  0.7769
    8MOL   C163 1577   5.460   7.595   0.893 -0.1977 -0.1695 -0.1943
    8MOL  Cl164 1578   5.307   7.659   0.933  0.2583 -0.2833  0.1021
    8MOL   C165 1579   5.559   7.590   0.986 -0.3489 -0.3993 -0.3115
    8MOL   C166 1580   5.550   7.613   1.132 -0.3393  0.6762 -0.9866
    8MOL   H167 1581   5.376   7.550   0.707  0.2954 -0.7449 -0.5412
    8MOL   H168 1582   5.533   7.466   0.731 -0.5911 -1.0966  1.3891
    8MOL   H169 1583   5.658   7.566   0.948 -0.4571 -2.1425  0.4526
    8MOL   H170 1584   5.613   7.700   1.149  2.0927 -1.1219 -0.4623
    8MOL   H171 1585   5.449   7.643   1.158 -0.0913  1.1645 -0.5739
    8MOL   C172 1586   5.606   7.496   1.214  0.0497 -0.1540 -0.1257
    8MOL   C173 1587   5.542   7.473   1.350 -0.1480  0.7807  0.0953
    8MOL  Cl174 1588   5.544   7.305   1.382  0.1845 -0.0553 -0.0494
    8MOL   C175 1589   5.497   7.566   1.433  0.6350 -0.0569  0.6027
    8MOL   C176 1590   5.428   7.534   1.565 -0.1679  0.4215  0.0246
    8MOL   H177 1591   5.714   7.500   1.222 -0.0348  0.1340  0.9130
    8MOL   H178 1592   5.610   7.406   1.152  1.2549 -1.3378  1.6279
    8MOL   H179 1593   5.497   7.668   1.398  1.4882  0.2277  1.4008
    8MOL   H180 1594   5.434   7.426   1.581  0.2563  0.0390 -2.4886
    8MOL   H181 1595   5.322   7.561   1.561 -0.4700 -0.7933 -0.3654
    8MOL   C182 1596   5.510   7.590   1.689  0.0312  0.4359 -0.1051
    8MOL   C183 1597   5.557   7.736   1.687 -0.6575 -0.3934 -0.1360
    8MOL  Cl184 1598   5.415   7.838   1.702  0.3091 -0.0092 -0.0392
    8MOL   C185 1599   5.683   7.782   1.659 -0.4776 -0.8551 -0.0724
    8MOL   C186 1600   5.705   7.930   1.649 -0.5435 -0.0638  0.8487
    8MOL   H187 1601   5.467   7.572   1.787 -0.2742  2.4004  0.1269
    8MOL   H188 1602   5.594   7.520   1.693 -1.4985 -1.4400  0.1687
    8MOL   H189 1603   5.774   7.727   1.642 -0.7519 -1.4005  0.2212
    8MOL   H190 1604   5.641   7.989   1.715  0.2190  1.3426  0.3682
    8MOL   H191 1605   5.808   7.944   1.683  0.3183 -1.8364 -0.9559
    8MOL   C192 1606   5.722   7.986   1.509  0.1305 -0.1370 -0.0212
    8MOL   C193 1607   5.597   8.024   1.426  0.3777 -0.2715 -0.2011
    8MOL  Cl194 1608   5.576   7.932   1.286  0.3541  0.2491  0.2062
    8MOL   C195 1609   5.513   8.124   1.449 -0.2508  0.5573  0.1902
    8MOL   C196 1610   5.494   8.214   1.566 -0.4479 -0.2484  0.4001
    8MOL   H197 1611   5.776   7.914   1.447  2.4229  0.0019  1.7618
    8MOL   H198 1612   5.782   8.076   1.516  0.3745 -0.3105  0.1350
    8MOL   H199 1613   5.457   8.144   1.359  3.8697 -0.5911 -2.7500
    8MOL   H200 1614   5.443   8.166   1.649 -1.5692  0.9256  0.3967
    8MOL   H201 1615   5.441   8.302   1.530  1.9041  0.2294 -2.0527
    8MOL   H202 1616   5.596   8.246   1.588  0.2279 -0.0960 -2.6813
    9MOL     C1 1617   5.848   3.708   3.360 -0.7558  0.4926 -0.6674
    9MOL     C2 1618   5.895   3.628   3.240  0.4921  0.3846  0.6453
    9MOL    Cl3 1619   5.935   3.728   3.114  0.4891 -0.3207  0.2335
    9MOL     C4 1620   5.905   3.493   3.232  0.0805  0.0151  0.2919
    9MOL     C5 1621   5.881   3.403   3.353 -0.5921  0.2264  0.9487
    9MOL     H6 1622   5.898   3.689   3.455 -1.6962 -3.4903 -0.8985
    9MOL     H7 1623   5.744   3.688   3.387 -0.5912  0.2606 -0.2143
    9MOL     H8 1624   5.936   3.440   3.144 -0.1019  0.7652 -0.2282
    9MOL     H9 1625   5.974   3.346   3.363 -0.0477  0.9356 -0.0122
    9MOL    H10 1626   5.873   3.470   3.439  0.5296 -0.9636  2.0084
    9MOL    H11 1627   5.860   3.816   3.350  1.3355  0.0611 -3.3700
    9MOL    C12 1628   5.768   3.307   3.333 -0.2602  0.3622  0.3647
    9MOL    C13 1629   5.629   3.372   3.333  0.0755 -1.1397  0.3383
    9MOL   Cl14 1630   5.556   3.402   3.485  0.2647  0.2400  0.0229
    9MOL    C15 1631   5.560   3.394   3.223  0.3481 -0.4448  0.2613
    9MOL    C16 1632   5.611   3.372   3.080 -0.4485  0.2897 -0.3112
    9MOL    H17 1633   5.783   3.252   3.240  2.5167  0.2245  0.8530
    9MOL    H18 1634   5.773   3.228   3.408 -3.0872  0.4720  0.7415
    9MOL    H19 1635   5.460   3.434   3.231  0.2973 -0.3987 -0.5902
    9MOL    H20 1636   5.719   3.381   3.086 -0.5249  0.3810  1.0584
    9MOL    H21 1637   5.589   3.269   3.054 -1.3894  0.8433 -1.7872
    9MOL    C22 1638   5.544   3.475   2.978  0.4582  0.1940  0.1521
    9MOL    C23 1639   5.587   3.617   3.001 -0.0426 -0.4647 -0.0410
    9MOL   Cl24 1640   5.683   3.672   2.868 -0.2707 -0.0312  0.1906
    9MOL    C25 1641   5.560   3.699   3.102 -0.7719 -0.1159 -0.1533
    9MOL    C26 1642   5.608   3.843   3.105  0.5573 -0.0029 -0.1216
    9MOL    H27 1643   5.567   3.444   2.876  0.9690 -1.2648  0.7012
    9MOL    H28 1644   5.435   3.484   2.971  0.5859  0.8374 -1.1508
    9MOL    H29 1645   5.508   3.657   3.187 -2.0647  0.0759 -0.8472
    9MOL    H30 1646   5.715   3.857   3.093  0.8996 -1.6517  0.8020
    9MOL    H31 1647   5.559   3.903   3.029 -0.6202 -0.1228  0.5224
    9MOL    C32 1648   5.551   3.899   3.238  0.1693  0.2716  0.5783
    9MOL    C33 1649   5.577   4.053   3.239  0.4877  0.1152  0.1843
    9MOL   Cl34 1650   5.428   4.133   3.197 -0.3613 -0.0231 -0.1272
    9MOL    C35 1651   5.700   4.107   3.269 -0.1768  0.0860  0.2257
    9MOL    C36 1652   5.730   4.260   3.275 -0.2605 -0.1940  0.5045
    9MOL    H37 1653   5.443   3.883   3.243 -0.0272  0.9218 -1.3345
    9MOL    H38 1654   5.598   3.851   3.324  1.1805  1.0727  0.4882
    9MOL    H39 1655   5.788   4.051   3.294  2.2288  2.3496 -2.8070
    9MOL    H40 1656   5.744   4.312   3.180  3.0299 -0.6404  0.6671
    9MOL    H41 1657   5.644   4.313   3.315  0.6514  1.5670  0.1783
    9MOL    C42 1658   5.855   4.284   3.364 -0.5945 -0.0597 -0.0848
    9MOL    C43 1659   5.981   4.280   3.287  0.1393  0.0965 -0.0249
    9MOL   Cl44 1660   5.983   4.421   3.186 -0.1980  0.2809  0.2181
    9MOL    C45 1661   6.077   4.182   3.289  0.8029 -0.1447 -0.0084
    9MOL    C46 1662   6.081   4.056   3.368 -0.8349  0.3548 -0.2225
    9MOL    H47 1663   5.858   4.383   3.409  2.3941 -0.1123 -0.0472
    9MOL    H48 1664   5.853   4.220   3.453 -2.1707 -0.3818 -0.3350
    9MOL    H49 1665   6.153   4.207   3.217  1.4878 -0.2394  0.6855
    9MOL    H50 1666   5.990   4.046   3.428 -1.2653  0.2314 -0.8879
    9MOL    H51 1667   6.074   3.984   3.287 -1.7092 -0.1009  0.2447
    9MOL    C52 1668   6.212   4.042   3.453  0.7602 -0.1237  0.8557
    9MOL    C53 1669   6.244   3.899   3.499 -0.2056 -0.6977 -0.1905
    9MOL   Cl54 1670   6.412   3.871   3.508 -0.2120 -0.0447 -0.4754
    9MOL    C55 1671   6.152   3.802   3.508  0.2053 -0.1916 -0.3420
    9MOL    C56 1672   6.181   3.661   3.548  0.1943 -0.3689 -0.1901
    9MOL    H57 1673   6.292   4.070   3.385 -1.9254  0.9798 -1.9392
    9MOL    H58 1674   6.236   4.111   3.534  2.4993 -1.4348  1.4847
    9MOL    H59 1675   6.046   3.823   3.501 -0.1822 -1.5906  0.9017
    9MOL    H60 1676   6.115   3.593   3.494 -0.1602 -0.0992 -0.0980
    9MOL    H61 1677   6.282   3.650   3.509 -0.0995 -0.0486 -1.0689
    9MOL    C62 1678   6.195   3.639   3.699  0.3515  0.0094  0.4799
    9MOL    C63 1679   6.065   3.650   3.770  0.0382 -0.9603  0.1320
    9MOL   Cl64 1680   6.057   3.762   3.898 -0.1117 -0.6271 -0.0771
    9MOL    C65 1681   5.955   3.574   3.733 -0.0381 -0.2550  0.0926
    9MOL    C66 1682   5.814   3.586   3.795 -0.1557  0.3810 -0.0212
    9MOL    H67 1683   6.237   3.542   3.722 -0.8055 -0.7701 -0.6150
    9MOL    H68 1684   6.263   3.717   3.734 -1.8681  0.8283  3.1760
    9MOL    H69 1685   5.964   3.501   3.653  0.4569 -2.2159  1.8935
    9MOL    H70 1686   5.815   3.635   3.892 -0.3095  1.0726 -0.3691
    9MOL    H71 1687   5.785   3.483   3.814 -1.3035  0.8254  0.6846
    9MOL    C72 1688   5.696   3.636   3.705  0.3192 -0.3500 -0.8338
    9MOL    C73 1689   5.676   3.785   3.723  0.3452 -0.5173 -0.8383
    9MOL   Cl74 1690   5.515   3.826   3.746 -0.2698  0.1565 -0.4130
    9MOL    C75 1691   5.763   3.883   3.704 -0.4441 -0.2624 -1.0666
    9MOL    C76 1692   5.743   4.034   3.712 -0.0497 -0.3422  0.3605
    9MOL    H77 1693   5.611   3.579   3.745  0.7701  0.7069  1.7315
    9MOL    H78 1694   5.712   3.598   3.604 -1.2936 -2.1041 -0.4526
    9MOL    H79 1695   5.865   3.860   3.677 -0.3274 -0.6355 -0.3429
    9MOL    H80 1696   5.659   4.082   3.762  0.3381  0.4115  0.2836
    9MOL    H81 1697   5.723   4.073   3.612 -0.5084  0.2313  0.6716
    9MOL    C82 1698   5.862   4.095   3.783 -0.8093 -0.9755  0.5581
    9MOL    C83 1699   5.874   4.247   3.782  0.1065  0.1558  0.3275
    9MOL   Cl84 1700   6.034   4.304   3.772  0.5843  0.4890  0.0292
    9MOL    C85 1701   5.773   4.331   3.794 -0.3483 -0.1045 -0.2717
    9MOL    C86 1702   5.782   4.479   3.798 -0.7281  0.7694 -0.6321
    9MOL    H87 1703   5.955   4.069   3.732  0.0539  0.7700  1.2076
    9MOL    H88 1704   5.883   4.063   3.885 -0.4303  1.1568  1.1704
    9MOL    H89 1705   5.672   4.293   3.799  0.6796 -2.8884  0.1243
    9MOL    H90 1706   5.867   4.511   3.738  0.7801 -0.6719  0.7005
    9MOL    H91 1707   5.702   4.519   3.735  1.0821  0.6357 -3.1152
    9MOL    C92 1708   5.770   4.541   3.937  0.3773  0.1737  0.0825
    9MOL    C93 1709   5.780   4.692   3.917 -1.0606  0.8336 -0.5829
    9MOL   Cl94 1710   5.618   4.751   3.897  0.3318 -0.0407  0.3004
    9MOL    C95 1711   5.896   4.762   3.917  0.0958  0.1930  0.0631
    9MOL    C96 1712   6.038   4.718   3.930  0.3047  0.6628 -0.4514
    9MOL    H97 1713   5.857   4.492   3.982 -0.3699  0.1463  1.5391
    9MOL    H98 1714   5.681   4.515   3.994  1.5099 -2.0187  0.9184
    9MOL    H99 1715   5.892   4.870   3.908  1.4904  0.3613  1.3411
    9MOL   H100 1716   6.075   4.736   4.031 -0.7777  0.4220 -0.0060
    9MOL   H101 1717   6.047   4.611   3.913  1.0510  0.5924  0.3479
    9MOL   C102 1718   6.126   4.781   3.823 -0.3185  0.5288  0.4844
    9MOL   C103 1719   6.264   4.717   3.820  0.3142  0.5270  0.1918
    9MOL  Cl104 1720   6.382   4.830   3.885  0.1140 -0.1790 -0.1273
    9MOL   C105 1721   6.285   4.594   3.766  0.5793 -1.1678 -0.4857
    9MOL   C106 1722   6.418   4.519   3.772 -0.8481  0.0162  0.0214
    9MOL   H107 1723   6.086   4.769   3.722  2.2208 -0.5580 -0.4131
    9MOL   H108 1724   6.127   4.890   3.834 -2.3638  0.4805  1.3310
    9MOL   H109 1725   6.198   4.547   3.722  1.1174 -1.2678 -1.4385
    9MOL   H110 1726   6.467   4.535   3.676 -1.6447  0.4609 -0.3215
    9MOL   H111 1727   6.479   4.562   3.851 -1.6176 -0.0076  0.6344
    9MOL   C112 1728   6.397   4.369   3.808  0.0076 -0.4679  0.4365
    9MOL   C113 1729   6.523   4.295   3.815 -0.1812  0.1442 -0.5275
    9MOL  Cl114 1730   6.592   4.299   3.975 -0.3056 -0.0840  0.3185
    9MOL   C115 1731   6.586   4.229   3.718 -0.0509 -0.2206 -0.2958
    9MOL   C116 1732   6.526   4.217   3.574 -0.0168  0.4944  0.0118
    9MOL   H117 1733   6.358   4.363   3.909  1.5413 -0.3209  1.0399
    9MOL   H118 1734   6.323   4.326   3.739  0.0220  2.5650 -1.5687
    9MOL   H119 1735   6.687   4.192   3.731  1.3333  3.6572  0.5492
    9MOL   H120 1736   6.417   4.229   3.569 -0.0761  1.0724  2.1030
    9MOL   H121 1737   6.547   4.116   3.541  1.3771 -0.1742  2.8153
    9MOL   C122 1738   6.599   4.303   3.470  0.1582  0.0924  0.3588
    9MOL   C123 1739   6.565   4.251   3.331 -0.5374 -0.4073 -0.1082
    9MOL  Cl124 1740   6.410   4.310   3.287 -0.2362  0.0966 -0.1436
    9MOL   C125 1741   6.629   4.159   3.256  0.0035 -0.7910  0.1297
    9MOL   C126 1742   6.760   4.089   3.275 -0.0432  0.1273 -0.6263
    9MOL   H127 1743   6.557   4.403   3.476  0.2449  0.1246  0.4430
    9MOL   H128 1744   6.707   4.315   3.484  0.0912  1.1120  0.0327
    9MOL   H129 1745   6.572   4.140   3.167  0.0100 -1.0767  0.1854
    9MOL   H130 1746   6.814   4.121   3.364 -1.0715 -0.3145  0.1618
    9MOL   H131 1747   6.747   3.982   3.292  1.6111  0.0167  0.0256
    9MOL   C132 1748   6.864   4.108   3.167 -0.2230 -1.1814  0.2940
    9MOL   C133 1749   6.995   4.048   3.202 -0.5671 -0.3654  0.9562
    9MOL  Cl134 1750   7.110   4.164   3.253 -0.0578 -0.1930 -0.0682
    9MOL   C135 1751   7.017   3.919   3.194  0.3560 -0.2238  0.6519
    9MOL   C136 1752   6.920   3.808   3.155  0.0146 -0.3471  0.7633
    9MOL   H137 1753   6.832   4.065   3.072  1.3858  1.5780 -1.5698
    9MOL   H138 1754   6.883   4.214   3.152 -0.0828 -1.4034 -1.2034
    9MOL   H139 1755   7.118   3.890   3.218  0.9225  1.5607  0.4628
    9MOL   H140 1756   6.877   3.760   3.243 -3.3743 -0.2528 -0.7994
    9MOL   H141 1757   6.832   3.829   3.096  0.3158 -1.3480 -0.0656
    9MOL   C142 1758   6.992   3.697   3.079  0.8886 -0.1322  0.4464
    9MOL   C143 1759   6.924   3.564   3.109  0.0526 -0.6059  0.1251
    9MOL  Cl144 1760   6.771   3.580   3.034  0.2972 -0.2901 -0.5888
    9MOL   C145 1761   6.979   3.461   3.176  0.5101 -0.4833 -0.3390
    9MOL   C146 1762   6.918   3.326   3.204  0.4096 -0.1056  0.0547
    9MOL   H147 1763   7.097   3.682   3.108  1.7953  2.7280 -1.1818
    9MOL   H148 1764   6.982   3.713   2.972 -1.1630  2.2899  0.9643
    9MOL   H149 1765   7.079   3.474   3.215  0.4333  1.2658 -0.6505
    9MOL   H150 1766   6.815   3.336   3.167  0.7738  1.1340 -0.6565
    9MOL   H151 1767   6.962   3.260   3.129 -0.1771 -0.0802 -0.3171
    9MOL   C152 1768   6.935   3.272   3.352 -0.2038 -0.2056 -0.2294
    9MOL   C153 1769   6.858   3.142   3.386  0.0000 -0.7275 -0.0029
    9MOL  Cl154 1770   6.697   3.176   3.433 -0.6141 -0.1988 -0.3379
    9MOL   C155 1771   6.909   3.013   3.389 -0.3763  0.2934  0.1313
    9MOL   C156 1772   6.846   2.887   3.439 -0.6359 -0.1233  0.0097
    9MOL   H157 1773   7.038   3.249   3.379 -0.3411  0.0820  0.5794
    9MOL   H158 1774   6.903   3.344   3.428 -0.0607 -0.0081 -0.3550
    9MOL   H159 1775   7.011   2.999   3.354 -0.4463  0.3715 -0.1069
    9MOL   H160 1776   6.778   2.841   3.367  0.4244 -1.6284 -0.0627
    9MOL   H161 1777   6.787   2.921   3.524 -0.8378 -0.2589 -0.0775
    9MOL   C162 1778   6.951   2.778   3.486  0.8479 -0.3290 -0.3756
    9MOL   C163 1779   6.890   2.647   3.531 -0.2964  0.1472  0.4918
    9MOL  Cl164 1780   6.947   2.585   3.677  0.3979 -0.3095 -0.2182
    9MOL   C165 1781   6.818   2.578   3.444 -0.1478  0.3291  0.0130
    9MOL   C166 1782   6.753   2.442   3.471  0.3354 -0.7920  0.1244
    9MOL   H167 1783   7.020   2.763   3.403  1.3581 -1.1930  0.1973
    9MOL   H168 1784   7.011   2.820   3.566 -0.1014  3.1440 -1.4110
    9MOL   H169 1785   6.798   2.622   3.347 -0.2315  0.3740  0.0518
    9MOL   H170 1786   6.836   2.381   3.506  0.4026 -0.3508  0.7452
    9MOL   H171 1787   6.690   2.453   3.559 -0.2031 -0.9747 -0.2314
    9MOL   C172 1788   6.670   2.374   3.356  0.3515 -0.5668 -0.3708
    9MOL   C173 1789   6.525   2.408   3.358 -0.1606 -0.7400  0.6816
    9MOL  Cl174 1790   6.431   2.274   3.415 -0.3980  0.3352 -0.3176
    9MOL   C175 1791   6.479   2.534   3.335  1.0169 -0.4257 -0.1587
    9MOL   C176 1792   6.335   2.591   3.352 -0.4529 -0.1924 -0.3367
    9MOL   H177 1793   6.670   2.265   3.367  0.5519 -0.4641  0.7621
    9MOL   H178 1794   6.708   2.386   3.255  0.2792  1.3598 -0.1870
    9MOL   H179 1795   6.549   2.610   3.306  0.2423  0.8474  1.1926
    9MOL   H180 1796   6.258   2.523   3.387  0.0075 -0.8004 -0.5039
    9MOL   H181 1797   6.301   2.621   3.252 -1.6649 -0.2712  0.0465
    9MOL   C182 1798   6.337   2.711   3.451 -0.5379  0.8067 -0.3306
    9MOL   C183 1799   6.409   2.693   3.578 -0.0607 -0.5065  0.3550
    9MOL  Cl184 1800   6.351   2.557   3.661  0.2764  0.1377 -0.1162
    9MOL   C185 1801   6.498   2.781   3.628 -0.2008 -0.2586 -0.2641
    9MOL   C186 1802   6.571   2.769   3.763  0.1124 -0.1730  0.7947
    9MOL   H187 1803   6.381   2.798   3.401 -0.6908  0.9238 -0.2614
    9MOL   H188 1804   6.237   2.739   3.485 -0.2275  0.7311  0.6422
    9MOL   H189 1805   6.533   2.864   3.568 -0.6281  0.1361  0.0364
    9MOL   H190 1806   6.506   2.707   3.825 -1.7712  1.1326  0.1336
    9MOL   H191 1807   6.667   2.717   3.751  0.7288  1.2931 -0.7092
    9MOL   C192 1808   6.595   2.901   3.838  0.0504  0.3062 -0.2939
    9MOL   C193 1809   6.461   2.970   3.869  0.1467 -0.5200  0.0850
    9MOL  Cl194 1810   6.368   2.897   4.004 -0.1749 -0.1125  0.1201
    9MOL   C195 1811   6.407   3.072   3.800 -0.3268 -0.1257  0.2456
    9MOL   C196 1812   6.471   3.149   3.686 -0.1040 -0.3801 -0.2902
    9MOL   H197 1813   6.656   2.970   3.780 -1.1698  1.2793 -0.4503
    9MOL   H198 1814   6.643   2.884   3.934 -2.7107 -0.0623  1.0879
    9MOL   H199 1815   6.313   3.110   3.837  0.0160 -0.6686  1.7204
    9MOL   H200 1816   6.544   3.095   3.625  0.0642 -0.2356 -0.2179
    9MOL   H201 1817   6.532   3.231   3.722 -1.3022  0.3581  0.0815
    9MOL   H202 1818   6.388   3.175   3.620  1.8985 -0.0720 -2.7959
   10MOL     C1 1819   1.692   4.042   2.339 -0.8049  0.2594  0.1115
   10MOL     C2 1820   1.792   4.092   2.246  0.3417 -0.6103 -0.5338
   10MOL    Cl3 1821   1.823   4.258   2.270  0.0406  0.4478  0.0053
   10MOL     C4 1822   1.852   4.027   2.146  0.1607  0.0186 -0.1644
   10MOL     C5 1823   1.816   3.878   2.113  0.0909  0.2857 -0.4552
   10MOL     H6 1824   1.721   3.955   2.398  2.0961  1.4478  0.5431
   10MOL     H7 1825   1.606   4.018   2.277  0.7454  0.7466 -2.2969
   10MOL     H8 1826   1.924   4.077   2.083 -0.7516  0.3048 -0.9802
   10MOL     H9 1827   1.899   3.809   2.098 -0.6387 -0.6514 -0.2153
   10MOL    H10 1828   1.768   3.832   2.199 -0.1165  1.2179 -0.0724
   10MOL    H11 1829   1.665   4.121   2.409 -0.5202 -0.2157  0.7701
   10MOL    C12 1830   1.724   3.866   1.986  0.4505 -0.6084 -0.4369
   10MOL    C13 1831   1.667   3.729   1.964 -0.4296  1.1083  0.1817
   10MOL   Cl14 1832   1.760   3.640   1.858 -0.0561 -0.2028  0.0777
   10MOL    C15 1833   1.550   3.685   2.015 -0.7331 -0.7140  0.1313
   10MOL    C16 1834   1.455   3.761   2.103  0.4938  0.1172  0.0795
   10MOL    H17 1835   1.638   3.931   2.004  0.8919 -0.5203  1.4455
   10MOL    H18 1836   1.774   3.908   1.898 -0.6374 -1.2105 -1.3613
   10MOL    H19 1837   1.530   3.584   1.982  1.4923  0.0592 -3.7643
   10MOL    H20 1838   1.492   3.857   2.139 -1.2660  0.6180  0.6390
   10MOL    H21 1839   1.362   3.783   2.050 -0.0654  0.5371  1.2156
   10MOL    C22 1840   1.427   3.693   2.237  0.2259 -0.1096 -0.0310
   10MOL    C23 1841   1.342   3.782   2.321 -0.1682 -1.3840 -0.3775
   10MOL   Cl24 1842   1.183   3.804   2.244 -0.3419  0.1194 -0.1759
   10MOL    C25 1843   1.388   3.837   2.435 -0.1411 -1.0907 -0.2369
   10MOL    C26 1844   1.316   3.929   2.534 -0.1977  0.2921  0.0392
   10MOL    H27 1845   1.358   3.608   2.231 -1.5111  1.3178 -0.7421
   10MOL    H28 1846   1.516   3.658   2.289  1.8078  1.0475 -1.8665
   10MOL    H29 1847   1.487   3.811   2.467 -0.7358 -2.5607  0.4421
   10MOL    H30 1848   1.364   4.027   2.534  0.7541 -0.1700 -1.4767
   10MOL    H31 1849   1.213   3.951   2.506 -0.5917 -0.1555  1.0853
   10MOL    C32 1850   1.320   3.860   2.663  0.1080  0.1324  0.4664
   10MOL    C33 1851   1.248   3.934   2.776 -0.2328 -0.7923 -0.4181
   10MOL   Cl34 1852   1.349   4.062   2.858 -0.2624  0.0635 -0.0504
   10MOL    C35 1853   1.127   3.906   2.827 -0.2817  0.1543 -0.2680
   10MOL    C36 1854   1.057   3.973   2.947  0.2265  0.5863  0.6001
   10MOL    H37 1855   1.274   3.763   2.641  0.7032  0.2131 -1.2004
   10MOL    H38 1856   1.420   3.834   2.697  0.5216  0.8528 -0.2015
   10MOL    H39 1857   1.063   3.832   2.780 -1.5178  0.8244  0.3536
   10MOL    H40 1858   1.101   4.064   2.987 -0.8700  1.2580  0.3149
   10MOL    H41 1859   0.963   4.006   2.901 -2.5224 -1.4642  4.4090
   10MOL    C42 1860   1.021   3.865   3.053  0.6184 -0.2102 -0.2340
   10MOL    C43 1861   0.933   3.927   3.161 -0.7622  0.2021  0.6319
   10MOL   Cl44 1862   0.770   3.867   3.147  0.1091  0.0833 -0.2758
   10MOL    C45 1863   0.970   3.991   3.272 -0.5568 -0.3939  0.3000
   10MOL    C46 1864   1.105   4.029   3.306  0.5243  0.1031  0.1430
   10MOL    H47 1865   0.967   3.781   3.010  0.5336 -0.2343 -0.0772
   10MOL    H48 1866   1.116   3.822   3.085 -0.5930 -2.6200  0.2386
   10MOL    H49 1867   0.899   4.022   3.347 -1.2807  0.4353 -0.7198
   10MOL    H50 1868   1.144   3.974   3.392 -2.1695 -0.4783  1.0434
   10MOL    H51 1869   1.166   4.016   3.216 -0.6525 -0.9192 -0.5176
   10MOL    C52 1870   1.106   4.177   3.345 -0.0283 -0.3448  0.7632
   10MOL    C53 1871   1.242   4.233   3.397  0.6009 -0.0121  0.1362
   10MOL   Cl54 1872   1.264   4.388   3.329 -0.1683 -0.3414  0.2982
   10MOL    C55 1873   1.338   4.165   3.469  0.0193 -0.2749 -0.2030
   10MOL    C56 1874   1.477   4.208   3.497 -0.3862  0.0057  0.1460
   10MOL    H57 1875   1.075   4.233   3.257 -2.1288 -0.8020  1.1873
   10MOL    H58 1876   1.027   4.214   3.411 -2.4376  0.0917 -2.2764
   10MOL    H59 1877   1.311   4.063   3.495 -1.1205 -0.1944 -1.0172
   10MOL    H60 1878   1.495   4.307   3.541 -0.5458 -0.6400  1.6745
   10MOL    H61 1879   1.504   4.141   3.578  1.4603 -0.9124 -1.1963
   10MOL    C62 1880   1.577   4.191   3.379  0.1937  0.2071  0.3609
   10MOL    C63 1881   1.572   4.063   3.300  0.4137  0.0974 -0.3087
   10MOL   Cl64 1882   1.578   3.919   3.403  0.0008  0.0461 -0.0272
   10MOL    C65 1883   1.553   4.046   3.171 -0.0642 -0.3840  0.4866
   10MOL    C66 1884   1.551   3.905   3.107 -0.1937 -0.1364 -0.0304
   10MOL    H67 1885   1.582   4.270   3.304  0.2476  0.2462  0.4054
   10MOL    H68 1886   1.679   4.187   3.417  1.1264 -0.1081 -2.1153
   10MOL    H69 1887   1.521   4.126   3.106  1.3105 -0.8096 -0.7193
   10MOL    H70 1888   1.456   3.906   3.052  0.6499 -4.6413 -1.7810
   10MOL    H71 1889   1.553   3.820   3.175 -3.2344  1.4379  2.1687
   10MOL    C72 1890   1.662   3.888   2.991  0.1993 -0.5727  0.4809
   10MOL    C73 1891   1.653   3.778   2.888 -0.3304 -0.9220 -0.5406
   10MOL   Cl74 1892   1.532   3.658   2.912  0.1929 -0.5569  0.0331
   10MOL    C75 1893   1.725   3.770   2.777 -0.6570 -0.0389  0.3505
   10MOL    C76 1894   1.728   3.659   2.663 -0.7063 -0.5712  0.4089
   10MOL    H77 1895   1.756   3.870   3.043  1.0125  0.5327 -0.5794
   10MOL    H78 1896   1.672   3.981   2.935 -0.9260  0.2572  1.6516
   10MOL    H79 1897   1.790   3.854   2.757 -0.3006 -0.4398 -0.1922
   10MOL    H80 1898   1.685   3.696   2.570  1.2104 -1.5901 -0.9299
   10MOL    H81 1899   1.660   3.579   2.693  0.6631 -2.1392 -0.5338
   10MOL    C82 1900   1.865   3.596   2.644 -0.0481 -1.0424 -0.4067
   10MOL    C83 1901   1.870   3.496   2.530  0.4361  0.0576 -0.3943
   10MOL   Cl84 1902   1.875   3.585   2.387  0.1984  0.1527 -0.1055
   10MOL    C85 1903   1.876   3.362   2.536 -0.5657  0.0218  0.0931
   10MOL    C86 1904   1.873   3.271   2.416 -0.4901 -0.2152  0.7058
   10MOL    H87 1905   1.890   3.548   2.739 -0.7448 -0.3552  0.1275
   10MOL    H88 1906   1.941   3.673   2.630  0.0812 -1.4467 -2.0474
   10MOL    H89 1907   1.875   3.325   2.637 -0.6358  0.8180  0.3837
   10MOL    H90 1908   1.788   3.203   2.424  0.5767 -1.9612 -1.8541
   10MOL    H91 1909   1.855   3.331   2.328 -0.8213  2.1154  2.3347
   10MOL    C92 1910   2.000   3.192   2.402 -0.9173  0.1115 -0.2593
   10MOL    C93 1911   1.998   3.109   2.272 -0.0284 -0.2548  0.0111
   10MOL   Cl94 1912   1.938   2.954   2.292  0.3494 -0.0817  0.0754
   10MOL    C95 1913   2.037   3.150   2.149 -0.2106  0.7129 -0.7605
   10MOL    C96 1914   2.088   3.286   2.118 -0.2825 -0.2297 -0.2798
   10MOL    H97 1915   1.998   3.121   2.484 -1.2129  2.2036  1.5878
   10MOL    H98 1916   2.083   3.262   2.412  1.8079 -3.2843  1.8386
   10MOL    H99 1917   2.025   3.078   2.070 -0.2879 -0.1986  0.0831
   10MOL   H100 1918   2.073   3.360   2.197  1.6149  1.2765 -1.3022
   10MOL   H101 1919   2.196   3.285   2.108 -0.0973  2.3993  1.1039
   10MOL   C102 1920   2.030   3.326   1.983  0.0779  0.0223 -0.3366
   10MOL   C103 1921   2.060   3.473   1.939 -0.0908  0.6827 -0.5464
   10MOL  Cl104 1922   2.067   3.578   2.076 -0.3143 -0.3614  0.0609
   10MOL   C105 1923   2.075   3.514   1.812 -0.0140 -0.1596 -0.3578
   10MOL   C106 1924   2.104   3.654   1.769  0.0601 -0.1688 -0.6890
   10MOL   H107 1925   2.069   3.266   1.901 -0.5718  1.3460 -1.6504
   10MOL   H108 1926   1.923   3.306   1.985 -0.1960  1.4876  2.0353
   10MOL   H109 1927   2.077   3.439   1.734 -1.5330 -0.3331 -0.2409
   10MOL   H110 1928   2.033   3.728   1.808  2.2183  1.2493  0.6316
   10MOL   H111 1929   2.195   3.693   1.814 -0.4073  0.7263 -0.5047
   10MOL   C112 1930   2.126   3.671   1.608  1.1140  0.6846  0.2186
   10MOL   C113 1931   2.145   3.821   1.574 -0.4495  0.0812 -1.0610
   10MOL  Cl114 1932   2.312   3.861   1.520  0.0984  0.0101 -0.3558
   10MOL   C115 1933   2.048   3.912   1.572  1.0101  0.0023  0.1249
   10MOL   C116 1934   1.900   3.884   1.596 -0.0538 -0.1362 -0.8249
   10MOL   H117 1935   2.219   3.623   1.578  1.1582  1.0024 -0.1543
   10MOL   H118 1936   2.047   3.623   1.550  1.5198  0.3938 -0.0919
   10MOL   H119 1937   2.074   4.013   1.545  1.2538 -0.4870 -1.4677
   10MOL   H120 1938   1.871   3.974   1.651 -0.7239  0.6883 -2.4918
   10MOL   H121 1939   1.884   3.789   1.646 -0.0380 -0.0167 -0.5900
   10MOL   C122 1940   1.829   3.886   1.452 -0.6078  0.7886  0.0381
   10MOL   C123 1941   1.678   3.889   1.470 -0.2433 -0.6027  0.2213
   10MOL  Cl124 1942   1.627   3.748   1.559  0.2043  0.5159 -0.1972
   10MOL   C125 1943   1.592   3.967   1.410  0.0205  0.1409  0.0715
   10MOL   C126 1944   1.611   4.088   1.319 -0.5397  0.0446  0.7762
   10MOL   H127 1945   1.869   3.976   1.405  1.4210 -0.2536 -0.2893
   10MOL   H128 1946   1.861   3.808   1.383  0.3570  0.9201  0.3181
   10MOL   H129 1947   1.489   3.938   1.425  0.3123 -1.7625 -1.4552
   10MOL   H130 1948   1.665   4.056   1.231  1.2901  1.1157  1.4870
   10MOL   H131 1949   1.509   4.121   1.298 -0.5648  0.1479  1.0514
   10MOL   C132 1950   1.695   4.197   1.385  0.2269  0.4783  0.4302
   10MOL   C133 1951   1.678   4.335   1.327  0.0765 -0.1511  0.5099
   10MOL  Cl134 1952   1.821   4.376   1.249 -0.2299  0.1712 -0.0460
   10MOL   C135 1953   1.574   4.420   1.329  0.4110  0.4985  0.5171
   10MOL   C136 1954   1.442   4.396   1.394  0.3459  0.0893 -0.3362
   10MOL   H137 1955   1.658   4.202   1.488  2.1008  2.5734  1.0387
   10MOL   H138 1956   1.799   4.166   1.398 -0.2284 -1.2298  0.0912
   10MOL   H139 1957   1.580   4.513   1.275 -0.3517 -0.7312 -1.7078
   10MOL   H140 1958   1.375   4.424   1.313  1.0780 -0.8303 -1.2851
   10MOL   H141 1959   1.429   4.289   1.410  1.0285 -0.0322 -0.5782
   10MOL   C142 1960   1.411   4.463   1.526 -0.5971 -0.6885  0.3313
   10MOL   C143 1961   1.266   4.463   1.559 -0.4097  0.2109 -0.1338
   10MOL  Cl144 1962   1.166   4.553   1.447  0.0259 -0.5282  0.1721
   10MOL   C145 1963   1.221   4.409   1.671  0.1100  0.5523  0.2723
   10MOL   C146 1964   1.073   4.405   1.717  0.3405 -0.0481 -0.2315
   10MOL   H147 1965   1.433   4.569   1.515  0.5356 -0.8818  0.6439
   10MOL   H148 1966   1.471   4.430   1.610 -0.3832  0.1723  0.5223
   10MOL   H149 1967   1.296   4.358   1.731 -2.1619 -3.2541  0.0378
   10MOL   H150 1968   1.016   4.435   1.629  0.4975  1.7086  0.2594
   10MOL   H151 1969   1.039   4.305   1.745 -2.6731  1.6116  2.4393
   10MOL   C152 1970   1.044   4.508   1.821  0.2254 -0.1742  0.1792
   10MOL   C153 1971   1.033   4.648   1.764  1.1624  0.0179  0.1260
   10MOL  Cl154 1972   0.872   4.691   1.731 -0.5393  0.1531 -0.2726
   10MOL   C155 1973   1.142   4.730   1.744  0.1263 -0.1927  0.7655
   10MOL   C156 1974   1.129   4.872   1.697  0.4642 -0.4368 -0.0917
   10MOL   H157 1975   0.955   4.490   1.882  1.5538 -2.6304  1.4877
   10MOL   H158 1976   1.124   4.507   1.896 -0.0622 -0.1566  0.4890
   10MOL   H159 1977   1.244   4.699   1.764  1.1818  2.4388 -0.3567
   10MOL   H160 1978   1.165   4.932   1.781  0.7277 -1.9371  0.8977
   10MOL   H161 1979   1.027   4.901   1.674  1.6004  2.6484 -1.4282
   10MOL   C162 1980   1.211   4.890   1.568  0.2240  0.6928  0.3550
   10MOL   C163 1981   1.218   5.042   1.529 -0.3119  0.2546  0.3248
   10MOL  Cl164 1982   1.073   5.134   1.559 -0.4368  0.2555  0.1248
   10MOL   C165 1983   1.324   5.102   1.477  0.1162 -0.2494 -0.3933
   10MOL   C166 1984   1.342   5.240   1.428  0.0101 -0.1413  0.3621
   10MOL   H167 1985   1.308   4.845   1.588  1.1078  1.8746 -1.2006
   10MOL   H168 1986   1.168   4.829   1.487 -1.5347 -0.2598  1.9650
   10MOL   H169 1987   1.407   5.035   1.463  0.6310  0.0925  0.9318
   10MOL   H170 1988   1.343   5.250   1.320 -1.2492  0.8972  0.4331
   10MOL   H171 1989   1.258   5.299   1.465 -0.9139 -0.5767 -0.9798
   10MOL   C172 1990   1.472   5.300   1.487 -1.1588 -0.2459  0.0050
   10MOL   C173 1991   1.458   5.346   1.635  0.2818 -0.7004  0.1718
   10MOL  Cl174 1992   1.573   5.260   1.740 -0.1997  0.2952  0.1373
   10MOL   C175 1993   1.389   5.455   1.686 -0.1106 -0.4449  0.2232
   10MOL   C176 1994   1.401   5.488   1.839  0.2741  0.3924  0.0155
   10MOL   H177 1995   1.484   5.399   1.442 -3.1939 -0.3998 -0.9375
   10MOL   H178 1996   1.562   5.243   1.464  0.1172  2.0798 -0.9744
   10MOL   H179 1997   1.330   5.524   1.627  1.2090 -0.6427 -1.3658
   10MOL   H180 1998   1.389   5.596   1.845  1.4784  0.6436 -1.7873
   10MOL   H181 1999   1.500   5.462   1.874 -0.2649  0.0196  1.2934
   10MOL   C182 2000   1.298   5.418   1.932 -0.1901 -0.4397 -0.4651
   10MOL   C183 2001   1.301   5.495   2.066  0.3983 -0.5724 -0.3845
   10MOL  Cl184 2002   1.455   5.532   2.133 -0.1115  0.0309  0.4796
   10MOL   C185 2003   1.184   5.528   2.127 -0.5798 -0.0341 -0.3913
   10MOL   C186 2004   1.176   5.606   2.261  0.2901 -0.1034 -0.6743
   10MOL   H187 2005   1.198   5.419   1.888 -1.1453  3.2603  1.4860
   10MOL   H188 2006   1.326   5.314   1.944  0.3240 -0.2222  0.2443
   10MOL   H189 2007   1.086   5.505   2.088 -0.9409 -0.7027  0.8854
   10MOL   H190 2008   1.262   5.663   2.295 -0.6469  0.5971  0.5531
   10MOL   H191 2009   1.095   5.679   2.261  0.5763  0.2859 -3.5733
   10MOL   C192 2010   1.140   5.514   2.373  0.1176  0.1533 -0.6593
   10MOL   C193 2011   1.027   5.416   2.338  0.0501  0.1824  0.3311
   10MOL  Cl194 2012   1.088   5.254   2.347 -0.5863  0.0905 -0.0906
   10MOL   C195 2013   0.905   5.431   2.304  0.1208 -0.3383  0.2651
   10MOL   C196 2014   0.843   5.564   2.285  0.2089 -0.3498 -0.4245
   10MOL   H197 2015   1.134   5.556   2.474 -1.9683 -0.7644 -0.3572
   10MOL   H198 2016   1.225   5.449   2.394 -0.3336 -0.6910 -1.4012
   10MOL   H199 2017   0.852   5.339   2.283  0.2070 -0.2519 -0.3407
   10MOL   H200 2018   0.846   5.578   2.177  1.4707  1.1798 -0.1950
   10MOL   H201 2019   0.886   5.639   2.350 -0.1084  1.3150 -2.0966
   10MOL   H202 2020   0.740   5.556   2.320  0.0083 -1.0863 -1.1617
   11MOL     C1 2021   5.919   6.613   1.214  0.5921  0.3373  0.7047
   11MOL     C2 2022   5.824   6.544   1.313 -0.0988  0.2637  0.0714
   11MOL    Cl3 2023   5.656   6.557   1.257 -0.6449 -0.1131 -0.2295
   11MOL     C4 2024   5.858   6.475   1.419  0.0045  0.2348  0.6961
   11MOL     C5 2025   6.005   6.480   1.476  0.8456 -0.7477 -0.3399
   11MOL     H6 2026   5.864   6.647   1.126 -0.3839 -1.4180  0.6111
   11MOL     H7 2027   6.004   6.555   1.177  0.6244 -0.8732  2.6153
   11MOL     H8 2028   5.784   6.417   1.473 -0.7726  1.1144  0.5834
   11MOL     H9 2029   6.056   6.394   1.433 -0.0252 -1.8337  0.7624
   11MOL    H10 2030   6.064   6.567   1.445  3.8736 -1.7633  2.2786
   11MOL    H11 2031   5.971   6.691   1.270 -0.1667  1.0222  0.4572
   11MOL    C12 2032   6.003   6.468   1.633 -0.0108 -0.0201  0.4723
   11MOL    C13 2033   6.146   6.491   1.685 -0.9585 -0.7128  0.4887
   11MOL   Cl14 2034   6.269   6.398   1.610  0.1588 -0.2182  0.2050
   11MOL    C15 2035   6.177   6.563   1.793  0.1408 -0.0306  0.1652
   11MOL    C16 2036   6.090   6.631   1.895 -0.1685 -0.3656 -0.2435
   11MOL    H17 2037   5.937   6.543   1.677  0.9108  0.6746  0.6880
   11MOL    H18 2038   5.974   6.366   1.659  0.3216  0.4986  2.9878
   11MOL    H19 2039   6.283   6.569   1.813  0.2193  0.4938 -0.3947
   11MOL    H20 2040   6.082   6.735   1.862  1.2591  0.7118  2.5733
   11MOL    H21 2041   5.994   6.580   1.897 -1.0186  1.2456  2.2076
   11MOL    C22 2042   6.143   6.625   2.035 -0.3208  0.7123  0.3490
   11MOL    C23 2043   6.069   6.698   2.143  0.0836 -0.2741 -0.5806
   11MOL   Cl24 2044   5.935   6.612   2.193 -0.0666 -0.1446  0.0466
   11MOL    C25 2045   6.107   6.821   2.186  0.6836 -0.1611 -0.9115
   11MOL    C26 2046   6.041   6.922   2.288  0.1608 -0.2337  0.0322
   11MOL    H27 2047   6.162   6.521   2.058 -1.0288  0.3126 -0.8131
   11MOL    H28 2048   6.244   6.664   2.041 -0.6245  1.5175  0.4241
   11MOL    H29 2049   6.199   6.861   2.147  1.3135 -0.6918  0.0237
   11MOL    H30 2050   6.002   7.004   2.228 -1.8617 -1.1778  0.0073
   11MOL    H31 2051   5.949   6.876   2.325  0.7603 -1.6536 -0.2460
   11MOL    C32 2052   6.146   6.971   2.397  0.3293  0.1704 -0.1344
   11MOL    C33 2053   6.090   7.091   2.482  0.1259 -0.3872  0.1810
   11MOL   Cl34 2054   6.216   7.209   2.495 -0.2451 -0.0297 -0.0735
   11MOL    C35 2055   5.968   7.112   2.517  0.0113 -0.9935  0.7854
   11MOL    C36 2056   5.909   7.234   2.578 -0.0512 -0.5187  0.8569
   11MOL    H37 2057   6.179   6.894   2.467 -0.8815  0.1883  0.4589
   11MOL    H38 2058   6.243   7.000   2.355  0.3581 -0.9022 -0.8309
   11MOL    H39 2059   5.898   7.031   2.501 -0.7473 -0.1714 -0.1094
   11MOL    H40 2060   5.865   7.209   2.674 -2.2351  2.1076  0.6228
   11MOL    H41 2061   5.991   7.304   2.596  1.8810 -1.8804 -2.2300
   11MOL    C42 2062   5.799   7.297   2.485 -0.0353 -0.4676 -0.0604
   11MOL    C43 2063   5.663   7.238   2.502  0.8384  0.4879  0.6445
   11MOL   Cl44 2064   5.557   7.326   2.611  0.0041 -0.1398  0.1363
   11MOL    C45 2065   5.608   7.135   2.430  0.2826 -0.1818 -0.2413
   11MOL    C46 2066   5.675   7.054   2.320  0.6302 -0.8501 -0.2011
   11MOL    H47 2067   5.801   7.405   2.498 -0.1733 -0.7141  2.0669
   11MOL    H48 2068   5.820   7.285   2.379  2.3063  1.1043  0.1938
   11MOL    H49 2069   5.506   7.111   2.457  1.0197  0.1426  3.0264
   11MOL    H50 2070   5.774   7.086   2.288  0.2817  0.4998  0.0157
   11MOL    H51 2071   5.689   6.951   2.352  3.0576 -0.5557 -0.2860
   11MOL    C52 2072   5.577   7.065   2.202  0.4877 -0.1918 -0.8153
   11MOL    C53 2073   5.616   6.983   2.080  0.2680  0.2404 -0.1603
   11MOL   Cl54 2074   5.650   7.080   1.943 -0.0021 -0.0306 -0.0440
   11MOL    C55 2075   5.634   6.853   2.083  0.0826  0.0893  0.7108
   11MOL    C56 2076   5.683   6.765   1.970 -0.2175  0.5675  0.1309
   11MOL    H57 2077   5.484   7.029   2.248  1.0602  0.7372  1.1548
   11MOL    H58 2078   5.583   7.171   2.179  1.5493  0.6205  2.7833
   11MOL    H59 2079   5.623   6.788   2.168  0.1097 -3.0485 -1.5963
   11MOL    H60 2080   5.746   6.817   1.898 -1.8009  2.7758  0.2943
   11MOL    H61 2081   5.741   6.687   2.020 -1.8586  0.6688  2.2284
   11MOL    C62 2082   5.562   6.702   1.896  0.0374 -0.5876 -0.2778
   11MOL    C63 2083   5.599   6.595   1.791  0.6311  0.9265 -0.6323
   11MOL   Cl64 2084   5.689   6.652   1.657 -0.1454  0.0787  0.0650
   11MOL    C65 2085   5.569   6.461   1.808  0.0739 -0.2949  0.9212
   11MOL    C66 2086   5.589   6.347   1.705 -0.2038  0.7850 -0.4004
   11MOL    H67 2087   5.494   6.652   1.965  1.2152 -2.0068 -0.1083
   11MOL    H68 2088   5.517   6.786   1.843  0.0955 -1.0483 -1.0582
   11MOL    H69 2089   5.525   6.434   1.903 -0.7727 -2.6774 -0.1185
   11MOL    H70 2090   5.672   6.289   1.748 -1.2176  0.3049  0.9456
   11MOL    H71 2091   5.619   6.397   1.613 -1.7886 -0.2395 -1.5018
   11MOL    C72 2092   5.468   6.258   1.692  0.7561  0.2073  0.4922
   11MOL    C73 2093   5.500   6.141   1.602  0.7284 -0.1013 -0.1956
   11MOL   Cl74 2094   5.509   5.996   1.694  0.0381 -0.0199  0.0735
   11MOL    C75 2095   5.512   6.139   1.467  0.5017 -0.1329 -0.4293
   11MOL    C76 2096   5.543   6.022   1.382  0.1954  0.3654  0.8733
   11MOL    H77 2097   5.375   6.306   1.661 -0.6182 -2.8475 -0.3159
   11MOL    H78 2098   5.440   6.224   1.792 -0.4121 -0.0170  0.0946
   11MOL    H79 2099   5.495   6.227   1.407 -1.2350 -1.2689 -1.6591
   11MOL    H80 2100   5.442   5.993   1.354 -0.8304  3.4054  1.1362
   11MOL    H81 2101   5.594   5.954   1.450 -0.4537  1.2891  2.3138
   11MOL    C82 2102   5.620   6.048   1.256 -1.6860 -0.3645  0.3104
   11MOL    C83 2103   5.764   6.095   1.291  0.0314 -0.3696  0.5400
   11MOL   Cl84 2104   5.815   6.225   1.187 -0.1688 -0.3038  0.5129
   11MOL    C85 2105   5.851   6.039   1.377  0.0522 -0.3282  0.0972
   11MOL    C86 2106   5.992   6.080   1.410  0.2511  0.2291 -0.5998
   11MOL    H87 2107   5.562   6.122   1.202 -0.7386  0.9432  1.0627
   11MOL    H88 2108   5.631   5.962   1.189 -3.5694  1.2422 -2.1526
   11MOL    H89 2109   5.818   5.951   1.429 -0.4973  0.7770  1.6450
   11MOL    H90 2110   6.023   6.164   1.347 -2.3850  0.2696 -1.9200
   11MOL    H91 2111   5.995   6.106   1.516 -1.7623 -0.2596 -0.3971
   11MOL    C92 2112   6.095   5.965   1.377 -0.1302  1.2328 -0.4049
   11MOL    C93 2113   6.238   6.014   1.370 -0.0766 -0.6745 -0.0935
   11MOL   Cl94 2114   6.296   6.038   1.212  0.6029  0.1543  0.0052
   11MOL    C95 2115   6.318   6.043   1.473  0.2835  0.0508  0.5047
   11MOL    C96 2116   6.278   6.021   1.618  0.0560 -0.4948 -0.3747
   11MOL    H97 2117   6.080   5.921   1.278 -2.2392  2.5302 -0.6888
   11MOL    H98 2118   6.086   5.888   1.452  2.2394  0.9814 -0.3250
   11MOL    H99 2119   6.420   6.076   1.459  1.1393 -2.2419  1.1211
   11MOL   H100 2120   6.301   6.118   1.663 -0.9625  0.5619 -2.0907
   11MOL   H101 2121   6.171   6.006   1.629 -0.1447  0.4523 -1.0100
   11MOL   C102 2122   6.371   5.917   1.687 -0.2789  0.0392 -0.1694
   11MOL   C103 2123   6.356   5.896   1.836  0.9792  0.7197 -0.6781
   11MOL  Cl104 2124   6.498   5.927   1.928  0.0395  0.3011 -0.0272
   11MOL   C105 2125   6.239   5.848   1.885  0.5669 -0.0218 -0.3236
   11MOL   C106 2126   6.223   5.821   2.031  0.3432  0.0442 -0.5796
   11MOL   H107 2127   6.365   5.817   1.642  0.1733  0.2981 -0.8109
   11MOL   H108 2128   6.476   5.946   1.679  0.1630 -1.4353  0.1159
   11MOL   H109 2129   6.158   5.829   1.815  1.2651 -1.5127 -0.7574
   11MOL   H110 2130   6.276   5.898   2.087  0.7560 -0.7732  0.1747
   11MOL   H111 2131   6.119   5.845   2.052  0.7728  0.6583  0.9649
   11MOL   C112 2132   6.247   5.676   2.071  0.3188 -0.1389  0.8533
   11MOL   C113 2133   6.259   5.660   2.224 -0.1305 -0.2761 -0.1507
   11MOL  Cl114 2134   6.410   5.710   2.291  0.0581  0.4759 -0.2988
   11MOL   C115 2135   6.168   5.598   2.312  0.2824  0.1328  0.0205
   11MOL   C116 2136   6.033   5.538   2.276 -0.4797 -0.0698  0.5669
   11MOL   H117 2137   6.168   5.611   2.032  1.1531  0.0104 -1.1461
   11MOL   H118 2138   6.345   5.653   2.029  0.7579  1.2583  1.0975
   11MOL   H119 2139   6.191   5.589   2.417  2.4206  0.9002 -0.3615
   11MOL   H120 2140   6.016   5.446   2.332 -0.0778 -0.3376  0.2548
   11MOL   H121 2141   6.021   5.505   2.172 -2.0519  1.8147  0.1244
   11MOL   C122 2142   5.914   5.629   2.289 -0.5406 -0.4206 -0.1527
   11MOL   C123 2143   5.780   5.580   2.236  0.2656  0.7997  0.2038
   11MOL  Cl124 2144   5.722   5.443   2.337  0.0122  0.0152 -0.6935
   11MOL   C125 2145   5.704   5.615   2.130 -0.3888  0.7714  0.2949
   11MOL   C126 2146   5.729   5.723   2.025  0.3727  0.1417 -0.7167
   11MOL   H127 2147   5.894   5.635   2.397  2.1952  0.4486  0.3288
   11MOL   H128 2148   5.929   5.730   2.252  4.7010 -1.2787 -0.7229
   11MOL   H129 2149   5.608   5.566   2.113  0.1705 -0.1304 -0.3343
   11MOL   H130 2150   5.639   5.771   1.987 -0.5839 -0.3745  0.8437
   11MOL   H131 2151   5.788   5.798   2.078  0.5910  0.2065 -1.0508
   11MOL   C132 2152   5.821   5.665   1.917  0.0014 -0.1903  0.4096
   11MOL   C133 2153   5.760   5.560   1.825 -0.0385  0.6116  0.3486
   11MOL  Cl134 2154   5.665   5.627   1.692 -0.1850  0.2205 -0.7203
   11MOL   C135 2155   5.771   5.426   1.839  0.1008  0.4184 -0.3511
   11MOL   C136 2156   5.843   5.341   1.945  0.0726 -0.0472 -0.7710
   11MOL   H137 2157   5.856   5.752   1.861 -1.2804  0.6639  0.9279
   11MOL   H138 2158   5.907   5.621   1.968 -1.3688 -4.4181 -0.7301
   11MOL   H139 2159   5.716   5.381   1.758 -0.4308 -0.0179  0.2487
   11MOL   H140 2160   5.904   5.403   2.010  0.5657 -0.8920 -0.4292
   11MOL   H141 2161   5.777   5.284   2.010 -2.8902  3.1791 -0.7784
   11MOL   C142 2162   5.949   5.255   1.889 -0.3991  0.5269  0.1908
   11MOL   C143 2163   6.012   5.143   1.975  0.1716 -0.3651 -0.7710
   11MOL  Cl144 2164   6.101   5.037   1.881  0.0386  0.0218  0.0892
   11MOL   C145 2165   5.994   5.131   2.107  0.3871  0.0248 -0.4813
   11MOL   C146 2166   6.064   5.033   2.202  0.0679  0.5708  0.1681
   11MOL   H147 2167   6.037   5.317   1.873  0.7329 -1.0553  0.1570
   11MOL   H148 2168   5.900   5.205   1.805 -0.7911  1.7694 -0.3227
   11MOL   H149 2169   5.920   5.189   2.162 -1.0689 -2.5941  0.4112
   11MOL   H150 2170   5.994   4.977   2.265 -0.8923  1.9191  0.3203
   11MOL   H151 2171   6.122   4.963   2.141  0.2807  0.5582  0.3827
   11MOL   C152 2172   6.157   5.104   2.304  0.0913  0.2973 -0.1227
   11MOL   C153 2173   6.282   5.156   2.230  0.2294  0.2289 -0.7189
   11MOL  Cl154 2174   6.419   5.056   2.273 -0.1935  0.0022 -0.0112
   11MOL   C155 2175   6.292   5.262   2.146  0.5380 -0.0214 -0.1138
   11MOL   C156 2176   6.422   5.307   2.078  0.4184 -0.0235  0.0216
   11MOL   H157 2177   6.094   5.184   2.342  1.6746  1.3209  0.4029
   11MOL   H158 2178   6.185   5.047   2.393  2.2888  3.0394  1.0229
   11MOL   H159 2179   6.208   5.327   2.131 -0.4696 -1.4610 -0.8143
   11MOL   H160 2180   6.508   5.245   2.103  0.1265 -0.3449  0.2315
   11MOL   H161 2181   6.468   5.397   2.119  1.7552 -0.5331 -0.3264
   11MOL   C162 2182   6.406   5.331   1.926  0.7060  0.6991 -0.1824
   11MOL   C163 2183   6.539   5.390   1.883 -0.3033  0.6845  0.3981
   11MOL  Cl164 2184   6.646   5.257   1.856 -0.1857  0.1111  0.0422
   11MOL   C165 2185   6.575   5.517   1.864 -0.9374 -0.4703  0.4822
   11MOL   C166 2186   6.719   5.558   1.815  0.9612 -1.0078 -0.0528
   11MOL   H167 2187   6.400   5.236   1.872  0.9048  1.3126 -1.3054
   11MOL   H168 2188   6.320   5.394   1.902  0.9359  0.0263 -3.0337
   11MOL   H169 2189   6.510   5.602   1.882 -1.0175 -0.1210 -1.3490
   11MOL   H170 2190   6.744   5.635   1.888 -0.9203 -2.1926  1.8905
   11MOL   H171 2191   6.796   5.486   1.841  2.6448  1.3766  1.7424
   11MOL   C172 2192   6.734   5.592   1.662 -0.1608 -0.2644 -0.2467
   11MOL   C173 2193   6.877   5.630   1.624 -0.3497  0.2686  0.2063
   11MOL  Cl174 2194   6.932   5.529   1.501 -0.5075  0.0583 -0.1539
   11MOL   C175 2195   6.940   5.735   1.678 -0.3866 -0.1731  0.0051
   11MOL   C176 2196   7.080   5.780   1.651  0.0399  0.2612 -0.0290
   11MOL   H177 2197   6.665   5.673   1.636 -1.1200 -0.6189  1.1154
   11MOL   H178 2198   6.698   5.510   1.600 -0.5827 -0.2197 -0.0671
   11MOL   H179 2199   6.890   5.790   1.756 -0.6142 -1.4963  0.8058
   11MOL   H180 2200   7.116   5.705   1.580  0.2942 -0.7177  1.1334
   11MOL   H181 2201   7.131   5.774   1.747 -1.8634 -1.9471  0.8731
   11MOL   C182 2202   7.081   5.925   1.599  0.1931 -0.7680 -0.2439
   11MOL   C183 2203   7.218   5.987   1.575 -0.0870 -0.3224  0.3375
   11MOL  Cl184 2204   7.207   6.109   1.451 -0.3180  0.3358 -0.0242
   11MOL   C185 2205   7.337   5.956   1.628  0.7655 -0.6129  0.3402
   11MOL   C186 2206   7.472   6.017   1.607 -0.1982  0.1717 -0.6649
   11MOL   H187 2207   7.035   5.932   1.500  0.8824  4.6897 -0.3242
   11MOL   H188 2208   7.021   5.986   1.667  0.0644 -2.1933  0.9435
   11MOL   H189 2209   7.335   5.879   1.704  0.4521 -0.7419  0.2001
   11MOL   H190 2210   7.473   6.105   1.543 -0.1423  0.3919 -0.3669
   11MOL   H191 2211   7.502   6.058   1.704 -1.1946 -1.5586  0.4041
   11MOL   C192 2212   7.578   5.926   1.539 -0.6930  0.0794 -0.1010
   11MOL   C193 2213   7.721   5.981   1.519  0.4039  0.5987  0.4233
   11MOL  Cl194 2214   7.751   6.063   1.363 -0.0180  0.0982  0.1979
   11MOL   C195 2215   7.816   5.975   1.614  0.8389 -0.3176  0.0616
   11MOL   C196 2216   7.787   5.910   1.753 -0.1663 -0.2806  0.1608
   11MOL   H197 2217   7.552   5.899   1.436  2.7973 -2.2118 -0.4878
   11MOL   H198 2218   7.594   5.834   1.595  0.7194  0.0758 -0.4851
   11MOL   H199 2219   7.916   6.013   1.597  0.1920  1.2442 -0.3790
   11MOL   H200 2220   7.828   5.809   1.758  0.3829 -0.0051  1.3806
   11MOL   H201 2221   7.681   5.905   1.776  0.1892 -0.6059  1.7357
   11MOL   H202 2222   7.829   5.956   1.842 -1.0416 -0.8768  0.8895
   12MOL     C1 2223   0.031   5.382   3.184 -0.0880 -0.5740 -0.4883
   12MOL     C2 2224   0.069   5.514   3.244 -0.1664  0.6750  0.9758
   12MOL    Cl3 2225   0.096   5.632   3.123  0.0966 -0.0775 -0.1448
   12MOL     C4 2226   0.084   5.540   3.376  0.3323 -0.7008 -0.1883
   12MOL     C5 2227   0.053   5.439   3.485  0.8524  0.6649 -0.2694
   12MOL     H6 2228   8.350   5.366   3.219  0.3814 -2.3668  0.1117
   12MOL     H7 2229   0.093   5.299   3.219  1.7501  0.7712 -0.4654
   12MOL     H8 2230   0.120   5.636   3.410  0.0319 -0.7696  0.3230
   12MOL     H9 2231   0.039   5.348   3.427 -0.8582  1.1562 -0.6515
   12MOL    H10 2232   0.131   5.424   3.559  0.4007  1.2763  0.3374
   12MOL    H11 2233   0.030   5.385   3.075  0.3706 -0.3250 -0.4877
   12MOL    C12 2234   8.340   5.470   3.560 -0.5571  0.5373  0.6714
   12MOL    C13 2235   8.311   5.364   3.669  0.0451  0.0000 -0.1445
   12MOL   Cl14 2236   8.374   5.419   3.820 -0.1306 -0.0502 -0.3066
   12MOL    C15 2237   8.236   5.256   3.650  0.4326  0.2234  0.2286
   12MOL    C16 2238   8.162   5.207   3.526  0.0990 -0.3155  0.6488
   12MOL    H17 2239   8.347   5.570   3.603  0.5872  0.1673  1.3892
   12MOL    H18 2240   8.255   5.477   3.492  0.0669 -0.9448 -0.3008
   12MOL    H19 2241   8.216   5.189   3.733  1.4818  0.8158  0.9719
   12MOL    H20 2242   8.178   5.284   3.450  0.9063 -0.3819  0.7419
   12MOL    H21 2243   8.202   5.113   3.490 -3.6868 -1.2167 -1.3996
   12MOL    C22 2244   8.010   5.197   3.559 -0.3850 -0.2941 -0.5925
   12MOL    C23 2245   7.925   5.146   3.446  0.1179  0.2912  0.3054
   12MOL   Cl24 2246   7.830   5.004   3.483  0.1752 -0.2889  0.2898
   12MOL    C25 2247   7.909   5.209   3.330  0.0468 -0.3533  0.5950
   12MOL    C26 2248   7.813   5.180   3.219  0.3408 -0.7744 -0.4822
   12MOL    H27 2249   8.008   5.127   3.643  0.0076 -0.9322 -1.1066
   12MOL    H28 2250   7.969   5.291   3.595  0.5578 -0.4994  1.1130
   12MOL    H29 2251   7.964   5.301   3.315 -1.9480  0.5970 -1.2042
   12MOL    H30 2252   7.833   5.249   3.137  1.2899 -1.4792 -0.8557
   12MOL    H31 2253   7.820   5.076   3.190  1.4069 -0.8250 -0.0599
   12MOL    C32 2254   7.672   5.206   3.270  0.0932 -0.0514 -0.5156
   12MOL    C33 2255   7.560   5.220   3.170 -0.4866 -0.9519 -0.7456
   12MOL   Cl34 2256   7.539   5.069   3.090  0.2699 -0.1490  0.1760
   12MOL    C35 2257   7.482   5.331   3.153  0.2026  0.3221  0.1909
   12MOL    C36 2258   7.357   5.344   3.065 -0.4117  0.4399 -0.1265
   12MOL    H37 2259   7.646   5.130   3.343  0.1479 -1.0722 -1.5504
   12MOL    H38 2260   7.658   5.295   3.332 -2.2803  0.4222 -1.6424
   12MOL    H39 2261   7.503   5.422   3.208 -0.1430  0.4989  0.0312
   12MOL    H40 2262   7.349   5.262   2.995  1.5838  0.9575 -0.9931
   12MOL    H41 2263   7.271   5.335   3.131  0.2039 -1.0399  0.5080
   12MOL    C42 2264   7.352   5.478   2.993 -0.5966 -0.0258  0.2603
   12MOL    C43 2265   7.230   5.495   2.897  0.6878 -0.4649 -0.0502
   12MOL   Cl44 2266   7.112   5.594   2.974 -0.0122 -0.1869  0.1584
   12MOL    C45 2267   7.219   5.444   2.768 -0.1365  0.3902 -0.1944
   12MOL    C46 2268   7.329   5.368   2.694  0.0373  0.1065  0.6209
   12MOL    H47 2269   7.354   5.556   3.069 -3.8462 -0.7473  1.1245
   12MOL    H48 2270   7.449   5.490   2.944 -1.0735  2.1769 -0.1957
   12MOL    H49 2271   7.133   5.458   2.705 -0.2443 -1.2486 -0.4295
   12MOL    H50 2272   7.422   5.378   2.749  0.7035 -2.5005  0.0284
   12MOL    H51 2273   7.312   5.261   2.692  2.3150 -0.2458 -2.8387
   12MOL    C52 2274   7.357   5.424   2.549  0.6737  0.5732 -0.0564
   12MOL    C53 2275   7.492   5.378   2.498 -0.8484 -0.5450 -0.1799
   12MOL   Cl54 2276   7.563   5.512   2.411 -0.2044 -0.2833  0.4274
   12MOL    C55 2277   7.545   5.257   2.493 -0.2185  0.6802  0.0751
   12MOL    C56 2278   7.684   5.229   2.433  0.5063 -0.8697 -0.7355
   12MOL    H57 2279   7.275   5.382   2.489  1.3671 -1.3413  0.2866
   12MOL    H58 2280   7.347   5.532   2.542 -0.8866  0.3752 -1.2374
   12MOL    H59 2281   7.496   5.168   2.531  3.0930  0.4894  4.2694
   12MOL    H60 2282   7.740   5.318   2.405 -2.5145  1.3547 -0.0129
   12MOL    H61 2283   7.753   5.184   2.504 -0.9748 -1.4700  0.3507
   12MOL    C62 2284   7.690   5.134   2.316 -0.3919 -0.6489 -0.1168
   12MOL    C63 2285   7.670   4.987   2.357 -0.1377  0.0490 -0.3665
   12MOL   Cl64 2286   7.660   4.888   2.212 -0.0869  0.4391 -0.1220
   12MOL    C65 2287   7.685   4.926   2.478 -0.2460 -0.0495  0.3301
   12MOL    C66 2288   7.684   4.774   2.508 -0.1364 -0.1902 -0.5336
   12MOL    H67 2289   7.634   5.163   2.227 -0.1320  0.0398 -0.0495
   12MOL    H68 2290   7.793   5.155   2.289 -1.3189  1.8989 -1.8966
   12MOL    H69 2291   7.696   4.982   2.569 -1.3286  0.4652  0.1394
   12MOL    H70 2292   7.789   4.753   2.530 -0.0328  0.4736 -0.3681
   12MOL    H71 2293   7.656   4.720   2.418  0.8854  1.3346 -1.7695
   12MOL    C72 2294   7.590   4.738   2.627 -0.1187 -0.3240 -0.3523
   12MOL    C73 2295   7.442   4.765   2.604 -0.7828 -0.0069  0.2115
   12MOL   Cl74 2296   7.399   4.791   2.437 -0.0323 -0.0166  0.1322
   12MOL    C75 2297   7.353   4.786   2.705  0.3137  0.0813 -0.1855
   12MOL    C76 2298   7.202   4.816   2.686 -0.8820 -0.1269  0.0104
   12MOL    H77 2299   7.627   4.788   2.716 -1.3957  0.5646 -0.2997
   12MOL    H78 2300   7.613   4.633   2.645  2.7313  0.2822 -0.2212
   12MOL    H79 2301   7.390   4.776   2.806  0.2040 -0.9222 -0.2331
   12MOL    H80 2302   7.160   4.717   2.704  1.5640 -1.2197  0.0178
   12MOL    H81 2303   7.186   4.827   2.578 -0.6556  0.1429  0.0014
   12MOL    C82 2304   7.137   4.928   2.765 -0.6196 -0.4491  0.1493
   12MOL    C83 2305   7.129   4.893   2.916  0.0953 -0.0325 -0.3691
   12MOL   Cl84 2306   7.211   5.011   3.012 -0.3754 -0.1289  0.0398
   12MOL    C85 2307   7.073   4.787   2.972  0.7726  0.3959  0.1126
   12MOL    C86 2308   7.067   4.757   3.117 -0.4383 -0.7839  0.5213
   12MOL    H87 2309   7.035   4.945   2.729 -0.4402  1.6835  0.5814
   12MOL    H88 2310   7.167   5.028   2.734 -0.6276 -0.2398  0.8195
   12MOL    H89 2311   7.031   4.713   2.906  0.1543  1.4288 -0.6775
   12MOL    H90 2312   7.108   4.657   3.128  0.2300 -0.5733 -0.0107
   12MOL    H91 2313   7.130   4.824   3.176  0.7151 -1.2400 -0.1843
   12MOL    C92 2314   6.922   4.759   3.167  0.3231 -0.3865 -0.2485
   12MOL    C93 2315   6.834   4.650   3.111 -0.2750  0.0140  0.5605
   12MOL   Cl94 2316   6.882   4.488   3.162 -0.2161 -0.3033  0.0928
   12MOL    C95 2317   6.727   4.674   3.035 -0.8062 -0.0550 -0.0054
   12MOL    C96 2318   6.665   4.801   2.977  0.0741 -0.3881 -0.7281
   12MOL    H97 2319   6.868   4.852   3.151  0.8714  0.0641  0.4689
   12MOL    H98 2320   6.923   4.746   3.276 -0.5690 -0.1985 -0.2186
   12MOL    H99 2321   6.667   4.590   3.003 -0.3114 -1.2182  2.0715
   12MOL   H100 2322   6.558   4.801   2.997  0.1140 -2.2786 -0.3666
   12MOL   H101 2323   6.693   4.898   3.016 -2.2064  0.1399 -0.3046
   12MOL   C102 2324   6.692   4.811   2.825 -0.2906  0.4770  0.4038
   12MOL   C103 2325   6.646   4.938   2.763  0.1579  1.0928 -0.9972
   12MOL  Cl104 2326   6.773   5.059   2.754 -0.0492 -0.2324  0.2482
   12MOL   C105 2327   6.519   4.966   2.716 -0.4442  0.7614 -0.1267
   12MOL   C106 2328   6.464   5.092   2.649  0.2589 -0.1875  0.0095
   12MOL   H107 2329   6.800   4.816   2.810 -0.5094  0.3104 -1.2387
   12MOL   H108 2330   6.665   4.720   2.772 -0.5137  0.5822  0.3387
   12MOL   H109 2331   6.444   4.889   2.709 -0.6349  0.9074  0.3306
   12MOL   H110 2332   6.543   5.162   2.619  0.4190 -0.6635 -0.6845
   12MOL   H111 2333   6.407   5.051   2.566  0.5721 -0.9842  0.1830
   12MOL   C112 2334   6.383   5.171   2.748 -0.1414  0.0724 -0.2368
   12MOL   C113 2335   6.336   5.305   2.692  0.6626  0.5912 -0.3700
   12MOL  Cl114 2336   6.195   5.290   2.590 -0.2122 -0.4646 -0.1779
   12MOL   C115 2337   6.393   5.424   2.716 -0.3174  0.4334 -0.1881
   12MOL   C116 2338   6.517   5.442   2.804  0.0542 -0.2008 -0.3335
   12MOL   H117 2339   6.292   5.115   2.769  0.1122 -0.6643 -1.0728
   12MOL   H118 2340   6.436   5.186   2.842  0.2952 -1.9037 -0.1464
   12MOL   H119 2341   6.348   5.512   2.673 -0.4030  1.3387  1.7236
   12MOL   H120 2342   6.571   5.349   2.821  0.1734 -0.6287 -2.8976
   12MOL   H121 2343   6.493   5.488   2.900  2.4860  0.5743 -0.0558
   12MOL   C122 2344   6.604   5.548   2.735 -0.0938 -0.2080  0.3599
   12MOL   C123 2345   6.738   5.551   2.801  0.4451  0.4361  0.0970
   12MOL  Cl124 2346   6.845   5.438   2.727  0.3061 -0.4392  0.1203
   12MOL   C125 2347   6.782   5.646   2.890  0.4012  0.9389 -0.1699
   12MOL   C126 2348   6.692   5.750   2.947  1.3291 -0.3498 -0.0024
   12MOL   H127 2349   6.632   5.516   2.635  3.4472  1.0331  0.9044
   12MOL   H128 2350   6.559   5.646   2.718  0.4911 -0.1122 -0.6723
   12MOL   H129 2351   6.884   5.637   2.922 -0.0578  1.2782  1.4278
   12MOL   H130 2352   6.732   5.849   2.928 -0.0430 -0.1524 -2.0157
   12MOL   H131 2353   6.595   5.738   2.897  0.4670  2.1277  0.9920
   12MOL   C132 2354   6.664   5.741   3.098 -0.2941 -0.3314 -0.8137
   12MOL   C133 2355   6.787   5.737   3.189 -0.1604  0.6414 -0.2014
   12MOL  Cl134 2356   6.817   5.581   3.255  0.1591 -0.2114 -0.4300
   12MOL   C135 2357   6.861   5.841   3.237 -0.4524 -0.5494  0.5556
   12MOL   C136 2358   6.841   5.984   3.189  0.2326 -0.3517  0.0759
   12MOL   H137 2359   6.594   5.817   3.136 -0.6250 -1.2573  0.4756
   12MOL   H138 2360   6.614   5.645   3.110 -2.8369  0.9991 -0.2877
   12MOL   H139 2361   6.943   5.831   3.306  0.3148  0.1114 -0.2558
   12MOL   H140 2362   6.759   5.996   3.119  0.5871 -2.2433 -0.6682
   12MOL   H141 2363   6.814   6.054   3.269  2.7658 -3.9395  4.3014
   12MOL   C142 2364   6.974   6.035   3.120 -0.0826 -0.4401 -0.4613
   12MOL   C143 2365   6.973   6.170   3.050  0.6454  0.2060  0.2027
   12MOL  Cl144 2366   7.056   6.155   2.893 -0.2384  0.0231 -0.1141
   12MOL   C145 2367   6.913   6.276   3.103 -0.4133  0.4853  0.2015
   12MOL   C146 2368   6.908   6.413   3.034  0.4515 -0.0847 -0.4145
   12MOL   H147 2369   6.978   5.959   3.042  0.0857  0.6378 -1.5258
   12MOL   H148 2370   7.069   6.016   3.170 -0.4683 -0.1788  0.3802
   12MOL   H149 2371   6.865   6.270   3.199  1.1607 -1.0016  0.9305
   12MOL   H150 2372   6.909   6.482   3.119 -5.0114 -1.0185  0.6005
   12MOL   H151 2373   6.993   6.424   2.967  0.7248 -0.4509 -0.1294
   12MOL   C152 2374   6.774   6.433   2.966 -0.6725  0.2121  0.9170
   12MOL   C153 2375   6.702   6.555   3.020  0.7335  0.3726  0.0395
   12MOL  Cl154 2376   6.761   6.708   2.963 -0.5540  0.2039 -0.2253
   12MOL   C155 2377   6.594   6.549   3.101  0.2778 -0.6310 -0.3743
   12MOL   C156 2378   6.526   6.674   3.160 -0.2681 -0.3998 -0.5349
   12MOL   H157 2379   6.773   6.454   2.859 -0.3110  1.9396  1.2317
   12MOL   H158 2380   6.714   6.345   2.988  0.3452 -1.0907 -1.3851
   12MOL   H159 2381   6.560   6.451   3.128 -1.5533  0.4522  1.3797
   12MOL   H160 2382   6.420   6.652   3.150 -0.0730 -1.8524  0.4533
   12MOL   H161 2383   6.543   6.762   3.098  1.0146  0.5803  1.1727
   12MOL   C162 2384   6.579   6.689   3.305 -0.3207  0.3812  0.8082
   12MOL   C163 2385   6.516   6.793   3.385  0.1862 -0.8449  0.3071
   12MOL  Cl164 2386   6.634   6.894   3.455  0.2870  0.1145  0.0087
   12MOL   C165 2387   6.383   6.819   3.387 -0.3325  0.0097  0.3004
   12MOL   C166 2388   6.316   6.940   3.468  0.6961  0.0576 -0.0109
   12MOL   H167 2389   6.557   6.594   3.353 -0.4826 -0.1848 -0.3688
   12MOL   H168 2390   6.688   6.698   3.307 -0.1383 -1.6825  0.8631
   12MOL   H169 2391   6.311   6.763   3.329  0.4829  0.3492 -1.0702
   12MOL   H170 2392   6.383   7.021   3.495 -0.0127  0.3907  0.7670
   12MOL   H171 2393   6.247   6.990   3.399  0.0510  0.3643  0.8535
   12MOL   C172 2394   6.228   6.892   3.588  0.1449 -0.2352  0.2191
   12MOL   C173 2395   6.112   6.996   3.606 -0.1253 -0.3196  0.0362
   12MOL  Cl174 2396   6.164   7.127   3.709 -0.1352 -0.2440 -0.1548
   12MOL   C175 2397   5.989   6.982   3.552  0.4198  0.0688  0.0328
   12MOL   C176 2398   5.880   7.089   3.563 -0.4783  0.4181  0.0885
   12MOL   H177 2399   6.287   6.882   3.679  1.6288 -1.6249 -0.8654
   12MOL   H178 2400   6.187   6.791   3.578 -0.9941  0.3488 -0.9995
   12MOL   H179 2401   5.964   6.892   3.497 -1.5108 -0.1926  1.2954
   12MOL   H180 2402   5.922   7.172   3.620  0.4776 -0.2034  0.3039
   12MOL   H181 2403   5.794   7.045   3.614 -0.0568 -0.9072 -0.3293
   12MOL   C182 2404   5.832   7.150   3.427  0.0662  0.7613 -0.3014
   12MOL   C183 2405   5.955   7.212   3.351  0.1597  0.3053 -0.1214
   12MOL  Cl184 2406   6.009   7.109   3.221  0.1699  0.0895 -0.0078
   12MOL   C185 2407   6.016   7.329   3.378  0.0131  0.1782  0.6034
   12MOL   C186 2408   6.147   7.372   3.307 -0.0350 -0.5574 -0.2756
   12MOL   H187 2409   5.778   7.075   3.369 -0.8035 -1.0788  2.7769
   12MOL   H188 2410   5.760   7.231   3.441  1.1663  1.9643 -1.4059
   12MOL   H189 2411   5.986   7.393   3.459  1.2478  1.2561  0.2334
   12MOL   H190 2412   6.159   7.331   3.207  1.0102 -0.5515 -0.1494
   12MOL   H191 2413   6.154   7.481   3.303  0.3007 -0.6334 -2.2041
   12MOL   C192 2414   6.271   7.333   3.396  0.4661  0.7525 -0.1786
   12MOL   C193 2415   6.403   7.335   3.313  0.0041 -0.5495 -0.5546
   12MOL  Cl194 2416   6.482   7.181   3.297  0.1544 -0.4240 -0.0807
   12MOL   C195 2417   6.463   7.449   3.259  0.6219 -0.0031 -0.4760
   12MOL   C196 2418   6.413   7.593   3.276  0.0108  0.4022  0.3824
   12MOL   H197 2419   6.261   7.232   3.436 -0.0246  1.0316  0.4139
   12MOL   H198 2420   6.289   7.394   3.484 -0.1517  1.6366 -0.6532
   12MOL   H199 2421   6.556   7.447   3.204  1.9031  1.9932  1.5622
   12MOL   H200 2422   6.496   7.663   3.273  0.0337  0.3006 -1.4446
   12MOL   H201 2423   6.354   7.608   3.367  0.4024 -0.1911  0.7344
   12MOL   H202 2424   6.343   7.627   3.199  1.2563  1.5397 -0.2713
   13MOL     C1 2425   2.041   3.561   7.601  0.4460 -0.7143  0.8610
   13MOL     C2 2426   2.138   3.676   7.609 -0.4456  0.0611 -0.1984
   13MOL    Cl3 2427   2.275   3.637   7.706 -0.1248  0.1645 -0.2785
   13MOL     C4 2428   2.107   3.800   7.567 -0.0958 -0.8013  0.3793
   13MOL     C5 2429   1.974   3.827   7.499 -0.0828 -0.9372  0.5442
   13MOL     H6 2430   1.966   3.588   7.675  0.0106 -2.5988  1.1215
   13MOL     H7 2431   2.084   3.464   7.624 -1.0854 -1.3386  1.1284
   13MOL     H8 2432   2.178   3.880   7.577 -2.5034  1.4771 -0.3481
   13MOL     H9 2433   1.987   3.819   7.391 -0.0772 -0.0385  0.4689
   13MOL    H10 2434   1.910   3.741   7.517  0.8622 -1.7995 -0.1405
   13MOL    H11 2435   1.992   3.565   7.503 -1.4282  2.4669  1.8504
   13MOL    C12 2436   1.900   3.945   7.549 -0.3340 -0.0021 -0.1192
   13MOL    C13 2437   1.789   3.979   7.456 -0.1603 -0.0904  0.1502
   13MOL   Cl14 2438   1.631   3.952   7.517 -0.4066 -0.0746  0.1637
   13MOL    C15 2439   1.805   4.017   7.327  0.3358 -1.0835  0.2800
   13MOL    C16 2440   1.937   4.052   7.270  0.1149  0.1280  0.0043
   13MOL    H17 2441   1.872   3.920   7.652 -0.3031  2.2619  0.4763
   13MOL    H18 2442   1.967   4.031   7.563 -0.5236  0.2570 -0.8016
   13MOL    H19 2443   1.717   4.024   7.265  1.0606 -0.8315 -0.7131
   13MOL    H20 2444   1.954   4.160   7.272  0.6861  0.1049 -1.8812
   13MOL    H21 2445   2.017   4.016   7.334  0.1819 -0.1030 -0.2085
   13MOL    C22 2446   1.951   3.982   7.132  0.1705  0.1353  0.1731
   13MOL    C23 2447   2.071   4.017   7.048 -0.1010  0.4302 -0.3376
   13MOL   Cl24 2448   2.022   4.017   6.878  0.3213  0.1027 -0.0216
   13MOL    C25 2449   2.195   4.047   7.092  0.5375 -0.0292  0.3564
   13MOL    C26 2450   2.314   4.093   7.013  0.3180  0.3401 -0.0619
   13MOL    H27 2451   1.949   3.875   7.156 -1.7241  0.5265  1.9747
   13MOL    H28 2452   1.870   4.015   7.067  1.2179  1.9174 -0.2345
   13MOL    H29 2453   2.209   4.055   7.198  2.3654 -0.8678  0.1932
   13MOL    H30 2454   2.395   4.027   7.042 -0.1915  0.7596  2.4625
   13MOL    H31 2455   2.289   4.076   6.909 -0.7785  1.2293  0.0390
   13MOL    C32 2456   2.358   4.240   7.041 -0.1846  0.8146  0.7159
   13MOL    C33 2457   2.450   4.298   6.931  0.7648 -0.3005 -1.0734
   13MOL   Cl34 2458   2.384   4.447   6.873 -0.0022 -0.1086 -0.0002
   13MOL    C35 2459   2.572   4.249   6.893  0.0235  0.8246 -0.4405
   13MOL    C36 2460   2.671   4.308   6.796  0.5899 -0.3874  0.3893
   13MOL    H37 2461   2.268   4.301   7.049 -1.0764 -0.3201 -0.3087
   13MOL    H38 2462   2.409   4.253   7.136  1.2027  0.5380  0.0200
   13MOL    H39 2463   2.598   4.153   6.935 -0.8383  0.3579 -0.9594
   13MOL    H40 2464   2.647   4.409   6.764  1.3015 -0.2576  0.2567
   13MOL    H41 2465   2.759   4.321   6.858  1.9578  1.7792 -1.9209
   13MOL    C42 2466   2.725   4.198   6.693  0.7658 -0.2572 -0.1309
   13MOL    C43 2467   2.823   4.254   6.599 -0.3331 -0.0946 -0.6783
   13MOL   Cl44 2468   2.754   4.386   6.505  0.1817 -0.1640 -0.1366
   13MOL    C45 2469   2.953   4.219   6.580  0.0103 -0.4390  0.2063
   13MOL    C46 2470   3.031   4.125   6.674 -0.2390 -0.5210 -0.7601
   13MOL    H47 2471   2.759   4.104   6.738  0.5068 -0.2457  0.0928
   13MOL    H48 2472   2.637   4.161   6.640 -1.0604 -2.1601  3.9682
   13MOL    H49 2473   3.009   4.269   6.502  0.7281 -2.1271 -0.3852
   13MOL    H50 2474   3.023   4.158   6.777 -0.6758  0.3538 -1.0725
   13MOL    H51 2475   2.978   4.030   6.664 -1.5330  0.2919 -1.7710
   13MOL    C52 2476   3.174   4.103   6.630  0.3594 -0.5492  0.3694
   13MOL    C53 2477   3.237   3.988   6.706 -0.8362 -0.0502 -0.5357
   13MOL   Cl54 2478   3.301   3.862   6.601 -0.3228  0.1786  0.0602
   13MOL    C55 2479   3.251   3.986   6.841  0.4165  0.0940 -0.2160
   13MOL    C56 2480   3.310   3.870   6.920  0.6036  0.2290 -0.3599
   13MOL    H57 2481   3.163   4.061   6.530 -3.6773 -0.8738  0.8669
   13MOL    H58 2482   3.224   4.200   6.633  0.2099 -0.3775 -1.7342
   13MOL    H59 2483   3.213   4.068   6.900 -0.0632  0.9312 -1.6665
   13MOL    H60 2484   3.299   3.777   6.864 -0.0625 -0.4826  0.9276
   13MOL    H61 2485   3.415   3.895   6.931 -0.1032  2.4899  1.7129
   13MOL    C62 2486   3.244   3.857   7.057 -0.0098  0.4050 -0.1248
   13MOL    C63 2487   3.287   3.735   7.139 -0.6701 -1.0843  0.6460
   13MOL   Cl64 2488   3.446   3.741   7.201 -0.1050 -0.0726  0.1195
   13MOL    C65 2489   3.207   3.632   7.169 -0.5514 -0.6822 -0.0419
   13MOL    C66 2490   3.262   3.511   7.249  0.4167 -0.1457  1.0597
   13MOL    H67 2491   3.268   3.940   7.124  1.8791  0.9133 -1.3804
   13MOL    H68 2492   3.135   3.852   7.046 -0.0724  0.0561  0.6578
   13MOL    H69 2493   3.106   3.633   7.130 -1.5495  4.1030  2.3277
   13MOL    H70 2494   3.223   3.527   7.349  0.9556  1.1668  1.0724
   13MOL    H71 2495   3.370   3.502   7.257  0.3543 -0.0312  2.0346
   13MOL    C72 2496   3.213   3.383   7.195 -0.4693 -0.5874  0.1848
   13MOL    C73 2497   3.245   3.256   7.275 -0.3101  0.2370  0.0754
   13MOL   Cl74 2498   3.185   3.115   7.198 -0.1957  0.4010  0.7160
   13MOL    C75 2499   3.306   3.249   7.393 -0.5072 -0.8564 -0.3367
   13MOL    C76 2500   3.333   3.131   7.481 -0.0733  0.4109 -0.3803
   13MOL    H77 2501   3.269   3.354   7.106  1.3697 -4.0330  2.3386
   13MOL    H78 2502   3.107   3.389   7.171 -0.0491  0.6944 -1.3835
   13MOL    H79 2503   3.337   3.346   7.429 -0.9039 -0.2490 -1.5864
   13MOL    H80 2504   3.276   3.046   7.442 -0.4124 -0.4168  1.8614
   13MOL    H81 2505   3.294   3.153   7.580  2.7706  3.0109  0.2074
   13MOL    C82 2506   3.494   3.106   7.485  0.1845 -0.1701  0.2694
   13MOL    C83 2507   3.522   3.015   7.597 -0.3380 -0.0298  0.5131
   13MOL   Cl84 2508   3.551   3.099   7.743  0.0751 -0.5162  0.3639
   13MOL    C85 2509   3.537   2.882   7.583  0.2184  0.5836  0.0009
   13MOL    C86 2510   3.569   2.789   7.704  0.0584 -0.5809 -0.0847
   13MOL    H87 2511   3.545   3.202   7.494 -1.2536  0.6268  0.0599
   13MOL    H88 2512   3.520   3.080   7.382  2.7299 -2.7960  1.4947
   13MOL    H89 2513   3.529   2.838   7.484  0.5484 -0.2730  0.3448
   13MOL    H90 2514   3.544   2.827   7.804  3.4174  0.3460  0.4629
   13MOL    H91 2515   3.504   2.702   7.692 -0.1824 -0.0894 -2.5464
   13MOL    C92 2516   3.717   2.738   7.698  0.3235 -0.5165 -0.6136
   13MOL    C93 2517   3.768   2.691   7.835 -0.0864  0.0721  0.7409
   13MOL   Cl94 2518   3.798   2.517   7.827 -0.1729  0.4814 -0.1652
   13MOL    C95 2519   3.807   2.760   7.944 -0.0184 -0.5818  0.2575
   13MOL    C96 2520   3.805   2.909   7.956  0.3918  0.4944 -0.6449
   13MOL    H97 2521   3.781   2.816   7.658 -0.1980 -0.5471 -1.5114
   13MOL    H98 2522   3.727   2.653   7.631  4.2477  0.5128 -1.4572
   13MOL    H99 2523   3.850   2.713   8.031 -0.8208  0.6642  1.3574
   13MOL   H100 2524   3.897   2.961   7.983  2.0373 -1.8543 -1.5542
   13MOL   H101 2525   3.765   2.953   7.864  0.2114 -0.9391 -1.2677
   13MOL   C102 2526   3.716   2.959   8.070 -0.0279 -0.2997 -0.1605
   13MOL   C103 2527   3.682   3.106   8.068 -0.3311 -0.4079 -0.3621
   13MOL  Cl104 2528   3.827   3.205   8.064 -0.0913 -0.1889  0.2329
   13MOL   C105 2529   3.552   3.142   8.061  0.9774 -0.7493 -0.5356
   13MOL   C106 2530   3.506   3.288   8.051 -0.0928  0.0028  0.5211
   13MOL   H107 2531   3.622   2.904   8.068  1.7205 -3.3576 -0.8304
   13MOL   H108 2532   3.753   2.936   8.170 -1.1832 -0.0885  0.3303
   13MOL   H109 2533   3.470   3.073   8.074 -0.7214  0.9812 -1.8908
   13MOL   H110 2534   3.515   3.332   8.150 -0.0358  0.8924  0.1284
   13MOL   H111 2535   3.576   3.339   7.984  0.7827 -1.9831 -0.1340
   13MOL   C112 2536   3.363   3.312   7.992  0.6925 -0.1714  0.3623
   13MOL   C113 2537   3.314   3.450   7.996 -0.3855  0.3138 -0.3198
   13MOL  Cl114 2538   3.173   3.458   8.089  0.4875  0.0629 -0.1415
   13MOL   C115 2539   3.355   3.554   7.919  0.2543 -0.1818  0.4574
   13MOL   C116 2540   3.474   3.556   7.826  0.2309  0.5589 -0.8599
   13MOL   H117 2541   3.359   3.308   7.883  0.5954 -0.6698  0.3812
   13MOL   H118 2542   3.289   3.242   8.031  0.3509 -0.2295 -0.3827
   13MOL   H119 2543   3.309   3.652   7.921  0.3869 -0.1049 -0.1336
   13MOL   H120 2544   3.513   3.458   7.800 -0.7956 -0.0236 -0.2125
   13MOL   H121 2545   3.556   3.615   7.867 -0.3990  1.6145 -1.0857
   13MOL   C122 2546   3.435   3.623   7.692 -0.0943 -0.2017  0.4772
   13MOL   C123 2547   3.561   3.640   7.604  0.0225  0.7240 -0.7507
   13MOL  Cl124 2548   3.600   3.502   7.518  0.1604 -0.0630  0.0284
   13MOL   C125 2549   3.636   3.750   7.599 -0.3792 -0.4812  0.4130
   13MOL   C126 2550   3.613   3.879   7.665 -0.8255  0.4073 -0.3074
   13MOL   H127 2551   3.365   3.565   7.633  1.4714 -0.0876 -1.5630
   13MOL   H128 2552   3.378   3.716   7.694  1.2487  0.9463 -5.2787
   13MOL   H129 2553   3.729   3.749   7.545 -0.8682 -1.7459 -0.4560
   13MOL   H130 2554   3.641   3.954   7.591 -1.7022  1.1600  0.1113
   13MOL   H131 2555   3.508   3.894   7.690 -0.5857 -0.2452  1.1909
   13MOL   C132 2556   3.710   3.898   7.789  0.5719  0.1564 -0.2819
   13MOL   C133 2557   3.675   4.013   7.877  0.2410  0.2758 -0.0152
   13MOL  Cl134 2558   3.786   4.145   7.859 -0.1423 -0.1238  0.5145
   13MOL   C135 2559   3.590   4.016   7.974 -0.1991 -0.1510  0.2083
   13MOL   C136 2560   3.494   3.912   8.023  0.0912 -0.7976 -0.0645
   13MOL   H137 2561   3.701   3.804   7.844  0.9425  0.6031  0.5433
   13MOL   H138 2562   3.816   3.898   7.765  0.0050  0.5414 -2.9330
   13MOL   H139 2563   3.578   4.111   8.024 -1.6368  0.5130 -1.3271
   13MOL   H140 2564   3.486   3.839   7.942 -0.2026  0.3538 -1.0875
   13MOL   H141 2565   3.531   3.874   8.118 -0.8565 -0.2763  0.5186
   13MOL   C142 2566   3.347   3.962   8.041 -0.2705  0.0988 -0.7492
   13MOL   C143 2567   3.289   4.045   7.931  0.2483  0.2748  0.1916
   13MOL  Cl144 2568   3.290   4.211   7.966 -0.1887  0.1025  0.0582
   13MOL   C145 2569   3.243   3.992   7.820 -1.0465 -0.0459  0.5998
   13MOL   C146 2570   3.191   4.052   7.692  0.1506  0.0343  0.1739
   13MOL   H147 2571   3.352   4.025   8.130 -1.0801 -1.7377  0.6506
   13MOL   H148 2572   3.278   3.880   8.063 -0.6855  0.6985  0.2076
   13MOL   H149 2573   3.249   3.884   7.815  0.9181  0.0367  0.7762
   13MOL   H150 2574   3.087   4.026   7.675  0.6656 -1.1510 -1.3384
   13MOL   H151 2575   3.194   4.160   7.703 -0.9890  0.1424 -0.4927
   13MOL   C152 2576   3.278   4.017   7.569  0.1688 -0.5101  0.0161
   13MOL   C153 2577   3.247   4.115   7.460 -0.1045 -0.4437  0.8044
   13MOL  Cl154 2578   3.373   4.105   7.346  0.0750  0.1301  0.0508
   13MOL   C155 2579   3.147   4.199   7.451 -0.1437  0.1333  0.0025
   13MOL   C156 2580   3.123   4.295   7.337 -0.7765  0.3329  0.0213
   13MOL   H157 2581   3.382   4.029   7.601 -0.5192  1.1451  1.7704
   13MOL   H158 2582   3.255   3.913   7.546 -0.4034 -0.8467  1.9770
   13MOL   H159 2583   3.074   4.212   7.529 -1.3416 -0.1491 -1.0482
   13MOL   H160 2584   3.216   4.310   7.282 -1.0580  0.3790 -0.4490
   13MOL   H161 2585   3.115   4.396   7.378  0.2116 -0.3874  2.0239
   13MOL   C162 2586   3.005   4.263   7.245  0.2402 -0.4463 -0.9694
   13MOL   C163 2587   3.003   4.344   7.114  0.0416  0.1571  0.8387
   13MOL  Cl164 2588   2.855   4.439   7.096 -0.5324  0.0571 -0.0844
   13MOL   C165 2589   3.106   4.345   7.027  0.2228  0.0283 -0.3874
   13MOL   C166 2590   3.100   4.423   6.899  0.4970 -0.5360 -0.0144
   13MOL   H167 2591   3.013   4.158   7.220 -2.3225 -0.9086  0.0042
   13MOL   H168 2592   2.911   4.279   7.298 -0.1059  0.8543 -1.9392
   13MOL   H169 2593   3.193   4.282   7.043  0.6139  0.0253 -2.4550
   13MOL   H170 2594   3.181   4.392   6.833  0.4620 -0.8397  0.0813
   13MOL   H171 2595   3.009   4.384   6.853  1.1311 -1.4881 -0.4844
   13MOL   C172 2596   3.099   4.576   6.911 -0.3743 -0.8129  0.7109
   13MOL   C173 2597   3.102   4.645   6.772 -0.8125 -0.0097 -0.6108
   13MOL  Cl174 2598   3.259   4.633   6.704 -0.0227 -0.0199  0.1477
   13MOL   C175 2599   3.006   4.712   6.712 -0.6530 -0.3451 -0.4296
   13MOL   C176 2600   3.009   4.788   6.578  0.2054  0.9214  0.6957
   13MOL   H177 2601   3.184   4.600   6.974 -0.2826 -0.8085  0.5844
   13MOL   H178 2602   3.004   4.612   6.952 -1.0600 -2.9844  1.0992
   13MOL   H179 2603   2.911   4.712   6.764 -0.3193 -2.6209  0.2801
   13MOL   H180 2604   2.969   4.722   6.501  1.3384 -0.7690  1.5138
   13MOL   H181 2605   3.113   4.816   6.560  0.8317 -0.9413  1.3123
   13MOL   C182 2606   2.929   4.918   6.588 -0.3358 -0.2315  0.2766
   13MOL   C183 2607   2.922   5.009   6.464  0.3702 -0.2011  0.0129
   13MOL  Cl184 2608   2.763   5.077   6.450 -0.2212 -0.0927  0.0721
   13MOL   C185 2609   3.024   5.039   6.376  0.1608 -0.2664  0.2584
   13MOL   C186 2610   3.018   5.124   6.252  0.7350  0.2720 -0.2883
   13MOL   H187 2611   2.830   4.878   6.611  0.2004 -2.2149 -0.7463
   13MOL   H188 2612   2.948   4.970   6.682  2.2709 -0.2739 -0.1759
   13MOL   H189 2613   3.124   5.000   6.389  1.1434  1.5072 -1.8084
   13MOL   H190 2614   2.927   5.183   6.260  0.2833 -0.3551 -0.7604
   13MOL   H191 2615   3.093   5.202   6.239  2.1410 -0.7801  1.4021
   13MOL   C192 2616   3.023   5.044   6.125  0.5593 -0.3550  0.4742
   13MOL   C193 2617   3.008   5.133   6.006  0.7520  0.4531 -0.3208
   13MOL  Cl194 2618   2.846   5.149   5.947  0.1098  0.0153  0.1268
   13MOL   C195 2619   3.104   5.204   5.941  0.5225  0.5249 -0.8810
   13MOL   C196 2620   3.252   5.193   5.968  0.2929  0.6508  0.2429
   13MOL   H197 2621   2.939   4.974   6.122  1.1445 -1.0635  0.2940
   13MOL   H198 2622   3.112   4.980   6.123  1.5568  1.0056  0.1432
   13MOL   H199 2623   3.081   5.275   5.863  0.9173  1.9797  0.3049
   13MOL   H200 2624   3.274   5.104   6.027 -1.6336 -0.7236 -1.0802
   13MOL   H201 2625   3.298   5.284   6.006  0.1986  0.7271  0.1746
   13MOL   H202 2626   3.313   5.159   5.884 -1.2006 -3.6431  0.7752
   14MOL     C1 2627   3.716   3.401   2.266  0.2049  0.2545 -0.7254
   14MOL     C2 2628   3.822   3.313   2.332  0.3058  0.6159 -0.2107
   14MOL    Cl3 2629   3.978   3.349   2.273 -0.0167  0.0954  0.1100
   14MOL     C4 2630   3.808   3.220   2.432  0.4937 -0.4291  0.5893
   14MOL     C5 2631   3.673   3.180   2.487  0.1789 -0.3358  0.0539
   14MOL     H6 2632   3.682   3.470   2.343 -0.1079  0.6400 -1.2068
   14MOL     H7 2633   3.622   3.351   2.242  0.3724 -0.2547 -0.3487
   14MOL     H8 2634   3.898   3.173   2.470  0.1798 -0.5658  1.1683
   14MOL     H9 2635   3.664   3.219   2.588  2.0377 -0.1220  0.1597
   14MOL    H10 2636   3.589   3.219   2.429 -0.2758  0.7588  1.4291
   14MOL    H11 2637   3.740   3.466   2.183 -1.3493  2.8521  0.7932
   14MOL    C12 2638   3.654   3.035   2.486 -0.1971 -0.6562 -0.1517
   14MOL    C13 2639   3.553   2.994   2.590 -0.0502 -0.0866 -0.3996
   14MOL   Cl14 2640   3.407   2.952   2.508 -0.0170 -0.0148  0.2547
   14MOL    C15 2641   3.579   3.000   2.721  0.8820  0.7045 -0.5015
   14MOL    C16 2642   3.719   3.018   2.779 -0.8362 -0.5636 -0.7034
   14MOL    H17 2643   3.610   3.007   2.390 -2.1940  1.5562  0.0733
   14MOL    H18 2644   3.746   2.978   2.500 -0.1761 -0.5040  0.3377
   14MOL    H19 2645   3.499   2.985   2.792  2.0441 -2.1655  0.3036
   14MOL    H20 2646   3.766   2.928   2.818  1.9138  1.7709  1.5690
   14MOL    H21 2647   3.793   3.058   2.711  0.1286 -0.3550  0.4589
   14MOL    C22 2648   3.721   3.113   2.906 -0.1677 -0.7078 -0.0725
   14MOL    C23 2649   3.715   3.261   2.869  0.1281 -0.1589  0.0201
   14MOL   Cl24 2650   3.562   3.322   2.834  0.3916  0.3827  0.2903
   14MOL    C25 2651   3.824   3.350   2.864  0.6015  0.3548  0.1772
   14MOL    C26 2652   3.831   3.497   2.819 -0.7710  0.0864 -1.3301
   14MOL    H27 2653   3.640   3.089   2.975  0.7571  1.8125  1.9497
   14MOL    H28 2654   3.816   3.101   2.959  0.6355 -0.2393 -1.3822
   14MOL    H29 2655   3.915   3.301   2.897 -0.6725 -1.2944  1.3921
   14MOL    H30 2656   3.729   3.535   2.820 -1.2275 -1.0114  2.8547
   14MOL    H31 2657   3.886   3.542   2.901  2.0942 -2.1644 -1.9139
   14MOL    C32 2658   3.901   3.514   2.686  0.2171  0.2255 -0.1726
   14MOL    C33 2659   3.911   3.657   2.625  0.2565  0.2082 -0.7958
   14MOL   Cl34 2660   3.891   3.788   2.731  0.0516 -0.0559  0.2692
   14MOL    C35 2661   3.955   3.665   2.501  0.2777 -0.5267  0.9803
   14MOL    C36 2662   3.991   3.795   2.434 -0.2805  0.3100  0.8856
   14MOL    H37 2663   4.002   3.473   2.698  0.0638  0.3637  1.7573
   14MOL    H38 2664   3.848   3.454   2.612 -0.2956 -0.7116  0.9304
   14MOL    H39 2665   3.971   3.572   2.449  2.0192 -0.8557  2.0663
   14MOL    H40 2666   3.977   3.869   2.513  1.9284  0.8767  0.7941
   14MOL    H41 2667   4.099   3.791   2.415 -0.2194  0.3383  1.2237
   14MOL    C42 2668   3.901   3.821   2.313 -0.7978 -0.0427 -0.3470
   14MOL    C43 2669   3.911   3.960   2.243  0.4772 -0.7235  0.0729
   14MOL   Cl44 2670   3.979   3.951   2.085 -0.0814  0.0479 -0.1473
   14MOL    C45 2671   3.837   4.067   2.274 -0.5665  0.7376  0.2771
   14MOL    C46 2672   3.748   4.090   2.393  0.1103  0.2824  0.7438
   14MOL    H47 2673   3.916   3.738   2.245 -3.5754  0.1681 -1.2678
   14MOL    H48 2674   3.803   3.798   2.355 -0.1862  0.0862  1.1872
   14MOL    H49 2675   3.849   4.146   2.202  0.8085  0.9731  0.7497
   14MOL    H50 2676   3.646   4.087   2.355  0.5208  1.9955 -0.5485
   14MOL    H51 2677   3.756   4.012   2.469 -0.4985  1.8807  2.4659
   14MOL    C52 2678   3.759   4.237   2.443 -0.0369 -0.3725  0.9034
   14MOL    C53 2679   3.659   4.266   2.557  0.0789  0.1355 -0.0477
   14MOL   Cl54 2680   3.743   4.340   2.686  0.1042  0.1279 -0.2069
   14MOL    C55 2681   3.529   4.226   2.563  0.3985 -0.8981 -0.2791
   14MOL    C56 2682   3.447   4.248   2.689 -0.2817  0.1380  0.2722
   14MOL    H57 2683   3.860   4.248   2.483 -0.1449  0.0159  1.0772
   14MOL    H58 2684   3.758   4.308   2.359 -1.5067  1.1010  2.1323
   14MOL    H59 2685   3.474   4.180   2.482 -0.5319 -0.1990 -0.0590
   14MOL    H60 2686   3.420   4.156   2.742 -1.3765 -0.0659 -0.6193
   14MOL    H61 2687   3.497   4.314   2.760 -0.0865 -1.2643  1.4584
   14MOL    C62 2688   3.321   4.325   2.643 -0.1549  0.6160 -0.6340
   14MOL    C63 2689   3.246   4.377   2.765  0.3165  0.7962 -0.1329
   14MOL   Cl64 2690   3.217   4.553   2.766  0.0951 -0.2575 -0.0516
   14MOL    C65 2691   3.217   4.299   2.868 -0.2725  0.3030 -0.2857
   14MOL    C66 2692   3.128   4.329   2.991  0.4901  0.1952 -0.1362
   14MOL    H67 2693   3.350   4.407   2.577 -0.0114  0.9117 -0.2064
   14MOL    H68 2694   3.260   4.256   2.583 -1.0977  0.4660  0.4815
   14MOL    H69 2695   3.243   4.194   2.871  1.4251  0.6612 -1.9084
   14MOL    H70 2696   3.106   4.233   3.039 -4.7109  2.2471  2.0032
   14MOL    H71 2697   3.034   4.367   2.951  0.2326  0.0476  0.3166
   14MOL    C72 2698   3.192   4.429   3.089  0.3972  0.5291  0.2218
   14MOL    C73 2699   3.110   4.433   3.218  0.0388 -0.2916 -0.0358
   14MOL   Cl74 2700   2.955   4.499   3.201  0.2142 -0.3894 -0.1834
   14MOL    C75 2701   3.163   4.407   3.341  0.1901  0.6103  0.4133
   14MOL    C76 2702   3.100   4.425   3.474  0.3368 -0.5085  0.0674
   14MOL    H77 2703   3.201   4.534   3.059  0.7928  1.2796  2.8464
   14MOL    H78 2704   3.293   4.400   3.116  1.3854  1.6838 -2.0769
   14MOL    H79 2705   3.263   4.366   3.346  0.8499  2.1929  0.7402
   14MOL    H80 2706   3.062   4.328   3.509 -0.5828 -0.1118  0.1781
   14MOL    H81 2707   3.015   4.492   3.468  0.1437 -0.7464  0.1302
   14MOL    C82 2708   3.195   4.476   3.582 -0.1108  0.4188  0.2283
   14MOL    C83 2709   3.127   4.473   3.721  0.1619 -0.6481 -0.4800
   14MOL   Cl84 2710   3.227   4.402   3.851 -0.1992 -0.5076  0.4179
   14MOL    C85 2711   3.011   4.525   3.753 -0.1662  0.3931  0.2465
   14MOL    C86 2712   2.948   4.516   3.894 -0.4686  0.2262 -0.4994
   14MOL    H87 2713   3.220   4.580   3.560 -0.2649  0.8255  1.8587
   14MOL    H88 2714   3.288   4.419   3.585  1.2376  2.5580  1.3159
   14MOL    H89 2715   2.956   4.572   3.672 -2.5184 -1.9244  0.4162
   14MOL    H90 2716   2.865   4.444   3.895 -1.8411  1.7729 -1.2216
   14MOL    H91 2717   3.008   4.471   3.973 -2.4058 -1.5170  0.0566
   14MOL    C92 2718   2.900   4.656   3.933 -0.2062  0.1096  0.1284
   14MOL    C93 2719   2.841   4.670   4.070 -0.4594 -0.5401  0.9869
   14MOL   Cl94 2720   2.954   4.737   4.183  0.5443  0.1111  0.4482
   14MOL    C95 2721   2.715   4.637   4.106  0.3050 -0.4494 -0.2557
   14MOL    C96 2722   2.623   4.567   4.013  0.0289 -0.1141 -0.2724
   14MOL    H97 2723   2.826   4.693   3.862 -0.4828 -0.2346  0.2403
   14MOL    H98 2724   2.987   4.723   3.927  0.9256 -1.0615  2.9237
   14MOL    H99 2725   2.668   4.656   4.202  1.2484 -0.9829  0.3266
   14MOL   H100 2726   2.542   4.636   3.991 -0.9919 -0.7587  1.3411
   14MOL   H101 2727   2.667   4.559   3.914  0.9994  2.0961 -0.0466
   14MOL   C102 2728   2.581   4.428   4.070 -0.7875 -0.7835  0.1632
   14MOL   C103 2729   2.485   4.360   3.977 -0.2346 -0.4787  0.1015
   14MOL  Cl104 2730   2.341   4.448   3.979 -0.2082 -0.0796 -0.0861
   14MOL   C105 2731   2.508   4.250   3.910  0.1213  0.4469  0.2281
   14MOL   C106 2732   2.412   4.173   3.815  0.0012 -0.0119  0.1033
   14MOL   H107 2733   2.663   4.362   4.094  1.4908  1.1968 -1.8805
   14MOL   H108 2734   2.536   4.441   4.168 -2.8433  0.5395 -0.9100
   14MOL   H109 2735   2.607   4.209   3.915 -0.8332 -1.9736  0.0617
   14MOL   H110 2736   2.306   4.186   3.840  0.3335 -1.4924  2.4959
   14MOL   H111 2737   2.417   4.218   3.716 -2.5349 -2.9726 -1.4755
   14MOL   C112 2738   2.434   4.016   3.805 -0.2447 -0.1760  0.1901
   14MOL   C113 2739   2.338   3.960   3.699  0.0415  0.0985 -0.5496
   14MOL  Cl114 2740   2.415   3.925   3.549 -0.0269  0.2965  0.0781
   14MOL   C115 2741   2.209   3.926   3.708 -0.0623 -0.6888 -0.7449
   14MOL   C116 2742   2.119   3.945   3.831  0.1133  0.1736 -0.3719
   14MOL   H117 2743   2.530   3.988   3.761 -2.0651 -1.7685 -2.9550
   14MOL   H118 2744   2.429   3.954   3.894 -1.4968  1.2905  1.1465
   14MOL   H119 2745   2.153   3.887   3.624 -0.7674 -2.4775  0.5184
   14MOL   H120 2746   2.171   3.949   3.927  0.9379 -2.8160 -0.6215
   14MOL   H121 2747   2.049   3.860   3.831  0.7331 -0.3571 -1.7353
   14MOL   C122 2748   2.020   4.061   3.817 -0.1731 -0.1460 -0.0624
   14MOL   C123 2749   1.890   4.024   3.745  0.1364  1.2685 -0.6266
   14MOL  Cl124 2750   1.760   3.982   3.844  0.0291  0.0902 -0.2805
   14MOL   C125 2751   1.865   4.039   3.617 -0.3115  0.1195  0.3769
   14MOL   C126 2752   1.952   4.089   3.503  0.1794 -0.1354 -0.1250
   14MOL   H127 2753   1.980   4.090   3.915  1.6336 -2.3435  1.3788
   14MOL   H128 2754   2.064   4.156   3.787  1.2132 -0.6707  0.2933
   14MOL   H129 2755   1.773   3.999   3.575  0.0264 -1.4053  1.0765
   14MOL   H130 2756   1.919   4.188   3.473  1.8204 -0.4620 -3.1876
   14MOL   H131 2757   2.053   4.097   3.546 -0.3698 -0.1799  1.2047
   14MOL   C132 2758   1.953   3.999   3.380 -0.0540  0.3971 -0.7322
   14MOL   C133 2759   2.039   4.055   3.269 -0.0291  0.2788 -0.8265
   14MOL  Cl134 2760   2.198   3.977   3.276 -0.1018 -0.0004  0.0042
   14MOL   C135 2761   2.002   4.149   3.175 -0.6801  0.8679  0.1719
   14MOL   C136 2762   1.872   4.225   3.183 -0.4415  0.4223 -0.4809
   14MOL   H137 2763   1.992   3.898   3.393  1.7700  1.0505 -0.9579
   14MOL   H138 2764   1.858   3.967   3.337 -0.2676  0.1730 -0.1008
   14MOL   H139 2765   2.068   4.182   3.095 -4.0070  2.8357 -1.9102
   14MOL   H140 2766   1.820   4.182   3.098 -1.4702 -0.7142  0.6967
   14MOL   H141 2767   1.805   4.187   3.260  0.3111 -0.9287 -0.4795
   14MOL   C142 2768   1.870   4.379   3.175  0.3916 -0.7121 -0.1189
   14MOL   C143 2769   1.815   4.449   3.301 -0.0018 -0.4434 -0.2287
   14MOL  Cl144 2770   1.932   4.436   3.421  0.3497 -0.1028 -0.1287
   14MOL   C145 2771   1.709   4.530   3.308  0.6797  0.6907 -0.3057
   14MOL   C146 2772   1.689   4.625   3.426 -0.2269 -0.9131 -0.0533
   14MOL   H147 2773   1.806   4.407   3.091  0.4568  1.1187  0.4121
   14MOL   H148 2774   1.964   4.421   3.140  0.2790 -1.0391 -0.8168
   14MOL   H149 2775   1.646   4.545   3.222 -1.4796 -2.1554  0.7221
   14MOL   H150 2776   1.765   4.613   3.503 -1.5032  2.8232  1.9221
   14MOL   H151 2777   1.706   4.729   3.398 -0.5907 -0.4197  1.5399
   14MOL   C152 2778   1.553   4.601   3.485 -0.2231 -0.6096 -1.0212
   14MOL   C153 2779   1.512   4.673   3.614 -0.3977 -0.3654  0.5041
   14MOL  Cl154 2780   1.612   4.804   3.651 -0.1531 -0.0650 -0.1581
   14MOL   C155 2781   1.409   4.642   3.695 -0.3890  0.5578 -0.6185
   14MOL   C156 2782   1.379   4.708   3.837  0.0030 -0.4466  0.4634
   14MOL   H157 2783   1.478   4.629   3.411  0.3957  1.4183 -0.9262
   14MOL   H158 2784   1.535   4.496   3.503 -1.0146 -0.5178 -1.2475
   14MOL   H159 2785   1.332   4.571   3.668 -1.3541  1.5148 -0.4287
   14MOL   H160 2786   1.294   4.775   3.824 -0.8218 -1.5947 -0.1165
   14MOL   H161 2787   1.459   4.770   3.878 -1.6079  0.3982  2.4396
   14MOL   C162 2788   1.319   4.614   3.945 -0.2723  0.3298 -0.6330
   14MOL   C163 2789   1.297   4.675   4.082 -0.5885 -0.1338  0.1244
   14MOL  Cl164 2790   1.129   4.684   4.120 -0.2155  0.4081 -0.5090
   14MOL   C165 2791   1.394   4.732   4.159  0.1938  0.3087 -0.4953
   14MOL   C166 2792   1.367   4.804   4.297  0.2692 -0.1983  0.1794
   14MOL   H167 2793   1.227   4.575   3.900 -0.5475  0.3436 -0.0898
   14MOL   H168 2794   1.374   4.523   3.965 -1.4360 -0.2583 -0.0453
   14MOL   H169 2795   1.498   4.717   4.131  1.1105  1.1246  2.2857
   14MOL   H170 2796   1.415   4.901   4.287 -0.6529  0.1982 -0.4714
   14MOL   H171 2797   1.262   4.834   4.293  0.5070  0.4954 -0.9197
   14MOL   C172 2798   1.413   4.713   4.416 -0.3388  0.0333  0.4426
   14MOL   C173 2799   1.388   4.764   4.555 -0.6275  0.0897 -0.9522
   14MOL  Cl174 2800   1.346   4.932   4.561  0.1288 -0.0996 -0.1396
   14MOL   C175 2801   1.406   4.686   4.659 -0.4433  0.3358  0.2145
   14MOL   C176 2802   1.377   4.726   4.799  0.2484  0.2899  0.0794
   14MOL   H177 2803   1.519   4.688   4.416 -0.0530  1.1824  0.6051
   14MOL   H178 2804   1.362   4.617   4.419 -0.3167  0.0126  0.1596
   14MOL   H179 2805   1.438   4.584   4.642 -4.8833 -0.8781 -1.4616
   14MOL   H180 2806   1.273   4.703   4.823  0.4225  0.3599  0.9115
   14MOL   H181 2807   1.403   4.831   4.806 -1.3193  0.7470 -0.7848
   14MOL   C182 2808   1.459   4.658   4.906  0.2579  0.3116  0.0873
   14MOL   C183 2809   1.498   4.742   5.023 -0.0829 -0.7831 -0.4501
   14MOL  Cl184 2810   1.414   4.684   5.164 -0.2908  0.2853  0.2343
   14MOL   C185 2811   1.599   4.832   5.024  0.3704  0.1911  0.4481
   14MOL   C186 2812   1.648   4.916   5.148  0.1089 -0.3912 -0.2229
   14MOL   H187 2813   1.427   4.559   4.938  1.3916 -0.5659 -1.4405
   14MOL   H188 2814   1.553   4.630   4.860  0.1103 -1.0910  0.6042
   14MOL   H189 2815   1.660   4.867   4.942  2.1598  0.2706  1.7834
   14MOL   H190 2816   1.597   4.891   5.241  3.1710 -0.9717  1.3940
   14MOL   H191 2817   1.750   4.881   5.163 -0.1443 -1.2700 -0.5529
   14MOL   C192 2818   1.666   5.068   5.125 -0.5078 -0.0965 -0.1236
   14MOL   C193 2819   1.751   5.124   5.234  0.6604  0.6681 -0.4347
   14MOL  Cl194 2820   1.661   5.146   5.377 -0.2010 -0.3356  0.0959
   14MOL   C195 2821   1.882   5.147   5.240 -0.6945  0.6921 -0.4052
   14MOL   C196 2822   1.975   5.120   5.120 -0.1384 -0.0008  0.2268
   14MOL   H197 2823   1.572   5.123   5.120  0.0472  1.0540  1.5647
   14MOL   H198 2824   1.714   5.093   5.031 -1.6090  1.9364 -0.1959
   14MOL   H199 2825   1.932   5.190   5.325 -0.1267 -2.1329  0.7462
   14MOL   H200 2826   1.988   5.016   5.092  0.2630 -0.0881  0.7409
   14MOL   H201 2827   2.070   5.171   5.132  0.8702 -1.6012 -0.8721
   14MOL   H202 2828   1.947   5.173   5.029 -1.9965 -1.3569 -0.0154
   15MOL     C1 2829   6.177   6.358   0.078 -0.1938 -0.1540  0.0397
   15MOL     C2 2830   6.247   6.491   0.065  0.0718  0.3737  0.3079
   15MOL    Cl3 2831   6.416   6.466   0.028 -0.1285  0.0995  0.2909
   15MOL     C4 2832   6.181   6.614   0.073 -0.4092 -0.4336 -0.9084
   15MOL     C5 2833   6.032   6.635   0.084 -0.2701  0.5970 -0.3446
   15MOL     H6 2834   6.104   6.358   0.160  2.2720 -0.2949  2.2822
   15MOL     H7 2835   6.260   6.290   0.097 -1.1573 -1.6227 -0.8579
   15MOL     H8 2836   6.248   6.699   0.063  2.1985 -2.5096 -1.6588
   15MOL     H9 2837   5.982   6.563   0.149 -0.5025  2.1068  1.1627
   15MOL    H10 2838   6.018   6.725   0.143 -0.4780 -1.1690  2.4031
   15MOL    H11 2839   6.124   6.322   8.410 -0.6388 -0.1983  0.3192
   15MOL    C12 2840   5.951   6.642   8.372  0.4771 -0.1432  0.0794
   15MOL    C13 2841   5.804   6.626   8.395 -0.7225  0.7291  0.0836
   15MOL   Cl14 2842   5.750   6.647   0.140 -0.1915 -0.0088 -0.1792
   15MOL    C15 2843   5.717   6.592   8.297  0.0198  0.2574 -0.1200
   15MOL    C16 2844   5.742   6.562   8.155 -0.4548  0.2346 -0.2692
   15MOL    H17 2845   5.967   6.744   8.335  1.2191  0.7080  2.6512
   15MOL    H18 2846   5.987   6.559   8.310  0.3635 -0.8300  0.9264
   15MOL    H19 2847   5.614   6.589   8.330 -0.1752  3.9385 -0.1448
   15MOL    H20 2848   5.846   6.540   8.131 -1.0497 -1.9519 -0.9549
   15MOL    H21 2849   5.695   6.465   8.141  0.9611 -0.5361  0.1555
   15MOL    C22 2850   5.675   6.664   8.068  0.5127 -0.1181  0.1944
   15MOL    C23 2851   5.644   6.624   7.926 -0.3256  0.1115  0.2500
   15MOL   Cl24 2852   5.497   6.697   7.875  0.1003  0.0230 -0.2868
   15MOL    C25 2853   5.721   6.545   7.853  0.7220  0.2198  0.5858
   15MOL    C26 2854   5.694   6.500   7.708  0.1272 -0.0791 -0.0809
   15MOL    H27 2855   5.578   6.674   8.117  0.5968 -0.4565  0.4322
   15MOL    H28 2856   5.724   6.762   8.069  1.3191 -0.5159  1.6515
   15MOL    H29 2857   5.814   6.514   7.900  1.3036 -1.2082 -1.4509
   15MOL    H30 2858   5.611   6.562   7.675 -0.2995 -0.8037 -0.3891
   15MOL    H31 2859   5.782   6.524   7.648 -0.1924 -0.7438 -0.8296
   15MOL    C32 2860   5.660   6.347   7.704  0.3953  0.1983  0.4993
   15MOL    C33 2861   5.788   6.269   7.713  0.2113 -0.0581  0.9119
   15MOL   Cl34 2862   5.888   6.282   7.572  0.4915 -0.0673  0.0599
   15MOL    C35 2863   5.801   6.177   7.811 -0.1710 -0.2112 -0.2565
   15MOL    C36 2864   5.910   6.068   7.819  0.3530 -0.2368 -0.6477
   15MOL    H37 2865   5.592   6.321   7.785  0.1884  1.6923  0.8281
   15MOL    H38 2866   5.617   6.320   7.607 -1.5276 -1.5435  1.8054
   15MOL    H39 2867   5.725   6.174   7.887  0.1518  1.0175  0.1299
   15MOL    H40 2868   5.994   6.072   7.750  0.8259  0.6004 -0.0351
   15MOL    H41 2869   5.945   6.061   7.922  2.3183  1.5090 -1.1523
   15MOL    C42 2870   5.847   5.934   7.794 -0.8049 -0.0520  0.2976
   15MOL    C43 2871   5.948   5.822   7.784  0.7960 -0.2729 -0.3959
   15MOL   Cl44 2872   5.937   5.713   7.914  0.1727 -0.4148 -0.0477
   15MOL    C45 2873   6.029   5.792   7.685 -0.0021  0.1848  0.1892
   15MOL    C46 2874   6.060   5.861   7.555 -0.3383 -0.8597  0.7302
   15MOL    H47 2875   5.769   5.916   7.867 -1.3819 -0.0752 -0.3246
   15MOL    H48 2876   5.801   5.938   7.696  2.2413  2.1085 -1.1301
   15MOL    H49 2877   6.086   5.703   7.709  1.2051  0.4738 -1.4762
   15MOL    H50 2878   6.052   5.791   7.471  4.2272 -0.9096  0.1940
   15MOL    H51 2879   5.974   5.926   7.540  0.8141  0.8054  1.1503
   15MOL    C52 2880   6.196   5.930   7.556 -0.2594 -0.2398  0.5282
   15MOL    C53 2881   6.234   5.982   7.417  1.0935 -0.4492 -0.2928
   15MOL   Cl54 2882   6.316   5.872   7.317 -0.2465  0.1630  0.0819
   15MOL    C55 2883   6.202   6.107   7.377 -0.2092 -0.1237  0.2940
   15MOL    C56 2884   6.231   6.187   7.243 -0.1489 -0.0582  1.2391
   15MOL    H57 2885   6.192   6.004   7.637  1.9832  1.3058 -0.7252
   15MOL    H58 2886   6.269   5.857   7.590 -0.2526  0.2669  1.6262
   15MOL    H59 2887   6.147   6.168   7.447 -2.0959 -0.8395 -0.5499
   15MOL    H60 2888   6.321   6.150   7.195 -0.0484  0.8044  0.7546
   15MOL    H61 2889   6.156   6.163   7.168  1.1654  0.4189 -0.2465
   15MOL    C62 2890   6.251   6.339   7.256  0.1539  0.5409  0.1135
   15MOL    C63 2891   6.242   6.403   7.122  0.7372  0.1088  0.7941
   15MOL   Cl64 2892   6.069   6.428   7.081  0.0626 -0.2095 -0.0220
   15MOL    C65 2893   6.341   6.439   7.041  0.2026  0.1293 -0.1465
   15MOL    C66 2894   6.342   6.509   6.906 -0.2738 -0.2520  0.1434
   15MOL    H67 2895   6.192   6.386   7.335  0.7406  1.6747 -0.1187
   15MOL    H68 2896   6.352   6.359   7.292  0.3264  1.6938 -0.9722
   15MOL    H69 2897   6.442   6.422   7.077  1.1192  1.9340 -1.7749
   15MOL    H70 2898   6.240   6.547   6.895 -0.4545 -0.7316  0.1498
   15MOL    H71 2899   6.345   6.426   6.836  1.4652 -0.7970  0.8314
   15MOL    C72 2900   6.448   6.614   6.896 -0.1829 -0.2065  0.4244
   15MOL    C73 2901   6.459   6.664   6.745 -0.2077  0.1599  0.0198
   15MOL   Cl74 2902   6.485   6.532   6.633 -0.1761 -0.1706 -0.0265
   15MOL    C75 2903   6.428   6.789   6.705  0.0062  1.0699 -0.0234
   15MOL    C76 2904   6.409   6.829   6.561 -0.3117 -0.0936 -0.4901
   15MOL    H77 2905   6.544   6.571   6.926 -0.9721 -0.2062  3.0267
   15MOL    H78 2906   6.433   6.686   6.976  2.5542  0.9392 -0.0166
   15MOL    H79 2907   6.421   6.860   6.785  3.6599  2.6124 -0.9705
   15MOL    H80 2908   6.443   6.751   6.493  0.7012 -0.2713  0.2161
   15MOL    H81 2909   6.474   6.910   6.529 -1.4150  0.4896 -1.2775
   15MOL    C82 2910   6.256   6.844   6.533 -0.9021  1.0613 -0.0870
   15MOL    C83 2911   6.222   6.853   6.385  0.0229  0.3901 -0.2649
   15MOL   Cl84 2912   6.249   7.008   6.317 -0.6529  0.0417  0.1653
   15MOL    C85 2913   6.169   6.751   6.318  0.6405  1.3151 -0.5701
   15MOL    C86 2914   6.136   6.741   6.172  0.2950  0.0737  0.0552
   15MOL    H87 2915   6.216   6.929   6.588 -0.6058  1.3035 -0.2427
   15MOL    H88 2916   6.202   6.760   6.574  1.5284 -1.6541 -2.2158
   15MOL    H89 2917   6.148   6.657   6.367 -1.7754  1.8990 -0.4460
   15MOL    H90 2918   6.057   6.667   6.161  0.2380  0.2411 -0.6953
   15MOL    H91 2919   6.095   6.837   6.141  0.9794  0.3750  0.0817
   15MOL    C92 2920   6.248   6.698   6.091 -1.0956  0.1467 -0.0743
   15MOL    C93 2921   6.210   6.656   5.950 -0.2584 -0.3409  0.2714
   15MOL   Cl94 2922   6.222   6.779   5.839 -0.1425 -0.2511  0.3482
   15MOL    C95 2923   6.164   6.531   5.919 -0.4208  0.5745 -0.2409
   15MOL    C96 2924   6.146   6.405   6.007  0.0737  0.0980 -0.0130
   15MOL    H97 2925   6.303   6.621   6.146 -0.5017  0.9649  0.4746
   15MOL    H98 2926   6.316   6.782   6.082  0.3338 -0.8152  1.4238
   15MOL    H99 2927   6.123   6.519   5.820 -1.4505 -0.0693  0.2590
   15MOL   H100 2928   6.219   6.327   5.986 -1.4626 -1.0973 -1.0446
   15MOL   H101 2929   6.150   6.443   6.109  0.4732  4.2655 -1.4779
   15MOL   C102 2930   6.007   6.348   5.984  0.2082 -0.5132  0.8276
   15MOL   C103 2931   5.998   6.221   6.065  0.1394  0.1637  0.5846
   15MOL  Cl104 2932   6.044   6.086   5.962 -0.4500 -0.0477 -0.5910
   15MOL   C105 2933   5.983   6.222   6.194  0.0111  0.0846 -0.5494
   15MOL   C106 2934   5.996   6.106   6.283  0.0095  0.7748  0.3814
   15MOL   H107 2935   5.932   6.416   6.026 -0.1247 -0.2249 -0.2178
   15MOL   H108 2936   5.982   6.331   5.880 -0.2280 -0.3080  0.8933
   15MOL   H109 2937   5.956   6.317   6.236  2.6117  0.0870  1.2268
   15MOL   H110 2938   6.007   6.019   6.219  1.4207  1.6387 -0.5868
   15MOL   H111 2939   6.092   6.116   6.334 -0.4562  2.6450  0.9244
   15MOL   C112 2940   5.866   6.097   6.367  0.5221 -0.2129 -0.0701
   15MOL   C113 2941   5.865   5.997   6.477 -0.1440 -0.4307  0.3653
   15MOL  Cl114 2942   5.985   5.872   6.462 -0.3929  0.2252 -0.2105
   15MOL   C115 2943   5.776   6.000   6.580 -0.2918  0.0566  0.4578
   15MOL   C116 2944   5.661   6.100   6.604 -0.1638 -0.0840 -0.2204
   15MOL   H117 2945   5.846   6.195   6.410  0.8521  0.2372 -0.9217
   15MOL   H118 2946   5.794   6.074   6.289 -1.9562  0.9191  1.8162
   15MOL   H119 2947   5.787   5.924   6.657 -0.6354  0.6354  1.0821
   15MOL   H120 2948   5.642   6.165   6.519  0.7705 -0.9416 -1.0929
   15MOL   H121 2949   5.684   6.165   6.689  0.1769  1.9451 -1.8141
   15MOL   C122 2950   5.539   6.020   6.647 -0.1945 -0.1628 -0.4459
   15MOL   C123 2951   5.475   5.937   6.546 -0.1599 -0.6801  0.8919
   15MOL  Cl124 2952   5.522   5.773   6.573 -0.1993 -0.1961  0.4479
   15MOL   C125 2953   5.394   5.973   6.448 -0.6838 -0.1632  0.0204
   15MOL   C126 2954   5.368   6.116   6.418  0.2263  0.9094  0.1488
   15MOL   H127 2955   5.554   5.957   6.735  1.1147  0.5496 -0.1486
   15MOL   H128 2956   5.459   6.086   6.679 -0.4348 -1.4836  1.8408
   15MOL   H129 2957   5.350   5.903   6.379 -0.0317  1.2308 -1.8286
   15MOL   H130 2958   5.262   6.136   6.434 -0.6501 -1.8026 -1.9101
   15MOL   H131 2959   5.423   6.180   6.487 -0.5864 -1.4616  3.0910
   15MOL   C132 2960   5.402   6.151   6.276 -0.8058 -0.4448 -0.6147
   15MOL   C133 2961   5.383   6.294   6.233 -0.3004  0.0801 -0.1966
   15MOL  Cl134 2962   5.530   6.386   6.219  0.0501  0.1733 -0.0051
   15MOL   C135 2963   5.266   6.349   6.191  0.0411  0.0718  0.0121
   15MOL   C136 2964   5.132   6.284   6.191 -0.0364 -0.5312 -0.1200
   15MOL   H137 2965   5.510   6.137   6.263 -0.7025  0.4162 -0.7084
   15MOL   H138 2966   5.361   6.087   6.198  0.8186  1.3242 -3.0067
   15MOL   H139 2967   5.268   6.449   6.150  2.8677 -0.7039 -1.8749
   15MOL   H140 2968   5.121   6.187   6.238 -0.0418 -0.0718  0.8498
   15MOL   H141 2969   5.076   6.346   6.261 -0.4748  1.2713 -2.0022
   15MOL   C142 2970   5.068   6.280   6.050 -0.3278 -0.3775  0.4423
   15MOL   C143 2971   4.932   6.225   6.061  0.0238  0.5847 -0.3459
   15MOL  Cl144 2972   4.838   6.292   6.188 -0.4048 -0.3976 -0.1384
   15MOL   C145 2973   4.894   6.115   5.991  0.3682 -0.1879  0.6637
   15MOL   C146 2974   4.760   6.038   6.006  0.1996  0.2993  0.3639
   15MOL   H147 2975   5.133   6.232   5.977  1.2452  0.7954  1.0526
   15MOL   H148 2976   5.062   6.385   6.019  2.1172  0.4493  2.6182
   15MOL   H149 2977   4.961   6.072   5.918 -1.1926  2.1060 -2.2548
   15MOL   H150 2978   4.793   5.937   6.029 -2.1908 -0.7770 -0.8151
   15MOL   H151 2979   4.714   6.073   6.098  0.2424 -0.0539  0.5185
   15MOL   C152 2980   4.668   6.028   5.885  0.6186  0.0501 -0.1830
   15MOL   C153 2981   4.547   5.946   5.918  0.5095  0.1429 -0.6020
   15MOL  Cl154 2982   4.573   5.781   5.865 -0.2116  0.2491  0.5061
   15MOL   C155 2983   4.444   5.979   6.004 -0.6537  0.5990  0.3240
   15MOL   C156 2984   4.335   5.887   6.049  0.7432 -0.3010 -0.2046
   15MOL   H157 2985   4.628   6.126   5.861 -0.9394 -0.4971  0.0769
   15MOL   H158 2986   4.728   5.996   5.801  1.4454  3.3085 -0.8970
   15MOL   H159 2987   4.437   6.078   6.048 -2.4971 -0.4257  2.4382
   15MOL   H160 2988   4.385   5.790   6.058  0.0339 -0.4797  1.9377
   15MOL   H161 2989   4.262   5.875   5.969  0.6618 -0.6102 -0.0846
   15MOL   C162 2990   4.275   5.905   6.191 -0.5912  0.1516 -0.0715
   15MOL   C163 2991   4.166   5.805   6.235  0.1973  0.0256  0.3210
   15MOL  Cl164 2992   4.153   5.786   6.407  0.2738 -0.4388  0.0054
   15MOL   C165 2993   4.092   5.736   6.144  0.1135  0.8447 -0.0887
   15MOL   C166 2994   3.993   5.626   6.181  0.4162 -0.1227  0.0034
   15MOL   H167 2995   4.350   5.917   6.270  1.8270 -2.4642 -1.9041
   15MOL   H168 2996   4.216   5.997   6.188 -0.8972  0.0363  1.6445
   15MOL   H169 2997   4.105   5.753   6.038  0.2415 -0.2636 -0.2528
   15MOL   H170 2998   4.022   5.576   6.274  0.6599  1.8162  0.9924
   15MOL   H171 2999   3.899   5.668   6.217  1.6953  1.7425  1.2237
   15MOL   C172 3000   3.965   5.529   6.064  0.0538 -0.8729 -0.2229
   15MOL   C173 3001   4.091   5.455   6.016 -0.4433 -0.4197  0.4391
   15MOL  Cl174 3002   4.068   5.396   5.857  0.0225  0.4892  0.0869
   15MOL   C175 3003   4.208   5.435   6.077 -0.2826 -0.6963 -0.2384
   15MOL   C176 3004   4.326   5.363   6.013 -0.1804  0.0607 -0.7994
   15MOL   H177 3005   3.919   5.573   5.975  0.1338 -0.7313 -0.1932
   15MOL   H178 3006   3.906   5.442   6.093 -0.1012 -0.2416  1.3830
   15MOL   H179 3007   4.228   5.469   6.178 -0.3570 -0.2994 -0.3533
   15MOL   H180 3008   4.316   5.353   5.905 -1.0631 -0.1443 -0.7032
   15MOL   H181 3009   4.328   5.262   6.053 -1.7288  0.0995 -0.5821
   15MOL   C182 3010   4.462   5.432   6.023  0.3862 -0.7785  0.2643
   15MOL   C183 3011   4.586   5.354   5.987  0.2389 -0.2628  0.7428
   15MOL  Cl184 3012   4.581   5.187   6.026  0.0814  0.2475 -0.0502
   15MOL   C185 3013   4.686   5.408   5.918 -0.1152 -0.2506  0.5622
   15MOL   C186 3014   4.808   5.333   5.880 -0.4033 -0.2721  0.0950
   15MOL   H187 3015   4.458   5.520   5.959  1.5658  0.1195  1.3991
   15MOL   H188 3016   4.467   5.472   6.125  2.7360 -0.2322 -0.0383
   15MOL   H189 3017   4.669   5.510   5.886  1.2742 -0.0731  0.3944
   15MOL   H190 3018   4.899   5.390   5.897 -0.6250  0.0452  0.2237
   15MOL   H191 3019   4.823   5.247   5.944  0.1941 -2.8528 -3.3988
   15MOL   C192 3020   4.794   5.272   5.746  0.1011  0.0489 -0.1584
   15MOL   C193 3021   4.891   5.161   5.722  0.1885  0.5711  0.1526
   15MOL  Cl194 3022   5.044   5.231   5.677  0.2454 -0.0751  0.3063
   15MOL   C195 3023   4.877   5.026   5.744  0.2447  0.3759 -0.4140
   15MOL   C196 3024   4.753   4.953   5.789 -0.2698  0.2368 -0.1702
   15MOL   H197 3025   4.791   5.345   5.665 -0.8698  0.3767  0.1663
   15MOL   H198 3026   4.693   5.233   5.731 -0.7497  2.5333 -1.2333
   15MOL   H199 3027   4.962   4.962   5.728  1.5984  1.8691  0.5826
   15MOL   H200 3028   4.728   4.885   5.707  1.4516 -0.1954 -0.3505
   15MOL   H201 3029   4.672   5.024   5.802 -0.9617 -0.5703  0.0198
   15MOL   H202 3030   4.766   4.893   5.879 -0.3283  0.4126 -0.0443
   16MOL     C1 3031   2.048   4.560   2.108  0.2528 -0.5040  0.5423
   16MOL     C2 3032   2.142   4.509   2.213 -0.1498 -0.4885 -0.3992
   16MOL    Cl3 3033   2.203   4.644   2.295 -0.0597 -0.4378  0.3629
   16MOL     C4 3034   2.199   4.387   2.222 -0.8775  0.3096 -0.5144
   16MOL     C5 3035   2.162   4.260   2.155 -0.8989  0.0539  0.0109
   16MOL     H6 3036   1.972   4.486   2.085  0.9762 -1.1721  0.2772
   16MOL     H7 3037   2.100   4.566   2.012 -1.6986 -0.3661 -0.5123
   16MOL     H8 3038   2.282   4.371   2.289 -0.3047  0.8591 -1.0864
   16MOL     H9 3039   2.107   4.195   2.222 -1.7106 -0.2672 -0.9449
   16MOL    H10 3040   2.098   4.289   2.072 -1.7060  0.8935  0.9180
   16MOL    H11 3041   1.995   4.654   2.126 -2.1179 -1.7288  0.0914
   16MOL    C12 3042   2.275   4.169   2.103 -0.4008  0.2475 -0.0267
   16MOL    C13 3043   2.221   4.039   2.044 -1.0052  0.0709 -0.1997
   16MOL   Cl14 3044   2.160   4.059   1.882 -0.1373  0.0803  0.0562
   16MOL    C15 3045   2.205   3.919   2.100 -0.4617  0.1964 -0.0508
   16MOL    C16 3046   2.240   3.883   2.244  0.3700 -0.0737 -0.2868
   16MOL    H17 3047   2.338   4.211   2.024 -0.4619  0.1040 -0.1522
   16MOL    H18 3048   2.337   4.138   2.186  1.9169 -1.0024 -2.1597
   16MOL    H19 3049   2.167   3.836   2.042 -1.7900  1.4582 -1.0103
   16MOL    H20 3050   2.265   3.966   2.311  1.1775 -1.4636  1.1772
   16MOL    H21 3051   2.154   3.835   2.292  0.2576  1.3968  1.0392
   16MOL    C22 3052   2.358   3.786   2.248  0.3399 -0.4970  0.1395
   16MOL    C23 3053   2.377   3.714   2.386 -0.0250 -0.1821 -0.4199
   16MOL   Cl24 3054   2.481   3.803   2.493  0.1035  0.0933 -0.1704
   16MOL    C25 3055   2.331   3.591   2.414  0.1327 -1.0675  0.1132
   16MOL    C26 3056   2.368   3.514   2.538  0.0075 -0.1132  0.3367
   16MOL    H27 3057   2.341   3.701   2.182 -2.7421 -1.1918  1.7714
   16MOL    H28 3058   2.447   3.836   2.208 -0.8482  2.2509  0.7741
   16MOL    H29 3059   2.258   3.546   2.347 -1.1337 -1.4214  1.7145
   16MOL    H30 3060   2.401   3.423   2.488 -0.2324  0.3837 -0.7326
   16MOL    H31 3061   2.455   3.548   2.594  0.9150 -2.4802  0.4540
   16MOL    C32 3062   2.247   3.492   2.631 -0.5471  0.1799  0.1835
   16MOL    C33 3063   2.259   3.360   2.718 -0.2111 -0.4753  0.2596
   16MOL   Cl34 3064   2.102   3.343   2.798 -0.2346  0.3261 -0.4117
   16MOL    C35 3065   2.360   3.278   2.740  0.0641  0.3162  0.0343
   16MOL    C36 3066   2.359   3.149   2.820  0.0668  0.4471 -0.2308
   16MOL    H37 3067   2.238   3.575   2.701  1.2462 -0.9873  1.8507
   16MOL    H38 3068   2.151   3.495   2.579  0.3327  0.1062 -1.4792
   16MOL    H39 3069   2.456   3.286   2.692 -0.1250  0.4055 -0.3301
   16MOL    H40 3070   2.259   3.144   2.865 -1.1822 -0.9128 -3.0170
   16MOL    H41 3071   2.358   3.062   2.754 -1.8306 -0.5008  0.9858
   16MOL    C42 3072   2.469   3.109   2.917  0.7278 -0.1032 -0.3131
   16MOL    C43 3073   2.469   3.200   3.038  0.4222 -0.7583  0.7479
   16MOL   Cl44 3074   2.595   3.315   3.027  0.4441  0.3400  0.0234
   16MOL    C45 3075   2.385   3.189   3.138  0.0943 -0.6447 -0.0470
   16MOL    C46 3076   2.269   3.092   3.150  0.0941 -0.3859  0.3470
   16MOL    H47 3077   2.453   3.003   2.937 -0.4151 -0.1483 -1.3728
   16MOL    H48 3078   2.561   3.104   2.858  0.4279 -1.3849 -0.6947
   16MOL    H49 3079   2.402   3.261   3.216 -1.8569 -0.5079  0.2807
   16MOL    H50 3080   2.268   3.029   3.061  0.7943 -1.3833  1.0286
   16MOL    H51 3081   2.299   3.028   3.234 -0.3741 -3.3078 -1.6504
   16MOL    C52 3082   2.134   3.159   3.163  0.2362 -0.2075  0.0657
   16MOL    C53 3083   2.039   3.061   3.221  0.3630  0.1044 -0.6496
   16MOL   Cl54 3084   2.005   2.928   3.112  0.1509  0.3068 -0.3567
   16MOL    C55 3085   1.976   3.063   3.341 -0.6317 -0.1172 -0.6649
   16MOL    C56 3086   1.879   2.959   3.386 -0.3396  0.3035 -0.9356
   16MOL    H57 3087   2.124   3.233   3.243 -2.6104 -0.9438  0.4475
   16MOL    H58 3088   2.097   3.200   3.069 -0.4288  0.0883  0.4509
   16MOL    H59 3089   1.997   3.132   3.422 -1.7162 -0.6165  0.0414
   16MOL    H60 3090   1.795   3.014   3.428  1.0391  1.6487  0.1270
   16MOL    H61 3091   1.839   2.901   3.303  0.3459  0.9496 -1.7281
   16MOL    C62 3092   1.934   2.883   3.506  0.4700 -0.8768 -0.1382
   16MOL    C63 3093   1.836   2.787   3.566  0.6100  0.8057 -0.4245
   16MOL   Cl64 3094   1.884   2.717   3.715 -0.1366 -0.0624  0.0867
   16MOL    C65 3095   1.712   2.764   3.516  0.4104  0.5782 -0.0348
   16MOL    C66 3096   1.615   2.655   3.562 -0.6409  0.1429 -0.3138
   16MOL    H67 3097   2.017   2.822   3.471 -0.3775 -2.8015  1.0771
   16MOL    H68 3098   1.978   2.957   3.573 -1.0655  0.2100 -0.3060
   16MOL    H69 3099   1.681   2.830   3.436 -0.7209 -0.2265 -0.2759
   16MOL    H70 3100   1.622   2.643   3.671  2.8405  0.1493 -0.4654
   16MOL    H71 3101   1.654   2.566   3.511 -0.2098  1.6392 -2.6468
   16MOL    C72 3102   1.469   2.679   3.526 -0.1813  0.3995  0.0486
   16MOL    C73 3103   1.380   2.610   3.626 -0.4516 -0.0104  0.0700
   16MOL   Cl74 3104   1.311   2.716   3.741 -0.6049 -0.0554 -0.2022
   16MOL    C75 3105   1.363   2.468   3.636  0.1570 -0.1718  0.2757
   16MOL    C76 3106   1.285   2.398   3.747  0.0288  0.1369 -0.7003
   16MOL    H77 3107   1.452   2.626   3.432 -2.6643  0.4560  0.4249
   16MOL    H78 3108   1.443   2.782   3.502  1.7554  0.6263 -1.1760
   16MOL    H79 3109   1.417   2.408   3.564 -0.5350 -0.6259  0.1366
   16MOL    H80 3110   1.251   2.462   3.829  1.8055  2.3101 -1.6115
   16MOL    H81 3111   1.347   2.322   3.794 -0.3354 -0.2850 -0.8969
   16MOL    C82 3112   1.162   2.331   3.697 -0.0160 -0.1930 -0.1223
   16MOL    C83 3113   1.050   2.429   3.671 -0.0626 -0.0218  0.3534
   16MOL   Cl84 3114   0.945   2.399   3.805 -0.1867 -0.3621 -0.0686
   16MOL    C85 3115   1.023   2.505   3.564  0.0147  0.3558  0.2385
   16MOL    C86 3116   0.900   2.594   3.542  0.2483 -0.5129 -0.1372
   16MOL    H87 3117   1.132   2.252   3.766 -0.4160  0.5866  0.6135
   16MOL    H88 3118   1.181   2.274   3.607 -2.4674 -1.9012  0.3539
   16MOL    H89 3119   1.096   2.505   3.484 -1.3120 -0.4874 -0.9884
   16MOL    H90 3120   0.855   2.561   3.449 -0.3788 -1.5587  0.5172
   16MOL    H91 3121   0.826   2.563   3.617  1.9024 -0.0287  1.7485
   16MOL    C92 3122   0.927   2.747   3.557 -0.2212 -0.3505 -0.4779
   16MOL    C93 3123   0.806   2.836   3.562  0.0421 -0.2638  0.3197
   16MOL   Cl94 3124   0.740   2.854   3.720  0.1779 -0.1881  0.4157
   16MOL    C95 3125   0.742   2.900   3.461  0.0374 -0.1527 -0.0912
   16MOL    C96 3126   0.774   2.885   3.311  0.2587  1.0086 -0.0507
   16MOL    H97 3127   1.004   2.781   3.489  0.4545  1.5355  1.1802
   16MOL    H98 3128   0.973   2.763   3.654 -0.3387 -1.0342 -0.3106
   16MOL    H99 3129   0.663   2.970   3.486 -0.6743  0.1977 -3.1290
   16MOL   H100 3130   0.882   2.875   3.302  0.0248 -1.1732 -0.8892
   16MOL   H101 3131   0.735   2.787   3.282 -0.1659  1.3386 -0.6003
   16MOL   C102 3132   0.721   3.001   3.228  0.0490 -0.4511  0.3793
   16MOL   C103 3133   0.755   2.992   3.082 -0.0206 -0.2923  0.0523
   16MOL  Cl104 3134   0.921   3.027   3.056 -0.3544  0.3380 -0.3874
   16MOL   C105 3135   0.673   2.976   2.980 -0.5904  0.8842 -1.0634
   16MOL   C106 3136   0.712   2.961   2.836  0.2184  0.4441  0.3946
   16MOL   H107 3137   0.613   2.992   3.239 -0.0635 -1.2300 -1.1204
   16MOL   H108 3138   0.737   3.101   3.268 -2.9818 -0.1346  0.8590
   16MOL   H109 3139   0.569   2.963   3.007  0.0008 -0.5335  0.6098
   16MOL   H110 3140   0.821   2.955   2.836  0.3579  2.4048 -1.2874
   16MOL   H111 3141   0.660   2.874   2.794 -0.2611  1.6324 -1.5461
   16MOL   C112 3142   0.673   3.083   2.747 -0.6427 -0.2425  0.0854
   16MOL   C113 3143   0.689   3.052   2.600  0.6256  1.1529  0.0957
   16MOL  Cl114 3144   0.838   3.105   2.537  0.5472 -0.3362 -0.2693
   16MOL   C115 3145   0.592   3.001   2.514  0.3102  0.1607  0.1031
   16MOL   C116 3146   0.455   2.950   2.543 -0.4202 -0.9760 -0.0735
   16MOL   H117 3147   0.578   3.134   2.766 -0.6932 -0.2182 -0.2253
   16MOL   H118 3148   0.751   3.155   2.773 -0.0472  0.1271 -2.5933
   16MOL   H119 3149   0.615   2.994   2.409 -1.1317  0.3558 -0.2281
   16MOL   H120 3150   0.380   3.026   2.521  0.6952 -0.1142 -0.9516
   16MOL   H121 3151   0.442   2.921   2.647  0.4676  0.1642  0.3600
   16MOL   C122 3152   0.412   2.826   2.465 -0.5742 -0.2887  0.0011
   16MOL   C123 3153   0.297   2.860   2.371 -0.4621 -0.6331  0.2549
   16MOL  Cl124 3154   0.347   2.901   2.212  0.1951 -0.1953 -0.6906
   16MOL   C125 3155   0.165   2.846   2.387 -0.7174  0.2875  0.2896
   16MOL   C126 3156   0.096   2.784   2.504  0.1694 -0.2294 -0.3432
   16MOL   H127 3157   0.500   2.787   2.415 -0.6616 -2.2904  1.3146
   16MOL   H128 3158   0.388   2.745   2.535  1.7481  0.4192  1.6748
   16MOL   H129 3159   0.102   2.878   2.306 -0.7873 -0.7072 -0.0542
   16MOL   H130 3160   0.078   2.679   2.482  1.2900 -0.6507  0.6370
   16MOL   H131 3161   0.156   2.776   2.595  0.7584 -2.3501 -0.8872
   16MOL   C132 3162   8.388   2.859   2.536 -0.0133  0.3356 -0.1193
   16MOL   C133 3163   8.329   2.829   2.679  0.0632 -0.0422  0.6878
   16MOL  Cl134 3164   8.416   2.915   2.805  0.1830 -0.3106 -0.2150
   16MOL   C135 3165   8.237   2.738   2.709 -0.2575  0.6249 -0.5834
   16MOL   C136 3166   8.163   2.647   2.608  0.1835  0.1203  0.7730
   16MOL   H137 3167   8.391   2.967   2.522 -0.5821  0.3404 -0.1951
   16MOL   H138 3168   8.303   2.838   2.471 -2.5296  1.0286  2.8388
   16MOL   H139 3169   8.204   2.719   2.810 -0.0907 -1.1791 -0.8546
   16MOL   H140 3170   8.062   2.683   2.589  0.1590  0.3418  1.3204
   16MOL   H141 3171   8.212   2.647   2.510  0.1616 -1.8319  0.7339
   16MOL   C142 3172   8.157   2.496   2.644 -0.0558  0.2284  0.2273
   16MOL   C143 3173   8.032   2.437   2.586 -0.2350  0.9208 -0.3511
   16MOL  Cl144 3174   8.066   2.363   2.435 -0.0603  0.0644 -0.2138
   16MOL   C145 3175   7.915   2.424   2.652 -0.5428  0.3014 -0.3570
   16MOL   C146 3176   7.794   2.353   2.595  0.1251  0.0131  0.4300
   16MOL   H147 3177   8.130   2.481   2.748 -0.7708 -0.1113 -0.0020
   16MOL   H148 3178   8.251   2.445   2.622  0.1609  0.2413  1.1058
   16MOL   H149 3179   7.905   2.456   2.754 -0.3589  0.7440 -0.4740
   16MOL   H150 3180   7.816   2.322   2.493  2.1880 -1.5656  1.3221
   16MOL   H151 3181   7.775   2.261   2.650 -0.7457  0.3669  0.7436
   16MOL   C152 3182   7.663   2.438   2.594 -0.3537 -0.0231  0.3294
   16MOL   C153 3183   7.565   2.392   2.487 -0.5006 -0.8471  0.2350
   16MOL  Cl154 3184   7.467   2.525   2.433  0.2795  0.2417 -0.1135
   16MOL   C155 3185   7.553   2.272   2.442  0.0535 -0.1911 -0.3566
   16MOL   C156 3186   7.454   2.235   2.335 -0.3483  0.1251 -0.2707
   16MOL   H157 3187   7.616   2.427   2.692 -1.5678  0.0530 -0.2359
   16MOL   H158 3188   7.690   2.542   2.578  0.6407 -0.5094 -1.3320
   16MOL   H159 3189   7.621   2.194   2.472  0.6729 -0.2817 -1.9303
   16MOL   H160 3190   7.512   2.176   2.263  1.5252  0.4196  0.9687
   16MOL   H161 3191   7.431   2.327   2.281 -3.7141 -0.7639 -0.4736
   16MOL   C162 3192   7.340   2.145   2.379  0.2499 -0.2335  0.2586
   16MOL   C163 3193   7.258   2.082   2.269  0.9340 -0.1927 -0.4221
   16MOL  Cl164 3194   7.187   1.940   2.334 -0.1901  0.1022  0.0674
   16MOL   C165 3195   7.243   2.131   2.146  0.2286  0.5309 -0.1011
   16MOL   C166 3196   7.160   2.063   2.035  0.0556 -0.0432  0.0338
   16MOL   H167 3197   7.391   2.067   2.436 -2.0320 -1.4141  0.7402
   16MOL   H168 3198   7.275   2.199   2.448  0.3984 -1.2865  1.2597
   16MOL   H169 3199   7.297   2.218   2.114  0.5774  0.8528  1.3309
   16MOL   H170 3200   7.081   2.001   2.076  0.5882 -2.2151 -2.0868
   16MOL   H171 3201   7.108   2.140   1.977  1.6976  0.6598 -0.5348
   16MOL   C172 3202   7.256   1.973   1.948 -0.1162  0.5555 -0.2112
   16MOL   C173 3203   7.194   1.905   1.827 -0.0235  0.2985 -0.0451
   16MOL  Cl174 3204   7.243   1.736   1.825  0.0353 -0.3026  0.2116
   16MOL   C175 3205   7.115   1.953   1.732 -0.0505 -0.1252  0.1406
   16MOL   C176 3206   7.038   1.885   1.624  0.1170  0.5439 -0.8174
   16MOL   H177 3207   7.293   1.902   2.023 -0.8372  2.2761  1.8439
   16MOL   H178 3208   7.349   2.024   1.921 -0.2037  0.3197 -0.9695
   16MOL   H179 3209   7.092   2.058   1.739  0.8150  0.2707 -2.4856
   16MOL   H180 3210   6.934   1.870   1.653  0.2151  0.6363 -0.4070
   16MOL   H181 3211   7.078   1.786   1.603  0.6737  0.5115  0.3697
   16MOL   C182 3212   7.031   1.965   1.495  0.4865 -0.0628  0.0038
   16MOL   C183 3213   6.949   1.901   1.385  0.4408  0.7834  0.4013
   16MOL  Cl184 3214   6.784   1.965   1.378  0.0431  0.3232 -0.3948
   16MOL   C185 3215   6.985   1.803   1.311 -0.1091  0.5924  0.7687
   16MOL   C186 3216   6.897   1.733   1.204  0.0822 -0.1066  0.2780
   16MOL   H187 3217   7.002   2.069   1.509 -0.8038 -0.6393  1.7761
   16MOL   H188 3218   7.135   1.965   1.463  0.3216 -0.1790 -0.5393
   16MOL   H189 3219   7.083   1.762   1.333 -1.1357 -1.3452  1.8772
   16MOL   H190 3220   6.809   1.787   1.169 -0.1364 -1.3189 -1.0826
   16MOL   H191 3221   6.950   1.705   1.113 -4.5719  0.7436 -2.8556
   16MOL   C192 3222   6.857   1.593   1.258 -0.5943  0.4168  0.7412
   16MOL   C193 3223   6.778   1.511   1.155  0.4962 -0.5018  0.3913
   16MOL  Cl194 3224   6.865   1.375   1.086  0.1053  0.0733  0.3091
   16MOL   C195 3225   6.651   1.512   1.127  0.4245 -0.4367  0.5668
   16MOL   C196 3226   6.546   1.611   1.191  0.3707  0.0203 -0.4166
   16MOL   H197 3227   6.785   1.608   1.338 -1.3115 -0.8143  0.3326
   16MOL   H198 3228   6.937   1.544   1.312  0.8134  0.7611 -0.9673
   16MOL   H199 3229   6.613   1.444   1.053 -1.7142  0.1038  1.1226
   16MOL   H200 3230   6.579   1.652   1.286  1.1001  1.3239 -1.2212
   16MOL   H201 3231   6.454   1.558   1.218  1.2710 -1.0794  0.5671
   16MOL   H202 3232   6.533   1.699   1.128 -1.6406 -0.1910 -0.3317
   17MOL     C1 3233   5.881   2.840   1.455  0.2581  0.3217  0.7648
   17MOL     C2 3234   6.002   2.796   1.371  0.6043 -0.3468  0.2904
   17MOL    Cl3 3235   5.940   2.724   1.225  0.2658 -0.4299 -0.1575
   17MOL     C4 3236   6.136   2.813   1.392  0.9898 -0.5655  0.4967
   17MOL     C5 3237   6.194   2.890   1.509  0.5966  0.2890  0.0211
   17MOL     H6 3238   5.816   2.753   1.466 -1.9970  1.9557  0.5785
   17MOL     H7 3239   5.830   2.930   1.421 -0.3067 -0.9612 -1.9905
   17MOL     H8 3240   6.203   2.772   1.319 -0.7767 -2.3464 -0.1680
   17MOL     H9 3241   6.112   2.943   1.557 -0.9114  0.0728 -2.2259
   17MOL    H10 3242   6.240   2.828   1.586 -0.3856  2.5732  2.5256
   17MOL    H11 3243   5.912   2.857   1.558 -0.4193 -0.3664  1.0927
   17MOL    C12 3244   6.300   2.990   1.435  0.1139  0.8351 -0.1452
   17MOL    C13 3245   6.361   3.090   1.532 -0.6217  0.4751 -0.4081
   17MOL   Cl14 3246   6.305   3.242   1.493  0.0781  0.2956  0.0765
   17MOL    C15 3247   6.449   3.059   1.630 -0.3627 -0.1971  0.7718
   17MOL    C16 3248   6.513   2.920   1.658 -0.4729 -1.0588 -0.4705
   17MOL    H17 3249   6.378   2.931   1.387 -1.7662  0.4259 -2.7942
   17MOL    H18 3250   6.263   3.030   1.341 -1.5657 -2.9366 -1.1722
   17MOL    H19 3251   6.476   3.144   1.690 -2.1731 -1.4358  3.4299
   17MOL    H20 3252   6.476   2.850   1.583 -1.8747  0.1663 -0.9735
   17MOL    H21 3253   6.621   2.924   1.644 -0.3778 -0.8120  0.3402
   17MOL    C22 3254   6.476   2.869   1.802 -0.7130  0.2345 -0.4326
   17MOL    C23 3255   6.538   2.963   1.902  0.6857  0.3310  0.4287
   17MOL   Cl24 3256   6.711   2.931   1.918  0.0260  0.4145 -0.0329
   17MOL    C25 3257   6.469   3.059   1.971  0.0145  0.6476 -0.7779
   17MOL    C26 3258   6.525   3.160   2.067 -0.0205  0.1429 -0.0341
   17MOL    H27 3259   6.370   2.850   1.819 -0.2992 -2.5790 -0.8857
   17MOL    H28 3260   6.517   2.772   1.830 -1.2745  0.5589  1.6315
   17MOL    H29 3261   6.363   3.067   1.952  0.4116  0.5025 -3.2436
   17MOL    H30 3262   6.600   3.108   2.127 -1.3766 -0.0938  1.4881
   17MOL    H31 3263   6.571   3.242   2.012  1.5594 -2.5081 -2.8540
   17MOL    C32 3264   6.417   3.209   2.157  0.3192 -0.3434  0.0910
   17MOL    C33 3265   6.460   3.313   2.258 -0.2570 -0.1027 -0.0944
   17MOL   Cl34 3266   6.326   3.391   2.331 -0.3957  0.1371  0.0326
   17MOL    C35 3267   6.582   3.347   2.299 -0.5608 -0.2557  0.5202
   17MOL    C36 3268   6.613   3.456   2.398  0.4115  0.2938 -0.2381
   17MOL    H37 3269   6.339   3.257   2.099 -0.0032  0.6544  1.3259
   17MOL    H38 3270   6.363   3.134   2.214  0.2068 -0.8611 -0.6875
   17MOL    H39 3271   6.662   3.288   2.257 -0.5005  2.2133 -2.9975
   17MOL    H40 3272   6.698   3.506   2.352  0.3698  0.5096 -0.0835
   17MOL    H41 3273   6.531   3.528   2.396 -0.0256 -0.1828  0.5940
   17MOL    C42 3274   6.636   3.394   2.534 -0.3113 -0.5674  0.1690
   17MOL    C43 3275   6.645   3.493   2.642  0.0064  0.1634  0.4162
   17MOL   Cl44 3276   6.806   3.557   2.635  0.0503  0.1212 -0.1863
   17MOL    C45 3277   6.551   3.527   2.726 -0.2480  0.2205 -0.3136
   17MOL    C46 3278   6.408   3.484   2.736  0.0647 -0.3701  0.0193
   17MOL    H47 3279   6.559   3.319   2.552  0.5766 -2.1998 -2.5811
   17MOL    H48 3280   6.726   3.333   2.530  0.6269  0.5707  2.5234
   17MOL    H49 3281   6.578   3.592   2.808 -1.3414 -0.3568  0.5091
   17MOL    H50 3282   6.341   3.568   2.718 -1.5764 -1.8335 -0.9140
   17MOL    H51 3283   6.375   3.439   2.642 -0.0378  0.7575 -0.5012
   17MOL    C52 3284   6.371   3.408   2.868  0.2183  0.7601  0.7668
   17MOL    C53 3285   6.422   3.264   2.871 -0.8611 -0.4894 -0.3410
   17MOL   Cl54 3286   6.459   3.222   3.038 -0.0793  0.3285 -0.3629
   17MOL    C55 3287   6.426   3.177   2.772 -0.1719  0.4900  0.0942
   17MOL    C56 3288   6.461   3.031   2.772  0.1967 -0.2138 -0.4480
   17MOL    H57 3289   6.399   3.466   2.956  0.6392  1.1331  0.3921
   17MOL    H58 3290   6.262   3.409   2.871  0.2172  0.3382  0.9742
   17MOL    H59 3291   6.394   3.215   2.676 -1.4954  0.8633  0.6674
   17MOL    H60 3292   6.554   3.022   2.717 -0.1264 -0.1083 -1.0093
   17MOL    H61 3293   6.485   2.997   2.873 -0.1178 -1.0931 -0.6571
   17MOL    C62 3294   6.342   2.948   2.711 -0.4806  0.4697 -0.5516
   17MOL    C63 3295   6.363   2.794   2.714 -0.4740 -0.1571  0.0062
   17MOL   Cl64 3296   6.375   2.719   2.555 -0.1571  0.5581  0.0194
   17MOL    C65 3297   6.364   2.714   2.819 -0.4788 -0.0424  0.3215
   17MOL    C66 3298   6.380   2.560   2.827 -0.1790  0.1210  0.9754
   17MOL    H67 3299   6.265   2.962   2.787 -0.1886 -1.4996  0.1432
   17MOL    H68 3300   6.316   2.974   2.608 -0.2419  1.4447 -0.3700
   17MOL    H69 3301   6.341   2.761   2.914 -0.5792  2.4699 -0.9167
   17MOL    H70 3302   6.390   2.520   2.727  0.2294 -1.3540  1.5948
   17MOL    H71 3303   6.282   2.524   2.861 -0.8765  0.6844 -0.4147
   17MOL    C72 3304   6.502   2.516   2.918  0.3093  0.1973  0.8262
   17MOL    C73 3305   6.530   2.364   2.902 -0.0499  0.1515  0.4146
   17MOL   Cl74 3306   6.660   2.328   2.792 -0.2331 -0.1862 -0.0871
   17MOL    C75 3307   6.465   2.269   2.966 -0.4166 -0.2804 -0.0996
   17MOL    C76 3308   6.494   2.119   2.965  0.5797  0.3901  0.6576
   17MOL    H77 3309   6.496   2.545   3.023 -0.0094  0.1592  0.8166
   17MOL    H78 3310   6.592   2.564   2.878  0.2063  1.1983  1.7663
   17MOL    H79 3311   6.385   2.304   3.030 -1.2531 -0.5115 -0.9995
   17MOL    H80 3312   6.573   2.089   2.896  1.2051 -3.8273  2.9797
   17MOL    H81 3313   6.408   2.062   2.931 -0.5888  3.8307 -2.4453
   17MOL    C82 3314   6.550   2.086   3.103  0.4017  0.2113 -0.5398
   17MOL    C83 3315   6.591   1.941   3.132 -0.8663  0.3279 -0.1249
   17MOL   Cl84 3316   6.464   1.838   3.181 -0.3811 -0.1124 -0.0101
   17MOL    C85 3317   6.712   1.895   3.119  0.1038  0.4153 -0.7237
   17MOL    C86 3318   6.759   1.763   3.159  0.3726  0.4538  0.0020
   17MOL    H87 3319   6.484   2.117   3.184  0.5184 -1.5328  0.2411
   17MOL    H88 3320   6.635   2.153   3.120 -0.4950  1.2188  0.0370
   17MOL    H89 3321   6.795   1.960   3.092 -0.1348  2.0192  2.1313
   17MOL    H90 3322   6.680   1.693   3.188  0.7416 -0.2536 -0.6876
   17MOL    H91 3323   6.786   1.712   3.067  0.6068  0.5094  0.0402
   17MOL    C92 3324   6.879   1.770   3.253 -0.4165 -1.0839 -0.0028
   17MOL    C93 3325   6.929   1.641   3.303  0.2900 -0.3050 -1.5936
   17MOL   Cl94 3326   6.850   1.610   3.458  0.4509 -0.2733 -0.0838
   17MOL    C95 3327   7.012   1.552   3.243  0.2054 -0.0462 -0.5404
   17MOL    C96 3328   7.090   1.578   3.107 -0.1286  0.3526 -0.4473
   17MOL    H97 3329   6.841   1.835   3.332 -0.9141  0.5474 -1.5541
   17MOL    H98 3330   6.961   1.827   3.209 -1.1363 -0.1346 -0.1587
   17MOL    H99 3331   7.032   1.458   3.292  2.1069  0.8215  0.3860
   17MOL   H100 3332   7.050   1.663   3.052 -0.8468  0.6799  0.5671
   17MOL   H101 3333   7.190   1.609   3.139 -0.5455  1.3173 -0.0595
   17MOL   C102 3334   7.084   1.453   3.016 -0.2996 -0.6366  0.1745
   17MOL   C103 3335   7.153   1.468   2.879 -0.1328  0.7420  0.5667
   17MOL  Cl104 3336   7.321   1.427   2.903 -0.0593 -0.0312 -0.2243
   17MOL   C105 3337   7.095   1.478   2.753 -0.4860 -0.0985 -0.6608
   17MOL   C106 3338   7.155   1.478   2.611 -0.2121  0.3910  0.1601
   17MOL   H107 3339   7.124   1.370   3.073  0.4597 -0.4032 -0.0089
   17MOL   H108 3340   6.981   1.418   3.003 -0.7775  0.8159 -0.1113
   17MOL   H109 3341   6.989   1.499   2.758 -0.5610  0.1641 -2.9997
   17MOL   H110 3342   7.263   1.487   2.618 -0.3273  1.9432  0.2430
   17MOL   H111 3343   7.122   1.383   2.570 -2.0274  2.0950 -2.5350
   17MOL   C112 3344   7.104   1.602   2.538  0.1277 -0.0285 -0.7640
   17MOL   C113 3345   7.166   1.593   2.397  0.0381  0.2513 -0.1730
   17MOL  Cl114 3346   7.331   1.622   2.408  0.1218 -0.1325 -0.0732
   17MOL   C115 3347   7.110   1.566   2.278  0.0358 -0.0117 -0.4947
   17MOL   C116 3348   6.960   1.541   2.245 -0.2096  0.1320  0.2689
   17MOL   H117 3349   6.998   1.614   2.518  0.5229 -0.0979 -3.0416
   17MOL   H118 3350   7.140   1.692   2.587 -0.5786  0.7513 -1.6584
   17MOL   H119 3351   7.168   1.563   2.188  1.6081 -0.2037  0.5109
   17MOL   H120 3352   6.893   1.528   2.330  2.0336 -1.0899  1.9004
   17MOL   H121 3353   6.965   1.444   2.194 -0.0356  1.0595 -1.5143
   17MOL   C122 3354   6.895   1.663   2.177 -0.0404 -0.3373 -0.0901
   17MOL   C123 3355   6.740   1.660   2.159  0.0159  0.1003  0.1553
   17MOL  Cl124 3356   6.660   1.753   2.279  0.0240  0.3555 -0.5243
   17MOL   C125 3357   6.668   1.604   2.059 -0.1422  0.2576  0.0624
   17MOL   C126 3358   6.718   1.523   1.939 -0.1970 -0.6037  0.9438
   17MOL   H127 3359   6.925   1.748   2.237 -0.1374 -1.3607  1.4230
   17MOL   H128 3360   6.940   1.677   2.079  2.5072  0.1396  1.1110
   17MOL   H129 3361   6.560   1.608   2.060 -0.1261  1.3214 -0.7420
   17MOL   H130 3362   6.811   1.471   1.962  0.8435  1.2401  0.9476
   17MOL   H131 3363   6.642   1.448   1.915 -3.0507  1.1887  3.9863
   17MOL   C132 3364   6.733   1.625   1.823 -0.0985 -0.3579  0.1040
   17MOL   C133 3365   6.746   1.546   1.688 -0.6990 -0.2073  0.5910
   17MOL  Cl134 3366   6.908   1.516   1.647  0.3285 -0.0361 -0.0941
   17MOL   C135 3367   6.651   1.518   1.599 -0.3964 -0.7142 -0.2715
   17MOL   C136 3368   6.506   1.554   1.637 -0.0790 -0.3520  0.0542
   17MOL   H137 3369   6.651   1.695   1.807 -0.4315 -0.5659  0.8724
   17MOL   H138 3370   6.818   1.687   1.848 -0.3809  0.4112 -0.8364
   17MOL   H139 3371   6.677   1.462   1.511 -1.5036 -1.2226 -0.2833
   17MOL   H140 3372   6.488   1.598   1.734 -0.6855 -0.1014 -0.1670
   17MOL   H141 3373   6.469   1.634   1.573 -0.9310  0.7681  1.9234
   17MOL   C142 3374   6.406   1.433   1.614  0.5873  0.4760 -0.0206
   17MOL   C143 3375   6.418   1.329   1.719  0.3932 -0.1124 -0.1116
   17MOL  Cl144 3376   6.335   1.374   1.861 -0.3629  0.0315  0.1805
   17MOL   C145 3377   6.480   1.208   1.698 -0.5341  0.1403  0.4866
   17MOL   C146 3378   6.487   1.101   1.799 -0.1133 -0.4472  0.2067
   17MOL   H147 3379   6.423   1.390   1.515  0.2986 -1.9649  0.9578
   17MOL   H148 3380   6.305   1.471   1.599  0.8076  1.0117 -0.1528
   17MOL   H149 3381   6.524   1.182   1.604  0.5928  1.4932  0.6200
   17MOL   H150 3382   6.449   1.139   1.894 -1.2300  2.2409 -1.2676
   17MOL   H151 3383   6.422   1.020   1.767 -0.4440  0.0455 -0.3884
   17MOL   C152 3384   6.628   1.056   1.821  0.2770  0.0728  0.1535
   17MOL   C153 3385   6.648   0.954   1.935  0.2999 -0.2136  0.2462
   17MOL  Cl154 3386   6.570   0.802   1.915 -0.0866 -0.0392 -0.1913
   17MOL   C155 3387   6.728   0.980   2.037  0.3484  0.3541 -0.5055
   17MOL   C156 3388   6.761   0.884   2.142  0.3231  0.3326 -0.0502
   17MOL   H157 3389   6.665   1.019   1.726  1.0455 -0.7742  0.7691
   17MOL   H158 3390   6.683   1.148   1.841 -0.2056  0.8210 -1.8453
   17MOL   H159 3391   6.773   1.078   2.031 -1.1720  1.0988  0.1144
   17MOL   H160 3392   6.844   0.818   2.117  0.4429  0.4367  0.0673
   17MOL   H161 3393   6.681   0.811   2.151  0.3594  0.2080 -0.7625
   17MOL   C162 3394   6.782   0.940   2.280  0.2951 -0.3419  0.0242
   17MOL   C163 3395   6.840   0.845   2.384 -0.1782  0.1413  0.0884
   17MOL  Cl164 3396   7.014   0.837   2.369 -0.3371 -0.0260  0.0903
   17MOL   C165 3397   6.770   0.764   2.464 -0.5383  0.0284 -0.5407
   17MOL   C166 3398   6.839   0.662   2.564  0.3713  0.2021  0.5578
   17MOL   H167 3399   6.854   1.023   2.278 -0.4685  0.3588  0.9250
   17MOL   H168 3400   6.693   0.993   2.315  0.2519  1.3678 -2.4576
   17MOL   H169 3401   6.664   0.779   2.453 -0.5363 -0.1462 -0.7946
   17MOL   H170 3402   6.945   0.689   2.571  0.3094  0.0305  2.2911
   17MOL   H171 3403   6.800   0.681   2.664 -0.5972  0.5978  0.1046
   17MOL   C172 3404   6.811   0.514   2.545 -0.0955 -0.1888 -0.0321
   17MOL   C173 3405   6.866   0.473   2.416 -0.1734  0.5410 -0.1508
   17MOL  Cl174 3406   7.025   0.424   2.425 -0.7134  0.4320 -0.3892
   17MOL   C175 3407   6.794   0.480   2.307  0.3294  0.0784 -0.6206
   17MOL   C176 3408   6.828   0.419   2.175  0.2720  0.5384  0.0758
   17MOL   H177 3409   6.703   0.499   2.555 -0.1245 -0.1878 -0.3546
   17MOL   H178 3410   6.862   0.456   2.622 -0.3652  1.2365  1.2505
   17MOL   H179 3411   6.699   0.529   2.318  0.5363  0.1003  1.1241
   17MOL   H180 3412   6.752   0.350   2.137  0.8528  0.7135 -1.4308
   17MOL   H181 3413   6.917   0.358   2.191 -0.9512 -0.5051  3.2366
   17MOL   C182 3414   6.836   0.524   2.063  0.0491 -0.0703  0.2194
   17MOL   C183 3415   6.888   0.471   1.930 -0.6347 -0.1058 -0.4343
   17MOL  Cl184 3416   6.838   0.574   1.808 -0.1639  0.3569  0.1529
   17MOL   C185 3417   6.959   0.356   1.907  0.7363 -0.6344 -0.3071
   17MOL   C186 3418   7.002   0.310   1.765  0.5818  0.0912 -0.8567
   17MOL   H187 3419   6.741   0.578   2.062  1.3333  2.3366  2.7876
   17MOL   H188 3420   6.903   0.606   2.088 -2.7320  2.5828 -0.6646
   17MOL   H189 3421   6.970   0.282   1.984  0.8862  0.0355  0.3182
   17MOL   H190 3422   6.990   0.203   1.752 -1.2666  0.4397 -2.1716
   17MOL   H191 3423   6.945   0.360   1.687  1.4115  1.2594 -0.7359
   17MOL   C192 3424   7.150   0.335   1.745  0.4264 -0.4286  0.0472
   17MOL   C193 3425   7.197   0.273   1.620 -0.1835 -0.1657 -0.0298
   17MOL  Cl194 3426   7.253   0.109   1.632 -0.3621 -0.1888  0.2086
   17MOL   C195 3427   7.195   0.338   1.500  0.3158 -0.4875 -0.4592
   17MOL   C196 3428   7.147   0.480   1.475 -0.0184  0.1022 -0.1386
   17MOL   H197 3429   7.213   0.288   1.821  0.1593  1.1401  1.2689
   17MOL   H198 3430   7.176   0.440   1.752  1.8080 -0.6835 -1.0322
   17MOL   H199 3431   7.232   0.287   1.413  1.8948 -0.6210  0.2689
   17MOL   H200 3432   7.039   0.491   1.466 -0.1918 -0.5447  0.9738
   17MOL   H201 3433   7.187   0.509   1.378  1.0404  0.5265  0.4082
   17MOL   H202 3434   7.176   0.538   1.562 -1.2555  0.0972  0.2895
   18MOL     C1 3435   4.966   6.872   6.343 -0.4702  0.5534  0.2743
   18MOL     C2 3436   4.982   6.738   6.276  0.3954  0.0704 -0.0546
   18MOL    Cl3 3437   4.998   6.609   6.388 -0.0282 -0.0906 -0.7217
   18MOL     C4 3438   4.967   6.712   6.142 -0.7948  0.2166 -0.1591
   18MOL     C5 3439   4.943   6.811   6.032 -0.2156  0.4989  0.5894
   18MOL     H6 3440   4.861   6.887   6.367 -1.0641 -0.1363 -1.8765
   18MOL     H7 3441   4.995   6.950   6.272 -3.2868  2.2282  0.9044
   18MOL     H8 3442   4.987   6.612   6.105 -0.9066 -0.6884  2.1275
   18MOL     H9 3443   4.839   6.803   6.000 -0.0792 -0.5677  0.3979
   18MOL    H10 3444   4.950   6.909   6.079 -1.6888  0.5987  0.6143
   18MOL    H11 3445   5.022   6.885   6.436  0.9579  1.4457 -0.6912
   18MOL    C12 3446   5.034   6.794   5.915 -0.4359  0.1948 -0.3632
   18MOL    C13 3447   5.105   6.923   5.868  0.3704  0.1099 -0.0996
   18MOL   Cl14 3448   5.238   6.952   5.976 -0.3546 -0.2447  0.3298
   18MOL    C15 3449   5.070   7.007   5.771  0.7317  0.4075  0.1901
   18MOL    C16 3450   4.957   6.977   5.680  0.1363 -0.0576 -0.5374
   18MOL    H17 3451   5.118   6.725   5.925 -0.2300  0.7036  1.7519
   18MOL    H18 3452   4.975   6.755   5.832  0.3570  0.5236 -1.0949
   18MOL    H19 3453   5.128   7.095   5.753  0.8200  0.5923  1.3323
   18MOL    H20 3454   4.872   6.927   5.725  0.1412 -0.5275 -1.0423
   18MOL    H21 3455   4.927   7.076   5.646  0.3543 -0.2139 -1.1946
   18MOL    C22 3456   5.004   6.892   5.566  0.1209  0.5795  1.1710
   18MOL    C23 3457   4.900   6.877   5.454 -0.1847  0.1008  0.1962
   18MOL   Cl24 3458   4.882   7.024   5.362  0.3694  0.8591  0.2065
   18MOL    C25 3459   4.849   6.759   5.419  0.3071 -0.3943 -0.1669
   18MOL    C26 3460   4.739   6.741   5.324  0.4651 -0.5413 -0.2401
   18MOL    H27 3461   5.093   6.926   5.513 -1.7857  1.3964 -1.5790
   18MOL    H28 3462   5.024   6.794   5.610 -0.1529  0.1276  0.2963
   18MOL    H29 3463   4.893   6.676   5.473  1.6266 -0.6613 -1.6218
   18MOL    H30 3464   4.697   6.644   5.353 -0.2338 -0.5371 -1.2327
   18MOL    H31 3465   4.662   6.818   5.327  1.9540  0.9516  0.5384
   18MOL    C32 3466   4.784   6.736   5.173 -0.0095 -0.1018  0.0192
   18MOL    C33 3467   4.674   6.659   5.097  0.3671 -0.1278  0.3357
   18MOL   Cl34 3468   4.693   6.486   5.090  0.5269  0.1853 -0.0671
   18MOL    C35 3469   4.581   6.723   5.026  0.0062  0.5172 -0.8825
   18MOL    C36 3470   4.473   6.657   4.941  0.2587  0.4757 -0.7548
   18MOL    H37 3471   4.800   6.834   5.128  0.9648 -0.1272  0.2990
   18MOL    H38 3472   4.880   6.684   5.163  0.6807  1.2793 -0.6491
   18MOL    H39 3473   4.587   6.830   5.036  0.8061  0.4286 -0.3076
   18MOL    H40 3474   4.464   6.707   4.845  2.0911 -0.4465 -1.4276
   18MOL    H41 3475   4.495   6.551   4.934  2.2027  1.0335 -3.9424
   18MOL    C42 3476   4.340   6.672   5.020  0.8705 -0.0963 -0.0432
   18MOL    C43 3477   4.328   6.618   5.162 -0.5107 -0.3241 -0.4794
   18MOL   Cl44 3478   4.298   6.449   5.176 -0.1244 -0.2351 -0.1769
   18MOL    C45 3479   4.341   6.690   5.271  1.3369 -0.4799  0.2897
   18MOL    C46 3480   4.366   6.844   5.268  0.1990  0.1115  0.5728
   18MOL    H47 3481   4.313   6.777   5.006 -0.5003 -0.3121  0.8234
   18MOL    H48 3482   4.268   6.615   4.960  0.3632  1.2531 -0.7415
   18MOL    H49 3483   4.325   6.641   5.366  2.4806 -2.0273 -0.3073
   18MOL    H50 3484   4.457   6.866   5.213  2.4634 -0.1929  4.0578
   18MOL    H51 3485   4.284   6.876   5.204  1.0557  1.9075  0.3285
   18MOL    C52 3486   4.390   6.886   5.414 -0.8515  0.4440  0.6155
   18MOL    C53 3487   4.420   7.026   5.437 -0.3766 -0.1169 -0.0593
   18MOL   Cl54 3488   4.547   7.046   5.556  0.2314 -0.1458 -0.1454
   18MOL    C55 3489   4.354   7.130   5.380  0.6128  0.8473 -0.0542
   18MOL    C56 3490   4.396   7.271   5.398 -0.4987  0.3803  0.3739
   18MOL    H57 3491   4.299   6.852   5.464 -0.6303 -2.0094 -0.5656
   18MOL    H58 3492   4.471   6.826   5.455 -0.1144  0.8071 -0.2942
   18MOL    H59 3493   4.268   7.113   5.317 -0.0563 -1.1629  1.3725
   18MOL    H60 3494   4.418   7.286   5.504 -3.7036  0.0811  1.1403
   18MOL    H61 3495   4.488   7.298   5.347  0.2896 -2.4272  0.2399
   18MOL    C62 3496   4.292   7.372   5.335 -0.4722  0.0986 -0.5006
   18MOL    C63 3497   4.321   7.516   5.379 -0.8654 -0.2622  0.4033
   18MOL   Cl64 3498   4.450   7.589   5.287 -0.1505 -0.7509  0.0218
   18MOL    C65 3499   4.249   7.585   5.468  1.0360  0.2258  0.0972
   18MOL    C66 3500   4.252   7.740   5.496  0.2090  0.1130 -0.3308
   18MOL    H67 3501   4.289   7.358   5.227  0.1350 -2.8203 -0.1845
   18MOL    H68 3502   4.191   7.352   5.371 -0.1193  0.9826  1.0600
   18MOL    H69 3503   4.179   7.532   5.531 -0.1438  2.8052  1.0201
   18MOL    H70 3504   4.150   7.774   5.478 -0.0985 -0.1592  0.8723
   18MOL    H71 3505   4.318   7.797   5.430 -0.1484  2.0773  0.9828
   18MOL    C72 3506   4.297   7.782   5.635 -0.4693 -0.1024  0.1762
   18MOL    C73 3507   4.309   7.931   5.659  0.1815  0.7924  0.0914
   18MOL   Cl74 3508   4.386   7.957   5.813 -0.0781  0.1262 -0.4015
   18MOL    C75 3509   4.296   8.030   5.564  0.0587  0.0596 -0.1319
   18MOL    C76 3510   4.311   8.177   5.587  0.1976  0.0282 -0.4903
   18MOL    H77 3511   4.396   7.739   5.650 -0.6366 -0.4567  0.2699
   18MOL    H78 3512   4.228   7.731   5.702 -0.2761 -1.4981 -0.6477
   18MOL    H79 3513   4.268   8.000   5.464  0.0588  1.2804 -0.5125
   18MOL    H80 3514   4.327   8.174   5.695  0.9035  1.4741 -0.5340
   18MOL    H81 3515   4.218   8.229   5.566  0.9290  0.9086 -1.6138
   18MOL    C82 3516   4.439   8.232   5.504 -0.1139  0.7146  0.7598
   18MOL    C83 3517   4.439   8.375   5.478  0.3000 -0.5803 -0.3414
   18MOL   Cl84 3518   4.323   8.408   5.352  0.0786  0.3640 -0.0140
   18MOL    C85 3519   4.524   0.045   5.531  0.6113  0.1111 -0.0956
   18MOL    C86 3520   4.544   0.189   5.487  0.7958  0.3580  0.2551
   18MOL    H87 3521   4.437   8.177   5.410  3.6652  0.9896  0.4075
   18MOL    H88 3522   4.527   8.204   5.563 -0.4903 -0.0605  0.9601
   18MOL    H89 3523   4.595   0.021   5.609  0.2181 -0.7325  0.0126
   18MOL    H90 3524   4.530   0.192   5.379  0.0657 -0.5040  0.3194
   18MOL    H91 3525   4.481   0.263   5.535  1.6889  0.7290  0.8709
   18MOL    C92 3526   4.691   0.233   5.513 -0.1573  0.1396  0.2647
   18MOL    C93 3527   4.695   0.381   5.464  0.7033 -0.3458 -0.1289
   18MOL   Cl94 3528   4.667   0.405   5.294  0.0377 -0.1256  0.1698
   18MOL    C95 3529   4.715   0.488   5.541  0.6279  0.3079 -0.3682
   18MOL    C96 3530   4.736   0.494   5.688 -0.1312  0.0579 -0.6965
   18MOL    H97 3531   4.772   0.177   5.467 -1.1712 -1.4698  0.4305
   18MOL    H98 3532   4.706   0.235   5.621 -0.0467  0.2984  0.2472
   18MOL    H99 3533   4.711   0.581   5.486 -3.7393  0.8871  0.7012
   18MOL   H100 3534   4.736   0.401   5.745 -0.8813  1.0235  0.9263
   18MOL   H101 3535   4.834   0.537   5.711 -0.0976  0.0638 -0.8507
   18MOL   C102 3536   4.637   0.591   5.750 -0.2488 -0.1743 -0.0373
   18MOL   C103 3537   4.660   0.621   5.903  0.2403  0.0569  0.2541
   18MOL  Cl104 3538   4.516   0.584   6.001  0.4595  0.1772 -0.0328
   18MOL   C105 3539   4.772   0.690   5.950 -0.1278  0.1362  0.3158
   18MOL   C106 3540   4.792   0.738   6.096 -0.5353  0.0566  0.6334
   18MOL   H107 3541   4.640   0.686   5.696 -0.3817 -0.1110  0.0648
   18MOL   H108 3542   4.537   0.549   5.739 -1.2951  2.7036 -2.3243
   18MOL   H109 3543   4.850   0.715   5.880 -0.4517 -0.5487 -0.2910
   18MOL   H110 3544   4.713   0.702   6.162 -1.1785  1.7603  0.8228
   18MOL   H111 3545   4.888   0.702   6.131 -1.2340  0.1319  2.6740
   18MOL   C112 3546   4.777   0.891   6.103  0.1493  0.5725  0.0442
   18MOL   C113 3547   4.803   0.935   6.250 -0.6774 -0.8808 -0.5652
   18MOL  Cl114 3548   4.930   0.854   6.329  0.0141 -0.4637  0.1885
   18MOL   C115 3549   4.748   1.045   6.308 -0.4557  0.3546 -0.0732
   18MOL   C116 3550   4.649   1.137   6.242 -0.2230 -0.6374 -0.3563
   18MOL   H117 3551   4.853   0.935   6.039  0.6082  0.1152  0.2685
   18MOL   H118 3552   4.677   0.919   6.070  0.0018 -0.5177 -0.4289
   18MOL   H119 3553   4.766   1.073   6.411  0.4389  1.9518 -0.6458
   18MOL   H120 3554   4.549   1.096   6.258 -0.7036  1.5235  2.6803
   18MOL   H121 3555   4.655   1.121   6.135 -1.7729 -0.3989 -0.5028
   18MOL   C122 3556   4.674   1.288   6.274 -0.2213  0.3977  0.3269
   18MOL   C123 3557   4.591   1.382   6.198 -0.0523  0.0657  0.1373
   18MOL  Cl124 3558   4.677   1.455   6.069 -0.3845  0.1755  0.2117
   18MOL   C125 3559   4.464   1.414   6.222  0.1646  1.0475 -0.1827
   18MOL   C126 3560   4.384   1.374   6.342 -0.8310 -0.4258  0.3463
   18MOL   H127 3561   4.652   1.309   6.379 -0.5119  0.5033  0.2448
   18MOL   H128 3562   4.780   1.311   6.261 -0.2697 -0.3143 -1.4475
   18MOL   H129 3563   4.408   1.478   6.156 -1.7572  0.5774  0.9567
   18MOL   H130 3564   4.453   1.326   6.411 -0.7919 -0.4720  0.2754
   18MOL   H131 3565   4.350   1.459   6.402 -1.0031 -0.6745  0.6035
   18MOL   C132 3566   4.268   1.285   6.316  0.7400 -0.0847  0.0024
   18MOL   C133 3567   4.262   1.149   6.388 -0.4550 -0.1718  0.0353
   18MOL  Cl134 3568   4.237   1.170   6.557  0.2123 -0.0488  0.3162
   18MOL   C135 3569   4.278   1.024   6.337 -0.0377  0.4775  0.0288
   18MOL   C136 3570   4.290   0.975   6.190  0.5807 -0.4743 -0.7951
   18MOL   H137 3571   4.177   1.340   6.340  0.1443 -1.0689  0.0624
   18MOL   H138 3572   4.262   1.271   6.208  1.3247 -0.3084 -0.0040
   18MOL   H139 3573   4.286   0.945   6.410  1.5237  1.1495  0.6159
   18MOL   H140 3574   4.275   1.059   6.121  0.9987 -0.5098 -0.9261
   18MOL   H141 3575   4.393   0.942   6.192  0.3117 -1.2830  2.1745
   18MOL   C142 3576   4.192   0.857   6.159  0.0597  0.0791 -0.1788
   18MOL   C143 3577   4.198   0.824   6.011 -0.6543  0.1471 -0.2687
   18MOL  Cl144 3578   4.050   0.753   5.956 -0.1161  0.1365  0.0386
   18MOL   C145 3579   4.303   0.852   5.927 -0.4037  0.3035  0.6827
   18MOL   C146 3580   4.295   0.820   5.780  0.5118  0.8985  0.2951
   18MOL   H147 3581   4.094   0.897   6.187  0.6853  0.2670  1.8708
   18MOL   H148 3582   4.221   0.772   6.221 -3.1191 -0.3559  0.7998
   18MOL   H149 3583   4.398   0.895   5.956 -0.3500  0.0464  0.9011
   18MOL   H150 3584   4.332   0.719   5.766 -2.5106 -0.4322  1.4196
   18MOL   H151 3585   4.190   0.809   5.752 -0.2042  1.9966  2.3932
   18MOL   C152 3586   4.367   0.917   5.683 -0.2025  0.2728  0.4764
   18MOL   C153 3587   4.336   0.879   5.541  0.9917  0.8981 -0.0449
   18MOL  Cl154 3588   4.204   0.969   5.488  0.1615  0.1868  0.1860
   18MOL   C155 3589   4.389   0.778   5.470  0.5348  0.2573 -0.0225
   18MOL   C156 3590   4.347   0.740   5.327 -0.6202 -0.9026 -0.4670
   18MOL   H157 3591   4.329   1.016   5.709  2.1155  1.1295  0.7245
   18MOL   H158 3592   4.476   0.916   5.687 -0.1091  2.0537 -0.9569
   18MOL   H159 3593   4.459   0.707   5.511 -2.3846 -2.4693  0.4043
   18MOL   H160 3594   4.243   0.771   5.311 -1.0155 -1.6461  0.6328
   18MOL   H161 3595   4.342   0.632   5.310 -0.3970 -0.8199 -1.0724
   18MOL   C162 3596   4.440   0.791   5.216  0.1404 -0.2181  0.3130
   18MOL   C163 3597   4.459   0.942   5.209  0.2759 -0.0302 -0.1955
   18MOL  Cl164 3598   4.627   0.982   5.200 -0.0956 -0.1195  0.1007
   18MOL   C165 3599   4.362   1.035   5.210  0.5916  0.8228 -0.1057
   18MOL   C166 3600   4.372   1.186   5.196  0.6291 -0.0342 -0.7038
   18MOL   H167 3601   4.536   0.739   5.222 -0.5388 -1.3453  1.7554
   18MOL   H168 3602   4.386   0.752   5.130  0.0034  0.2713  0.1757
   18MOL   H169 3603   4.259   1.003   5.219  0.1281  1.5534 -2.4487
   18MOL   H170 3604   4.476   1.218   5.189  1.3169 -2.4489 -1.6879
   18MOL   H171 3605   4.319   1.220   5.107 -1.5585 -2.6233 -0.4699
   18MOL   C172 3606   4.315   1.260   5.318 -0.3778  0.5828 -0.8387
   18MOL   C173 3607   4.329   1.417   5.310 -0.7134 -0.7431 -0.5602
   18MOL  Cl174 3608   4.477   1.484   5.370 -0.0455  0.0946 -0.1572
   18MOL   C175 3609   4.224   1.484   5.258 -0.0245 -0.5397 -0.4098
   18MOL   C176 3610   4.209   1.641   5.245 -0.0198 -0.0982  0.4627
   18MOL   H177 3611   4.370   1.236   5.409  0.8759  1.7961 -1.2517
   18MOL   H178 3612   4.216   1.226   5.348  0.8214 -0.6126  1.9443
   18MOL   H179 3613   4.133   1.429   5.238 -0.3650 -0.5877  1.1743
   18MOL   H180 3614   4.297   1.698   5.275 -0.4992  0.4224  0.9002
   18MOL   H181 3615   4.134   1.662   5.321 -0.4633 -0.6984  0.2005
   18MOL   C182 3616   4.161   1.694   5.112  0.5303  0.3300 -0.2155
   18MOL   C183 3617   4.140   1.845   5.113  0.6418 -0.3874 -0.3508
   18MOL  Cl184 3618   4.019   1.910   5.227 -0.2290  0.3068  0.1344
   18MOL   C185 3619   4.200   1.921   5.020 -0.0660  0.1840 -0.4055
   18MOL   C186 3620   4.189   2.073   5.004  0.4005  0.0253 -0.6146
   18MOL   H187 3621   4.216   1.659   5.024 -1.1468 -2.3588 -0.2759
   18MOL   H188 3622   4.062   1.650   5.099  0.2057  0.8145  0.6202
   18MOL   H189 3623   4.258   1.887   4.935  2.7470 -0.2364  1.5910
   18MOL   H190 3624   4.105   2.106   5.064  0.3872 -3.2805  1.2576
   18MOL   H191 3625   4.281   2.124   5.034 -0.0164  1.1139 -1.1166
   18MOL   C192 3626   4.161   2.104   4.853 -0.3202  0.1260 -0.3562
   18MOL   C193 3627   4.140   2.249   4.818  0.1911 -0.7314  0.2364
   18MOL  Cl194 3628   4.244   2.352   4.909  0.3613 -0.0640 -0.0457
   18MOL   C195 3629   4.064   2.297   4.717  0.1883  0.2073 -0.6986
   18MOL   C196 3630   3.966   2.224   4.629  0.1529 -0.0250 -0.6101
   18MOL   H197 3631   4.093   2.036   4.801  1.2861 -1.0246 -0.9756
   18MOL   H198 3632   4.250   2.091   4.792 -0.0269 -0.8528  0.2727
   18MOL   H199 3633   4.075   2.402   4.694  0.3735  0.1233 -1.0034
   18MOL   H200 3634   3.928   2.298   4.558  0.3608  1.9277  1.2781
   18MOL   H201 3635   3.877   2.191   4.683  1.4268  0.5150  1.8503
   18MOL   H202 3636   4.004   2.141   4.570 -0.9305  0.2007 -1.6472
   19MOL     C1 3637   2.516   2.584   6.222  0.4980  0.3710 -0.0403
   19MOL     C2 3638   2.615   2.684   6.274 -0.5219  0.1945  0.3155
   19MOL    Cl3 3639   2.546   2.824   6.340 -0.2684  0.0687 -0.1457
   19MOL     C4 3640   2.748   2.671   6.268 -0.0191 -0.7634  0.5905
   19MOL     C5 3641   2.827   2.555   6.211  0.0064  0.5181 -0.0748
   19MOL     H6 3642   2.560   2.526   6.140  1.1903 -1.4659  1.5762
   19MOL     H7 3643   2.426   2.634   6.188 -0.1719 -1.6435 -1.3563
   19MOL     H8 3644   2.806   2.749   6.316 -2.2861  1.8472 -0.7794
   19MOL     H9 3645   2.878   2.525   6.303 -2.3237  0.3299  1.1990
   19MOL    H10 3646   2.766   2.475   6.169 -0.0964  0.6884 -0.2479
   19MOL    H11 3647   2.492   2.508   6.297 -1.3030  0.6548 -0.3129
   19MOL    C12 3648   2.940   2.609   6.122  0.2002 -0.2236  0.1172
   19MOL    C13 3649   3.030   2.498   6.059  0.3477  0.0989  0.8236
   19MOL   Cl14 3650   2.980   2.336   6.084 -0.1247 -0.0533 -0.0607
   19MOL    C15 3651   3.146   2.523   5.993 -0.8581 -0.6519  0.2033
   19MOL    C16 3652   3.198   2.661   5.970 -0.4157 -0.0136 -0.0412
   19MOL    H17 3653   2.894   2.664   6.040 -2.5298  0.1512  1.8329
   19MOL    H18 3654   3.000   2.677   6.183  0.8753 -0.5071 -0.2315
   19MOL    H19 3655   3.205   2.444   5.950 -0.0936 -0.4332  0.8535
   19MOL    H20 3656   3.135   2.740   6.010 -2.1507 -1.8444  0.8750
   19MOL    H21 3657   3.297   2.683   6.010  1.2918 -0.5323 -3.7666
   19MOL    C22 3658   3.187   2.709   5.819 -0.9743 -0.5205  0.1594
   19MOL    C23 3659   3.295   2.806   5.782  0.4139  0.0012  0.7486
   19MOL   Cl24 3660   3.272   2.959   5.862 -0.1747 -0.2357  0.3429
   19MOL    C25 3661   3.397   2.775   5.703  0.0173  0.0017  0.3140
   19MOL    C26 3662   3.515   2.871   5.667 -0.0307  0.5982  1.1521
   19MOL    H27 3663   3.187   2.621   5.755 -0.0193 -0.7140  0.4210
   19MOL    H28 3664   3.088   2.749   5.797 -0.2861 -0.1200 -2.2911
   19MOL    H29 3665   3.411   2.673   5.669  0.2388  0.0872  0.1442
   19MOL    H30 3666   3.487   2.977   5.666  2.9781  1.4357 -0.6457
   19MOL    H31 3667   3.595   2.855   5.739 -1.4952 -2.2827  2.2063
   19MOL    C32 3668   3.593   2.822   5.539 -0.3847  0.0817 -0.4146
   19MOL    C33 3669   3.522   2.837   5.407 -0.1125 -0.4819  0.0857
   19MOL   Cl34 3670   3.471   2.686   5.347  0.0483 -0.2228 -0.1670
   19MOL    C35 3671   3.492   2.959   5.356  0.7147  0.0670 -0.8998
   19MOL    C36 3672   3.402   2.975   5.231  0.1511  0.4023 -0.8095
   19MOL    H37 3673   3.688   2.871   5.522 -0.1141 -0.2599  0.1022
   19MOL    H38 3674   3.615   2.716   5.553  2.1995  0.3505 -2.0503
   19MOL    H39 3675   3.518   3.055   5.399  1.6828 -0.9053  0.7269
   19MOL    H40 3676   3.376   2.872   5.204  1.8291 -0.0882 -0.6177
   19MOL    H41 3677   3.312   3.034   5.245  0.9175  1.3481  0.2264
   19MOL    C42 3678   3.483   3.022   5.107  0.1945 -0.1428 -0.5203
   19MOL    C43 3679   3.413   2.992   4.971 -0.7548  0.1605 -0.1145
   19MOL   Cl44 3680   3.425   2.825   4.922 -0.0730  0.0494 -0.0126
   19MOL    C45 3681   3.347   3.082   4.896 -0.4180  0.2326  0.7298
   19MOL    C46 3682   3.328   3.226   4.939  0.8678 -0.2942 -0.2408
   19MOL    H47 3683   3.519   3.122   5.129 -0.6927 -0.5092  3.0144
   19MOL    H48 3684   3.578   2.970   5.107  0.8879  1.0858  0.6994
   19MOL    H49 3685   3.299   3.049   4.805  0.9072  0.4509 -0.0758
   19MOL    H50 3686   3.320   3.214   5.047 -2.4717 -2.6476 -0.6949
   19MOL    H51 3687   3.416   3.287   4.917  1.0143  0.4166  2.1180
   19MOL    C52 3688   3.190   3.291   4.903 -0.1725 -0.0867  0.3367
   19MOL    C53 3689   3.172   3.427   4.961  0.4393  0.6416 -0.1195
   19MOL   Cl54 3690   3.302   3.526   4.901  0.3029  0.1875 -0.1282
   19MOL    C55 3691   3.064   3.466   5.037 -0.1480 -0.2690  0.3144
   19MOL    C56 3692   3.048   3.613   5.080 -0.1269 -0.4049 -0.0253
   19MOL    H57 3693   3.178   3.294   4.795 -0.3908 -0.8362  0.3411
   19MOL    H58 3694   3.109   3.222   4.927 -0.3006 -0.3473 -0.7999
   19MOL    H59 3695   2.988   3.394   5.062  0.0913 -1.1819 -1.4848
   19MOL    H60 3696   3.056   3.611   5.188 -1.4496  0.3033  0.0913
   19MOL    H61 3697   3.124   3.675   5.033  0.4107  0.2668  1.6912
   19MOL    C62 3698   2.910   3.675   5.045 -0.4367 -0.0609  0.3556
   19MOL    C63 3699   2.888   3.822   5.085 -0.2458 -0.0945  0.6790
   19MOL   Cl64 3700   2.762   3.882   4.987  0.0989 -0.3442 -0.2886
   19MOL    C65 3701   2.952   3.906   5.168  0.5593  0.8173 -0.1229
   19MOL    C66 3702   2.917   4.049   5.211  0.2874 -0.4885  0.2166
   19MOL    H67 3703   2.893   3.660   4.938  2.1745 -1.8410  0.1336
   19MOL    H68 3704   2.821   3.624   5.082  0.8478 -0.5571  2.8179
   19MOL    H69 3705   3.039   3.870   5.222  0.8497  3.2431  1.0926
   19MOL    H70 3706   2.955   4.049   5.313  2.6750 -1.8589 -0.6382
   19MOL    H71 3707   2.809   4.063   5.205  0.6566  3.0919  0.9420
   19MOL    C72 3708   2.985   4.167   5.137 -0.4552  0.1622  0.0738
   19MOL    C73 3709   2.944   4.300   5.200 -0.3220 -1.2702  0.0355
   19MOL   Cl74 3710   3.061   4.338   5.325  0.3108  0.0663  0.2809
   19MOL    C75 3711   2.835   4.375   5.163 -0.1043 -0.6137 -0.4538
   19MOL    C76 3712   2.799   4.514   5.217  0.2760 -0.0853  0.5975
   19MOL    H77 3713   2.959   4.161   5.031  0.2801  1.3850 -0.1847
   19MOL    H78 3714   3.089   4.138   5.146 -0.7163 -1.4459 -1.7018
   19MOL    H79 3715   2.771   4.334   5.086 -1.8291  0.4591  0.3581
   19MOL    H80 3716   2.889   4.557   5.263  0.3637  0.4688 -0.0867
   19MOL    H81 3717   2.721   4.496   5.291 -1.9573  1.0003 -1.4216
   19MOL    C82 3718   2.750   4.607   5.104 -0.3578 -1.0267  0.2028
   19MOL    C83 3719   2.717   4.752   5.148  0.5820 -0.0796  0.2878
   19MOL   Cl84 3720   2.656   4.838   5.008 -0.4144  0.0679 -0.0801
   19MOL    C85 3721   2.723   4.804   5.267  0.7467  0.3131  0.1124
   19MOL    C86 3722   2.668   4.936   5.310 -0.0242  0.3492 -0.1380
   19MOL    H87 3723   2.660   4.565   5.060 -1.2070 -0.5150  1.4140
   19MOL    H88 3724   2.825   4.617   5.026 -2.2359  1.0192 -1.4152
   19MOL    H89 3725   2.767   4.741   5.342 -0.4563 -0.9945 -0.2611
   19MOL    H90 3726   2.748   4.991   5.359 -0.0097 -1.6239  2.1007
   19MOL    H91 3727   2.625   4.997   5.230 -2.8570 -0.1933  0.9134
   19MOL    C92 3728   2.563   4.934   5.419 -0.2053  0.2636 -0.5804
   19MOL    C93 3729   2.542   5.075   5.473 -0.3856  0.0534 -0.5048
   19MOL   Cl94 3730   2.633   5.091   5.620 -0.1549  0.1472 -0.0940
   19MOL    C95 3731   2.473   5.181   5.421 -0.6300  0.1986  0.9355
   19MOL    C96 3732   2.390   5.178   5.298 -0.1211  0.0130 -0.1033
   19MOL    H97 3733   2.608   4.874   5.498 -1.7987 -0.3839 -0.1441
   19MOL    H98 3734   2.471   4.883   5.392  1.3327 -2.7249 -0.4551
   19MOL    H99 3735   2.481   5.274   5.476 -0.8604  0.8974 -0.2028
   19MOL   H100 3736   2.372   5.073   5.276  1.5431 -0.5300  1.0652
   19MOL   H101 3737   2.291   5.217   5.323 -0.0394  0.3694 -0.3287
   19MOL   C102 3738   2.461   5.260   5.181  0.6134 -0.4427 -0.2165
   19MOL   C103 3739   2.429   5.403   5.182 -0.0965 -0.3746  1.0579
   19MOL  Cl104 3740   2.261   5.436   5.157 -0.1640  0.0650 -0.1207
   19MOL   C105 3741   2.521   5.497   5.183  0.4905  0.5853  0.5575
   19MOL   C106 3742   2.498   5.643   5.173 -0.2410 -0.0028  1.0668
   19MOL   H107 3743   2.569   5.247   5.188  0.6266  0.6696  1.9934
   19MOL   H108 3744   2.423   5.211   5.091 -2.3085 -0.8174  1.1407
   19MOL   H109 3745   2.623   5.461   5.184  0.9497  1.8391 -0.2768
   19MOL   H110 3746   2.393   5.667   5.192 -0.1962  1.5648 -0.5709
   19MOL   H111 3747   2.565   5.686   5.246  0.2796  1.3373 -0.1794
   19MOL   C112 3748   2.522   5.687   5.024  1.1675 -0.9195 -0.8515
   19MOL   C113 3749   2.541   5.838   5.010 -0.1917  0.3682 -1.2342
   19MOL  Cl114 3750   2.393   5.921   4.974  0.3455 -0.0257 -0.0512
   19MOL   C115 3751   2.652   5.911   5.017  0.2155  0.2550 -0.5994
   19MOL   C116 3752   2.794   5.864   5.035 -0.2754 -0.6690 -0.0533
   19MOL   H117 3753   2.609   5.643   4.975  1.2422 -0.7583 -0.8622
   19MOL   H118 3754   2.430   5.670   4.968 -0.1487  2.0201  0.3174
   19MOL   H119 3755   2.644   6.017   4.998  1.7878  0.2836 -1.1400
   19MOL   H120 3756   2.837   5.917   4.950 -2.5542  1.4582  0.0482
   19MOL   H121 3757   2.802   5.758   5.013  2.2954 -0.6448  0.5483
   19MOL   C122 3758   2.863   5.913   5.166 -0.1398  0.2150 -0.2188
   19MOL   C123 3759   3.010   5.877   5.180 -0.0268  0.2166 -0.2115
   19MOL  Cl124 3760   3.111   5.996   5.111  0.4913 -0.4720  0.1910
   19MOL   C125 3761   3.067   5.776   5.247 -0.3845  0.0292  0.7063
   19MOL   C126 3762   2.993   5.667   5.319  0.3152 -0.0112  0.1104
   19MOL   H127 3763   2.837   6.017   5.189  1.6720  0.6337  0.0236
   19MOL   H128 3764   2.820   5.863   5.253 -0.9547 -0.1852 -0.8453
   19MOL   H129 3765   3.175   5.769   5.255 -0.1085  1.5204 -1.4690
   19MOL   H130 3766   2.953   5.707   5.412  0.5088  1.2896 -0.3640
   19MOL   H131 3767   2.908   5.637   5.258 -0.7731 -0.0045  1.6149
   19MOL   C132 3768   3.078   5.544   5.337 -0.7823 -0.1701  0.0398
   19MOL   C133 3769   3.003   5.418   5.370 -0.4655 -0.2784 -0.2774
   19MOL  Cl134 3770   2.834   5.437   5.386  0.2217 -0.1653 -0.3781
   19MOL   C135 3771   3.063   5.300   5.399 -0.2542  0.0145 -0.3532
   19MOL   C136 3772   3.210   5.259   5.382 -0.0164  0.2891  0.4510
   19MOL   H137 3773   3.143   5.531   5.250 -0.3949 -0.1907  0.3297
   19MOL   H138 3774   3.145   5.569   5.420 -0.1931 -3.3406  0.6126
   19MOL   H139 3775   2.990   5.224   5.425 -0.0434 -0.7749 -2.0211
   19MOL   H140 3776   3.221   5.199   5.292 -1.8263  2.7207 -1.4620
   19MOL   H141 3777   3.259   5.356   5.377 -1.2509  0.9218  0.3426
   19MOL   C142 3778   3.264   5.176   5.501  0.3719 -0.5333  0.2725
   19MOL   C143 3779   3.401   5.113   5.482  0.2444  0.1263 -0.0331
   19MOL  Cl144 3780   3.410   4.948   5.548  0.0737 -0.6965  0.1448
   19MOL   C145 3781   3.507   5.171   5.427 -0.2012  0.4936 -0.3652
   19MOL   C146 3782   3.645   5.107   5.410 -0.2652  0.7151  0.6970
   19MOL   H147 3783   3.192   5.094   5.502 -0.1121 -0.1484 -1.5572
   19MOL   H148 3784   3.251   5.221   5.600 -0.8050 -0.8046  0.2491
   19MOL   H149 3785   3.505   5.275   5.396 -1.9309  1.8038  3.7545
   19MOL   H150 3786   3.723   5.161   5.463  1.9877  0.3878 -2.1912
   19MOL   H151 3787   3.651   5.006   5.451 -2.0130  0.3632  0.1339
   19MOL   C152 3788   3.685   5.111   5.259 -0.2192 -0.6084 -0.2804
   19MOL   C153 3789   3.619   5.001   5.179  0.1491 -0.8712  0.2865
   19MOL  Cl154 3790   3.734   4.891   5.113  0.2790  0.1641 -0.2990
   19MOL   C155 3791   3.485   4.994   5.176 -0.1568 -0.4337 -0.3125
   19MOL   C156 3792   3.420   4.875   5.105  0.1090 -0.3576 -0.3792
   19MOL   H157 3793   3.653   5.203   5.211 -0.5148 -0.4650  0.1914
   19MOL   H158 3794   3.794   5.105   5.253 -0.0671 -0.8433  2.3215
   19MOL   H159 3795   3.422   5.071   5.218 -0.7303 -1.0810  0.0292
   19MOL   H160 3796   3.462   4.787   5.155 -1.6685 -0.5859  0.7978
   19MOL   H161 3797   3.448   4.874   5.000 -1.5033  0.5202 -0.8304
   19MOL   C162 3798   3.266   4.879   5.136  0.1615 -0.1514  0.1012
   19MOL   C163 3799   3.187   4.768   5.080 -0.6387 -0.0660  0.3720
   19MOL  Cl164 3800   3.080   4.714   5.199  0.0102 -0.3894  0.0890
   19MOL   C165 3801   3.187   4.715   4.954  0.1098  0.3505 -0.5840
   19MOL   C166 3802   3.102   4.602   4.907  1.2644 -0.2155 -0.8342
   19MOL   H167 3803   3.242   4.902   5.240 -0.5171  1.9498 -0.5079
   19MOL   H168 3804   3.231   4.975   5.099 -0.1951  0.8657  2.9225
   19MOL   H169 3805   3.249   4.770   4.885  0.4619  1.7364  0.8190
   19MOL   H170 3806   3.157   4.513   4.876 -1.9990 -2.6758  0.0448
   19MOL   H171 3807   3.042   4.558   4.987  2.0021 -2.8254 -1.6572
   19MOL   C172 3808   3.019   4.635   4.788  0.0266 -0.5754  0.3641
   19MOL   C173 3809   2.917   4.535   4.740  0.0190  0.0682  0.0171
   19MOL  Cl174 3810   2.880   4.580   4.579 -0.1338  0.0538  0.3457
   19MOL   C175 3811   2.891   4.414   4.798  0.0567  0.0982  0.2702
   19MOL   C176 3812   2.808   4.300   4.743  0.4675 -0.2113  0.1448
   19MOL   H177 3813   3.084   4.658   4.703  0.2277  1.8704  1.1240
   19MOL   H178 3814   2.963   4.729   4.791 -1.4109 -1.3170 -2.0512
   19MOL   H179 3815   2.937   4.391   4.892  0.2121 -0.2974  0.0950
   19MOL   H180 3816   2.859   4.209   4.777  1.6880 -0.2319 -1.6758
   19MOL   H181 3817   2.809   4.293   4.635 -0.4645  0.5400  0.0799
   19MOL   C182 3818   2.659   4.308   4.796  0.3186 -0.1321 -0.1937
   19MOL   C183 3819   2.575   4.199   4.727 -0.1655 -0.4189  0.0569
   19MOL  Cl184 3820   2.505   4.255   4.579 -0.1704 -0.1909 -0.7122
   19MOL   C185 3821   2.549   4.076   4.781  0.1437  0.3665 -0.0616
   19MOL   C186 3822   2.469   3.963   4.719  0.2002  0.0106  0.5255
   19MOL   H187 3823   2.654   4.277   4.901  0.5866 -1.1448 -0.4742
   19MOL   H188 3824   2.610   4.404   4.778 -1.5706 -1.3690 -1.8220
   19MOL   H189 3825   2.591   4.047   4.876  1.0737  1.6503 -0.0547
   19MOL   H190 3826   2.446   3.967   4.612 -2.2028  0.0136  1.0153
   19MOL   H191 3827   2.532   3.875   4.729 -2.2945 -1.7237  1.4376
   19MOL   C192 3828   2.336   3.939   4.784  0.4523  0.1945 -0.1883
   19MOL   C193 3829   2.246   3.827   4.720 -0.6076 -0.0096 -0.2745
   19MOL  Cl194 3830   2.290   3.675   4.789  0.1378 -0.7941 -0.0254
   19MOL   C195 3831   2.160   3.837   4.618  0.0893 -0.9819  0.0558
   19MOL   C196 3832   2.132   3.959   4.535 -0.6459 -0.6359  0.1370
   19MOL   H197 3833   2.276   4.030   4.778  0.2054  0.0906  0.7173
   19MOL   H198 3834   2.358   3.917   4.888 -0.9907  0.6252  0.2151
   19MOL   H199 3835   2.102   3.749   4.594  0.1278 -0.6988 -1.1110
   19MOL   H200 3836   2.130   3.954   4.426 -2.5560  2.0908 -0.0010
   19MOL   H201 3837   2.202   4.042   4.546 -1.3079 -0.4159  3.1525
   19MOL   H202 3838   2.038   4.004   4.566 -0.7654 -1.1824  0.5772
   20MOL     C1 3839   1.083   7.121   1.213 -0.7127  0.3310 -0.0233
   20MOL     C2 3840   1.214   7.156   1.283  0.1621 -0.2580 -0.0695
   20MOL    Cl3 3841   1.182   7.256   1.411 -0.1013  0.2269  0.3125
   20MOL     C4 3842   1.336   7.135   1.237 -0.3028 -0.5588  0.5050
   20MOL     C5 3843   1.373   7.057   1.111 -0.5170  0.0013  0.1453
   20MOL     H6 3844   1.083   7.013   1.195 -1.0227  0.4348 -0.6533
   20MOL     H7 3845   1.084   7.177   1.120  1.1050 -1.3312 -1.0343
   20MOL     H8 3846   1.428   7.167   1.284  0.7793  1.3972 -2.7243
   20MOL     H9 3847   1.442   6.975   1.127 -1.1278 -0.8645 -1.5460
   20MOL    H10 3848   1.285   7.032   1.052  0.5050  0.9181 -1.8303
   20MOL    H11 3849   0.999   7.150   1.277 -0.6855 -0.6603  0.4777
   20MOL    C12 3850   1.443   7.155   1.011  0.6527  0.0385 -0.3619
   20MOL    C13 3851   1.461   7.089   0.875 -0.0077 -0.6761  0.3274
   20MOL   Cl14 3852   1.629   7.089   0.840  0.0118 -0.0554 -0.1012
   20MOL    C15 3853   1.367   7.048   0.786  0.0305  0.1511 -1.0808
   20MOL    C16 3854   1.218   7.053   0.795 -0.3700 -0.1797  0.5358
   20MOL    H17 3855   1.381   7.242   0.991 -0.6884 -0.2291  2.4461
   20MOL    H18 3856   1.542   7.190   1.039 -0.2641  1.5555  1.0253
   20MOL    H19 3857   1.405   6.988   0.704 -1.7153  0.2168 -1.9635
   20MOL    H20 3858   1.171   6.958   0.820  1.3003 -0.9139  0.9895
   20MOL    H21 3859   1.185   7.123   0.871 -2.0712 -1.1530  0.7149
   20MOL    C22 3860   1.160   7.107   0.669 -0.4717  0.1566 -0.6258
   20MOL    C23 3861   1.011   7.089   0.652 -0.1885 -0.3953 -0.1040
   20MOL   Cl24 3862   0.970   6.944   0.573 -0.3855  0.4904  0.0006
   20MOL    C25 3863   0.916   7.181   0.692  0.4802 -1.1680 -0.0464
   20MOL    C26 3864   0.768   7.168   0.671  0.4194 -0.2502 -0.8608
   20MOL    H27 3865   1.179   7.214   0.670  2.8052 -0.3715 -1.7158
   20MOL    H28 3866   1.222   7.068   0.589 -1.5318  1.2281 -1.9844
   20MOL    H29 3867   0.954   7.271   0.737 -1.4547 -0.4650  0.2420
   20MOL    H30 3868   0.738   7.104   0.588 -2.1444  0.4606 -0.5345
   20MOL    H31 3869   0.725   7.122   0.759 -0.2649  2.9672  0.5391
   20MOL    C32 3870   0.691   7.300   0.655  0.1927  0.1059 -0.4526
   20MOL    C33 3871   0.546   7.286   0.617  0.1533  0.0789  0.3823
   20MOL   Cl34 3872   0.472   7.211   0.758  0.1239 -0.1697 -0.1387
   20MOL    C35 3873   0.483   7.314   0.501 -0.5756  0.2551  1.3158
   20MOL    C36 3874   0.338   7.283   0.468  0.1807  0.5098 -0.2084
   20MOL    H37 3875   0.704   7.369   0.738 -2.0820 -4.0587  3.5642
   20MOL    H38 3876   0.746   7.356   0.578  4.2089 -0.9092  1.5291
   20MOL    H39 3877   0.528   7.366   0.418 -0.4705  0.5822  1.5730
   20MOL    H40 3878   0.290   7.214   0.537 -0.1443 -1.1774 -2.0694
   20MOL    H41 3879   0.295   7.383   0.474  1.4599  1.1427 -1.3255
   20MOL    C42 3880   0.322   7.238   0.320  0.1029 -0.2137 -0.3054
   20MOL    C43 3881   0.176   7.191   0.293 -0.3705  0.2047 -0.2826
   20MOL   Cl44 3882   0.149   7.038   0.369  0.2201 -0.1336  0.0182
   20MOL    C45 3883   0.077   7.256   0.226 -0.0049  0.3280  0.0403
   20MOL    C46 3884   0.086   7.395   0.168  0.5809 -0.3985  0.3313
   20MOL    H47 3885   0.327   7.322   0.250 -0.1707  1.0570  1.1458
   20MOL    H48 3886   0.388   7.165   0.275 -0.4739 -0.1839 -1.2172
   20MOL    H49 3887   8.400   7.211   0.218 -0.0572  0.4037  0.2576
   20MOL    H50 3888   8.402   7.424   0.174  0.8125  0.5303 -0.0751
   20MOL    H51 3889   0.129   7.468   0.237 -0.1566 -0.2877  0.6795
   20MOL    C52 3890   0.137   7.407   0.026 -0.4633  0.5945 -0.2662
   20MOL    C53 3891   0.125   7.546   8.388 -0.4561 -1.2125 -0.0920
   20MOL   Cl54 3892   0.288   7.620   8.374  0.0329  0.3201  0.6682
   20MOL    C55 3893   0.017   7.587   8.319  0.5537 -0.3768 -0.2783
   20MOL    C56 3894   8.419   7.716   8.239  0.4645  0.7175 -0.2951
   20MOL    H57 3895   0.240   7.375   0.013 -0.8683 -0.0531 -1.9500
   20MOL    H58 3896   0.083   7.341   8.379  0.8075 -2.1750  1.3527
   20MOL    H59 3897   8.350   7.524   8.322  1.2980 -1.3644  2.2169
   20MOL    H60 3898   0.069   7.797   8.254 -1.5042  2.3617  0.4231
   20MOL    H61 3899   0.004   7.680   8.137 -0.1370 -0.3053  0.0233
   20MOL    C62 3900   8.279   7.777   8.265 -0.0270 -0.2592 -0.6730
   20MOL    C63 3901   8.257   7.908   8.186  0.5059 -0.6764 -0.6319
   20MOL   Cl64 3902   8.091   7.957   8.193  0.0635  0.1938  0.2124
   20MOL    C65 3903   8.345   7.979   8.113  0.7736 -0.5182  0.7267
   20MOL    C66 3904   8.330   8.114   8.050  0.4840  0.1768 -0.1103
   20MOL    H67 3905   8.202   7.708   8.230 -1.5862  1.2073 -0.1873
   20MOL    H68 3906   8.262   7.787   8.372  0.3298 -1.5771 -0.4903
   20MOL    H69 3907   0.021   7.933   8.103  0.7741 -0.3184 -0.3152
   20MOL    H70 3908   8.397   8.188   8.095 -0.6899  1.1961  0.0025
   20MOL    H71 3909   8.232   8.145   8.086  0.1362  0.1089 -0.9879
   20MOL    C72 3910   8.336   8.116   7.898 -0.4492  0.7323  0.0865
   20MOL    C73 3911   8.331   8.259   7.838 -0.1129  0.1355 -0.1025
   20MOL   Cl74 3912   8.238   8.381   7.930  0.2278  0.0535  0.3375
   20MOL    C75 3913   8.412   8.303   7.738 -0.8588  0.9154 -0.2391
   20MOL    C76 3914   0.004   0.022   7.673 -0.9561  0.0010 -0.5391
   20MOL    H77 3915   8.252   8.065   7.850 -0.0823 -0.5790  0.8278
   20MOL    H78 3916   0.010   8.078   7.862 -1.6192 -1.3075 -0.9288
   20MOL    H79 3917   0.054   8.226   7.696 -0.9436 -0.1236  1.4902
   20MOL    H80 3918   0.109   0.039   7.651 -1.4118  0.8968 -2.1150
   20MOL    H81 3919   8.385   0.095   7.743  0.4987 -3.3160  3.9672
   20MOL    C82 3920   8.354   0.016   7.540 -0.5931  0.1239 -0.3505
   20MOL    C83 3921   8.344   0.149   7.469  0.3677 -0.0849  0.0766
   20MOL   Cl84 3922   8.401   0.135   7.305 -0.3684 -0.2141  0.3726
   20MOL    C85 3923   8.288   0.257   7.515  0.3231 -1.0030 -0.2051
   20MOL    C86 3924   8.269   0.383   7.431  0.4413  0.0569  0.3114
   20MOL    H87 3925   8.257   8.393   7.563  0.4203 -2.5253 -0.9755
   20MOL    H88 3926   8.416   8.377   7.474 -2.3499 -0.4795 -1.5144
   20MOL    H89 3927   8.257   0.254   7.618 -0.0151 -2.8851 -0.3543
   20MOL    H90 3928   8.367   0.422   7.402  1.0781 -2.0275 -0.4521
   20MOL    H91 3929   8.232   0.348   7.335 -1.7274  0.2826  1.0351
   20MOL    C92 3930   8.167   0.492   7.485  0.4870  0.2532 -0.2264
   20MOL    C93 3931   8.201   0.628   7.432  0.0509 -0.1847  0.6553
   20MOL   Cl94 3932   8.119   0.659   7.279 -0.2888 -0.1692 -0.1597
   20MOL    C95 3933   8.285   0.718   7.487  0.3955  0.0035 -0.3466
   20MOL    C96 3934   8.364   0.699   7.613  0.2014 -0.5852 -0.0983
   20MOL    H97 3935   8.166   0.485   7.594  1.9976 -0.1710 -0.2276
   20MOL    H98 3936   8.068   0.459   7.454  0.2664  1.2580 -0.6090
   20MOL    H99 3937   8.294   0.814   7.439 -3.8883 -0.2980 -2.0284
   20MOL   H100 3938   8.329   0.614   7.673 -0.4584  0.2487  0.7084
   20MOL   H101 3939   0.047   0.676   7.592  0.9305  2.8841 -0.5392
   20MOL   C102 3940   8.354   0.816   7.704 -0.1371 -0.1189  0.4905
   20MOL   C103 3941   8.411   0.795   7.843  0.4983 -0.1536  0.0048
   20MOL  Cl104 3942   8.284   0.820   7.963 -0.0130  0.1347 -0.4192
   20MOL   C105 3943   0.113   0.749   7.871  0.4502  0.4338 -0.6967
   20MOL   C106 3944   0.162   0.724   8.018  0.1297 -0.5755 -0.5902
   20MOL   H107 3945   8.408   0.897   7.655  0.6874 -0.5812  0.6231
   20MOL   H108 3946   8.252   0.853   7.708  0.1442  0.6896  0.2616
   20MOL   H109 3947   0.185   0.726   7.794 -0.6798 -0.7531 -1.4347
   20MOL   H110 3948   0.081   0.741   8.089  1.3146  0.6321  0.5065
   20MOL   H111 3949   0.189   0.618   8.021  0.2195 -0.5355  0.0499
   20MOL   C112 3950   0.282   0.809   8.050 -0.0093  0.3058 -0.6067
   20MOL   C113 3951   0.345   0.800   8.187  0.0248 -0.7026  0.6447
   20MOL  Cl114 3952   0.231   0.794   8.320  0.2849  0.0597 -0.1261
   20MOL   C115 3953   0.480   0.796   8.213  0.3121  0.4590  0.9343
   20MOL   C116 3954   0.591   0.794   8.113  0.7741 -0.2835 -0.2489
   20MOL   H117 3955   0.360   0.801   7.975  0.7736 -0.8595  0.3230
   20MOL   H118 3956   0.242   0.911   8.049 -1.8069 -0.3838 -0.9642
   20MOL   H119 3957   0.510   0.801   8.317  1.1796 -2.4443  0.8736
   20MOL   H120 3958   0.566   0.764   8.011 -1.1210 -1.2469  0.4739
   20MOL   H121 3959   0.663   0.718   8.143 -0.0131 -0.1406  2.0885
   20MOL   C122 3960   0.673   0.925   8.116  0.9773  0.0989  0.5105
   20MOL   C123 3961   0.590   1.052   8.096 -0.2276  0.1172  0.1405
   20MOL  Cl124 3962   0.546   1.119   8.248 -0.0423  0.3125 -0.0770
   20MOL   C125 3963   0.548   1.102   7.978  0.1350 -0.2248  0.2263
   20MOL   C126 3964   0.574   1.045   7.839 -0.3048 -0.0864 -0.2764
   20MOL   H127 3965   0.724   0.931   8.212 -0.2495  0.5829  1.1370
   20MOL   H128 3966   0.741   0.929   8.032 -1.6154  3.3644 -1.5863
   20MOL   H129 3967   0.493   1.195   7.977 -0.3750 -0.5304 -0.6481
   20MOL   H130 3968   0.642   1.105   7.779  0.5010  0.0832  0.7891
   20MOL   H131 3969   0.616   0.945   7.855 -1.6777 -0.7539 -0.7657
   20MOL   C132 3970   0.435   1.032   7.765  0.2701  0.6133  0.5214
   20MOL   C133 3971   0.450   0.953   7.639  0.1508 -0.3602 -0.3774
   20MOL  Cl134 3972   0.464   1.060   7.500 -0.2383 -0.1395  0.0292
   20MOL   C135 3973   0.471   0.824   7.618 -0.0002 -0.2259  0.0010
   20MOL   C136 3974   0.491   0.712   7.706  0.4344 -1.0264 -0.0281
   20MOL   H137 3975   0.366   0.976   7.828 -2.1866  1.7966 -0.9952
   20MOL   H138 3976   0.387   1.129   7.751  0.7204  0.7309 -0.2332
   20MOL   H139 3977   0.477   0.774   7.523 -0.1531  1.2795 -0.8117
   20MOL   H140 3978   0.453   0.719   7.808  2.4933  0.3741  0.6680
   20MOL   H141 3979   0.443   0.628   7.654 -0.9659  0.1189 -0.6160
   20MOL   C142 3980   0.640   0.681   7.727  0.2132  0.1648 -0.0020
   20MOL   C143 3981   0.680   0.539   7.720  0.2646  0.4175 -0.9540
   20MOL  Cl144 3982   0.605   0.437   7.828 -0.3605  0.0304  0.1088
   20MOL   C145 3983   0.784   0.501   7.643  0.3530  0.5211  0.0788
   20MOL   C146 3984   0.840   0.360   7.635  0.1534  0.0593  0.1496
   20MOL   H147 3985   0.672   0.722   7.823  0.4119 -2.2381  1.0112
   20MOL   H148 3986   0.697   0.724   7.645 -2.6697  2.3411 -0.9300
   20MOL   H149 3987   0.840   0.562   7.573 -0.7898 -0.6198 -1.8775
   20MOL   H150 3988   0.935   0.340   7.684  1.3515 -3.3294 -3.2986
   20MOL   H151 3989   0.762   0.294   7.672  0.5977 -0.3380  0.3849
   20MOL   C152 3990   0.859   0.317   7.484  0.1490  0.3274 -0.1129
   20MOL   C153 3991   0.943   0.196   7.477  0.3011  0.5827 -0.0072
   20MOL  Cl154 3992   1.110   0.236   7.468  0.5589  0.5210 -0.0298
   20MOL   C155 3993   0.899   0.066   7.472  0.4228  0.7564  0.3625
   20MOL   C156 3994   0.998   8.374   7.470  0.3758  0.2275 -0.4717
   20MOL   H157 3995   0.764   0.282   7.444 -0.3748  1.5496  0.0334
   20MOL   H158 3996   0.905   0.395   7.424  1.6781  0.7753  1.5925
   20MOL   H159 3997   0.796   0.036   7.480  0.5192 -0.3891 -2.1713
   20MOL   H160 3998   1.067   8.377   7.555 -0.7140  1.1816  0.3867
   20MOL   H161 3999   1.070   8.386   7.389  0.7904  0.4245 -0.0779
   20MOL   C162 4000   0.924   8.239   7.474  0.0261 -0.3803 -0.2419
   20MOL   C163 4001   1.024   8.124   7.442 -0.0268 -0.0748 -0.2354
   20MOL  Cl164 4002   0.940   7.998   7.359 -0.3671 -0.1631  0.7581
   20MOL   C165 4003   1.153   8.120   7.480 -0.5399 -0.1581 -0.3738
   20MOL   C166 4004   1.251   8.004   7.463 -0.2639 -0.3619 -0.2780
   20MOL   H167 4005   0.880   8.225   7.573 -2.0441 -0.6044 -1.1613
   20MOL   H168 4006   0.846   8.231   7.398  0.1194 -3.7568 -0.0541
   20MOL   H169 4007   1.191   8.201   7.541  1.2926 -1.2771  0.0151
   20MOL   H170 4008   1.308   7.985   7.554  0.8122  1.6183 -0.5161
   20MOL   H171 4009   1.201   7.909   7.443 -1.9225  0.7550 -1.5912
   20MOL   C172 4010   1.333   8.021   7.340  0.5412 -0.3684 -0.0052
   20MOL   C173 4011   1.438   7.917   7.321 -0.1371 -0.7809 -0.3848
   20MOL  Cl174 4012   1.380   7.794   7.207 -0.1140  0.1866 -0.4144
   20MOL   C175 4013   1.562   7.927   7.371  0.2157 -0.7318 -0.4790
   20MOL   C176 4014   1.677   7.827   7.359  0.1769 -0.4789 -0.0738
   20MOL   H177 4015   1.382   8.117   7.349 -2.3375  1.0309  1.3956
   20MOL   H178 4016   1.276   8.030   7.247  3.3697 -1.0209 -1.8598
   20MOL   H179 4017   1.577   8.021   7.422  0.1883 -2.6155  3.1798
   20MOL   H180 4018   1.736   7.860   7.274 -1.4396 -0.6272 -1.2750
   20MOL   H181 4019   1.632   7.730   7.334  0.8253 -0.4922 -1.1884
   20MOL   C182 4020   1.752   7.818   7.493  0.2313 -0.1696  0.8819
   20MOL   C183 4021   1.870   7.716   7.494 -0.0944 -0.0980 -0.7376
   20MOL  Cl184 4022   1.988   7.774   7.606 -0.0154  0.0640 -0.3353
   20MOL   C185 4023   1.881   7.608   7.416  0.4152  0.3248 -0.2668
   20MOL   C186 4024   1.996   7.514   7.413  0.1560  0.0372 -0.1795
   20MOL   H187 4025   1.787   7.918   7.517 -0.0399 -0.0209  0.6458
   20MOL   H188 4026   1.687   7.800   7.578  0.1265  1.3555  1.1384
   20MOL   H189 4027   1.803   7.588   7.343 -0.7197 -3.6726  1.8716
   20MOL   H190 4028   2.067   7.532   7.494  0.7345  2.0685 -1.1105
   20MOL   H191 4029   1.957   7.414   7.429  0.1796  0.5439  3.3865
   20MOL   C192 4030   2.068   7.519   7.274  0.1456  0.1409  0.3363
   20MOL   C193 4031   2.171   7.412   7.260 -0.8145  0.1899 -0.0041
   20MOL  Cl194 4032   2.320   7.460   7.336 -0.3155  0.1341  0.1889
   20MOL   C195 4033   2.170   7.302   7.189  0.0848  0.7098  0.4168
   20MOL   C196 4034   2.059   7.262   7.097  0.0740 -0.2391  0.0956
   20MOL   H197 4035   2.111   7.618   7.287 -1.5370  1.2132 -1.9447
   20MOL   H198 4036   2.008   7.522   7.183  0.1429 -2.0732  0.2309
   20MOL   H199 4037   2.253   7.234   7.180  0.0556  0.9415 -2.0058
   20MOL   H200 4038   2.038   7.155   7.092 -1.4567  0.0864 -0.8042
   20MOL   H201 4039   2.092   7.293   6.998  0.9608  1.8759  1.0306
   20MOL   H202 4040   1.968   7.311   7.132  0.2351 -0.8316  1.3823
   21MOL     C1 4041   7.568   4.073   4.160  0.6423 -0.3223 -0.1424
   21MOL     C2 4042   7.444   4.110   4.077  0.0647  0.6618  0.1329
   21MOL    Cl3 4043   7.464   4.099   3.905  0.2257  0.3873 -0.0046
   21MOL     C4 4044   7.328   4.148   4.126 -0.5834 -0.4450  0.5338
   21MOL     C5 4045   7.295   4.167   4.272 -0.1489 -0.3116  0.9088
   21MOL     H6 4046   7.658   4.086   4.100  1.1271  1.4701  0.9307
   21MOL     H7 4047   7.553   3.969   4.190  2.4479 -0.2141  1.1780
   21MOL     H8 4048   7.249   4.173   4.056 -0.6244  2.6136  1.6250
   21MOL     H9 4049   7.188   4.154   4.290 -0.0409 -2.2328  0.3190
   21MOL    H10 4050   7.348   4.091   4.329  1.1194 -0.8404 -0.9603
   21MOL    H11 4051   7.579   4.137   4.247  2.7175  0.4304 -0.9171
   21MOL    C12 4052   7.342   4.315   4.315  0.2618 -0.3680 -0.1273
   21MOL    C13 4053   7.309   4.353   4.459 -0.7885 -0.5100 -0.8684
   21MOL   Cl14 4054   7.441   4.315   4.568 -0.1633 -0.1386  0.2657
   21MOL    C15 4055   7.200   4.415   4.511 -0.2321 -0.2070  0.2024
   21MOL    C16 4056   7.086   4.470   4.437 -0.3679 -0.0685  0.4608
   21MOL    H17 4057   7.448   4.315   4.291 -0.1407  0.9197 -1.9997
   21MOL    H18 4058   7.301   4.389   4.247  0.3879  0.0539  0.2574
   21MOL    H19 4059   7.208   4.433   4.617 -1.1713 -2.3346  0.6573
   21MOL    H20 4060   7.099   4.577   4.457  2.2494 -0.5181  1.2636
   21MOL    H21 4061   7.099   4.449   4.331  0.1130  1.9381  0.1030
   21MOL    C22 4062   6.952   4.402   4.471  0.0610  0.0659  0.8081
   21MOL    C23 4063   6.844   4.437   4.370 -0.2609  0.0972 -0.6762
   21MOL   Cl24 4064   6.835   4.310   4.252  0.2657  0.1497  0.3293
   21MOL    C25 4065   6.777   4.552   4.366  0.3114  0.8682 -0.0941
   21MOL    C26 4066   6.671   4.583   4.260 -0.2565 -0.3686 -0.1901
   21MOL    H27 4067   6.966   4.294   4.472 -2.1447 -0.2766 -0.6589
   21MOL    H28 4068   6.924   4.414   4.576 -0.4727 -3.1181  1.0930
   21MOL    H29 4069   6.798   4.633   4.435  0.9944  1.2109 -0.6989
   21MOL    H30 4070   6.716   4.644   4.182 -0.0397 -0.4939 -0.1658
   21MOL    H31 4071   6.642   4.484   4.224  0.4211 -0.0481 -1.6919
   21MOL    C32 4072   6.555   4.669   4.308  0.3179  0.0557  0.1475
   21MOL    C33 4073   6.410   4.640   4.256 -0.3175  0.1317 -1.1391
   21MOL   Cl34 4074   6.319   4.779   4.234  0.6660 -0.0602 -0.2379
   21MOL    C35 4075   6.364   4.516   4.235  0.0622  0.2112  0.0333
   21MOL    C36 4076   6.236   4.452   4.191  0.4488 -0.1173  0.0310
   21MOL    H37 4077   6.564   4.666   4.417 -0.6507  1.0441  0.2662
   21MOL    H38 4078   6.575   4.774   4.287  2.5409  0.1227  2.3163
   21MOL    H39 4079   6.428   4.431   4.254  2.1271  1.7572  0.2225
   21MOL    H40 4080   6.165   4.534   4.183  1.3774  0.6660 -0.3153
   21MOL    H41 4081   6.261   4.417   4.091  1.8428 -0.7866  0.6092
   21MOL    C42 4082   6.178   4.343   4.289  0.0531 -0.5811 -0.2134
   21MOL    C43 4083   6.078   4.246   4.223 -0.3066 -0.1655  0.5861
   21MOL   Cl44 4084   5.921   4.323   4.205 -0.0298  0.2275  0.1317
   21MOL    C45 4085   6.102   4.124   4.179  0.2694  0.4542 -0.7157
   21MOL    C46 4086   6.240   4.052   4.182  0.1389 -0.0732 -0.1941
   21MOL    H47 4087   6.256   4.283   4.336  1.3511 -0.0648 -1.6897
   21MOL    H48 4088   6.124   4.390   4.372  3.6523  1.5408  1.0327
   21MOL    H49 4089   6.019   4.074   4.131  1.2688 -2.3937  0.4260
   21MOL    H50 4090   6.303   4.107   4.251  0.2130 -1.4775  0.8840
   21MOL    H51 4091   6.226   3.949   4.216 -1.8717  0.2147 -0.0647
   21MOL    C52 4092   6.293   4.060   4.038  0.0638  0.2291 -0.5097
   21MOL    C53 4093   6.415   3.974   4.008 -0.0544  0.3308  0.1706
   21MOL   Cl54 4094   6.426   3.938   3.836  0.2970 -0.2702 -0.0179
   21MOL    C55 4095   6.506   3.935   4.102 -0.2397  0.4036 -0.0355
   21MOL    C56 4096   6.639   3.860   4.075  0.6325 -0.3103 -0.2099
   21MOL    H57 4097   6.217   4.037   3.963 -0.5830  1.9770 -0.4307
   21MOL    H58 4098   6.313   4.167   4.024 -1.3919  0.4714 -0.7787
   21MOL    H59 4099   6.482   3.949   4.206  0.9873  0.9575  0.1851
   21MOL    H60 4100   6.633   3.753   4.098  0.8332 -0.4397 -0.7383
   21MOL    H61 4101   6.641   3.858   3.966 -0.6187 -0.3584 -0.2396
   21MOL    C62 4102   6.767   3.932   4.114  0.6709  0.1826  0.0268
   21MOL    C63 4103   6.890   3.841   4.142 -0.3615 -0.7025  0.3085
   21MOL   Cl64 4104   6.997   3.841   4.012 -0.0980 -0.2306  0.4054
   21MOL    C65 4105   6.909   3.774   4.256 -0.2595  0.6796  0.1810
   21MOL    C66 4106   7.038   3.701   4.299 -0.4313  0.0878  0.1110
   21MOL    H67 4107   6.791   4.003   4.034  0.9935  0.8559  0.7174
   21MOL    H68 4108   6.749   3.992   4.203 -1.8408  0.4367 -0.6129
   21MOL    H69 4109   6.829   3.777   4.329 -0.6390 -0.4370 -0.1914
   21MOL    H70 4110   7.041   3.697   4.408 -0.1738  1.4453  0.1625
   21MOL    H71 4111   7.129   3.754   4.270 -0.3147  0.9255  1.9195
   21MOL    C72 4112   7.045   3.559   4.247 -0.4223 -0.3969 -0.3491
   21MOL    C73 4113   7.159   3.482   4.302  0.0992 -0.0356 -0.4815
   21MOL   Cl74 4114   7.290   3.490   4.186 -0.3120 -0.1649 -0.2264
   21MOL    C75 4115   7.171   3.412   4.415 -0.6468 -0.2329 -0.0135
   21MOL    C76 4116   7.281   3.322   4.450 -0.8949  0.3931 -0.1560
   21MOL    H77 4117   7.043   3.565   4.139  0.9446 -2.2617 -0.5042
   21MOL    H78 4118   6.954   3.509   4.279 -1.7881  0.7222 -2.3937
   21MOL    H79 4119   7.098   3.411   4.494 -0.1664 -0.0530  0.4345
   21MOL    H80 4120   7.347   3.377   4.517 -1.0985  0.4643 -0.0121
   21MOL    H81 4121   7.332   3.283   4.362  1.4286 -1.8433  2.0837
   21MOL    C82 4122   7.228   3.188   4.507  0.0937  0.1510  0.2572
   21MOL    C83 4123   7.334   3.078   4.501  0.0848 -0.1724 -0.3529
   21MOL   Cl84 4124   7.268   2.923   4.442 -0.1812  0.1597 -0.1334
   21MOL    C85 4125   7.464   3.081   4.535  0.8551 -0.2023 -0.0270
   21MOL    C86 4126   7.552   2.966   4.554 -0.8557  0.0334  0.0970
   21MOL    H87 4127   7.146   3.161   4.440  0.1533 -1.0240  0.6487
   21MOL    H88 4128   7.178   3.199   4.603  1.3605  0.8842  0.8472
   21MOL    H89 4129   7.511   3.173   4.567 -1.1177  0.4990  0.9406
   21MOL    H90 4130   7.505   2.874   4.519  0.9395 -0.1034 -2.0881
   21MOL    H91 4131   7.635   2.991   4.487 -0.1770  0.9093  1.2472
   21MOL    C92 4132   7.595   2.941   4.699 -0.3843 -0.1300  0.2415
   21MOL    C93 4133   7.478   2.895   4.786 -0.1852  0.1299  0.2011
   21MOL   Cl94 4134   7.432   3.025   4.896 -0.1246 -0.2296 -0.0541
   21MOL    C95 4135   7.421   2.773   4.780  0.2367 -0.0271 -0.1532
   21MOL    C96 4136   7.461   2.659   4.685  0.6526  0.5109 -0.2906
   21MOL    H97 4137   7.623   3.044   4.724  1.7562 -0.4430 -0.7692
   21MOL    H98 4138   7.682   2.879   4.719 -1.0705 -0.6557  1.6250
   21MOL    H99 4139   7.336   2.749   4.841 -1.8505  0.0530 -2.9059
   21MOL   H100 4140   7.386   2.649   4.606 -0.3702 -1.8697  0.9170
   21MOL   H101 4141   7.554   2.692   4.639  0.2265  2.4156  0.1701
   21MOL   C102 4142   7.479   2.527   4.760  0.2421 -0.5167 -0.0445
   21MOL   C103 4143   7.517   2.399   4.685 -0.1741  0.5916 -0.5475
   21MOL  Cl104 4144   7.591   2.291   4.792  0.2919  0.4415  0.1140
   21MOL   C105 4145   7.486   2.368   4.560 -0.0891  0.4092 -0.2882
   21MOL   C106 4146   7.512   2.245   4.485 -0.0113  0.5896 -0.0947
   21MOL   H107 4147   7.551   2.536   4.841  0.3120  1.9181 -0.3507
   21MOL   H108 4148   7.385   2.511   4.811  0.7481  0.2315  1.1440
   21MOL   H109 4149   7.442   2.448   4.503  0.3322  1.0323  0.2459
   21MOL   H110 4150   7.565   2.284   4.398 -0.1377  1.3194  0.1520
   21MOL   H111 4151   7.560   2.170   4.547 -2.4630  0.8122  2.1494
   21MOL   C112 4152   7.386   2.180   4.426 -0.6964 -0.0302  0.6173
   21MOL   C113 4153   7.401   2.081   4.314  0.0226 -0.7225 -0.0834
   21MOL  Cl114 4154   7.546   2.075   4.223 -0.2070  0.6966  0.0048
   21MOL   C115 4155   7.296   2.011   4.270  0.0628  0.0216  0.1649
   21MOL   C116 4156   7.158   2.009   4.327 -0.0794  0.5335  0.0508
   21MOL   H117 4157   7.337   2.120   4.502 -1.7485  0.3167  0.2353
   21MOL   H118 4158   7.324   2.258   4.380  1.1862  1.6797  0.9366
   21MOL   H119 4159   7.316   1.951   4.182 -0.0804  1.6876 -1.0169
   21MOL   H120 4160   7.152   2.046   4.430 -3.0730 -0.1714  0.1784
   21MOL   H121 4161   7.130   1.904   4.335  1.8561 -0.1277 -1.4880
   21MOL   C122 4162   7.072   2.073   4.225 -1.0975 -0.3364  0.7092
   21MOL   C123 4163   6.927   2.097   4.269  0.8531  0.0475 -0.0249
   21MOL  Cl124 4164   6.922   2.231   4.378 -0.2137 -0.4153 -0.4494
   21MOL   C125 4165   6.813   2.027   4.246  0.1800 -0.0761  0.3623
   21MOL   C126 4166   6.801   1.904   4.161  0.4360 -0.0428  0.4697
   21MOL   H127 4167   7.110   2.169   4.189  2.9608 -1.9203  0.4690
   21MOL   H128 4168   7.083   2.018   4.131 -2.3664  1.3555 -0.4681
   21MOL   H129 4169   6.725   2.060   4.301 -0.9351 -1.9282 -0.2784
   21MOL   H130 4170   6.888   1.893   4.095 -0.0831  0.0880 -0.2390
   21MOL   H131 4171   6.786   1.814   4.221 -1.3594 -0.9598 -1.3024
   21MOL   C132 4172   6.677   1.911   4.071 -0.3815  0.1846  0.0810
   21MOL   C133 4173   6.652   1.792   3.976  0.0179  0.3323  0.0658
   21MOL  Cl134 4174   6.511   1.712   4.022 -0.0782  0.4065  0.5325
   21MOL   C135 4175   6.727   1.764   3.868 -0.1048  0.2117  0.4762
   21MOL   C136 4176   6.848   1.834   3.821  0.0369 -0.2950 -0.1359
   21MOL   H137 4177   6.585   1.928   4.128 -0.0367 -2.0174  1.3832
   21MOL   H138 4178   6.681   1.998   4.007 -0.9799 -0.6894 -1.1614
   21MOL   H139 4179   6.699   1.675   3.813 -1.9504  0.4687  0.9650
   21MOL   H140 4180   6.841   1.880   3.723 -0.0039 -0.5390 -0.2473
   21MOL   H141 4181   6.870   1.918   3.887 -0.5714  0.5320 -0.9743
   21MOL   C142 4182   6.967   1.733   3.814  0.6142  0.5904  1.0834
   21MOL   C143 4183   7.089   1.788   3.745 -0.4957  0.1191  0.1802
   21MOL  Cl144 4184   7.211   1.836   3.853 -0.0349 -0.2319 -0.3086
   21MOL   C145 4185   7.092   1.814   3.609  0.2857 -0.1209  0.2500
   21MOL   C146 4186   7.210   1.867   3.534 -0.0006 -0.6228 -1.0913
   21MOL   H147 4187   6.946   1.645   3.753 -0.5015  1.2212  0.5327
   21MOL   H148 4188   6.988   1.690   3.912 -0.4224 -2.5821 -0.0495
   21MOL   H149 4189   6.999   1.796   3.559  0.6901 -1.0324 -0.1785
   21MOL   H150 4190   7.191   1.971   3.507  2.7897  0.5752  1.3054
   21MOL   H151 4191   7.298   1.873   3.597 -0.0618 -1.2617 -0.9413
   21MOL   C152 4192   7.242   1.787   3.408  0.2224  0.1679  0.1193
   21MOL   C153 4193   7.329   1.853   3.304 -0.2748  0.0145 -0.3537
   21MOL  Cl154 4194   7.479   1.912   3.372  0.2260 -0.2405  0.0519
   21MOL   C155 4195   7.297   1.872   3.174 -0.1616  0.0237  0.3414
   21MOL   C156 4196   7.390   1.927   3.067 -0.0801 -0.1701 -0.2281
   21MOL   H157 4197   7.284   1.694   3.445 -0.1981  0.0205  0.2292
   21MOL   H158 4198   7.147   1.762   3.362  0.0026  2.3302 -0.6729
   21MOL   H159 4199   7.200   1.843   3.136 -1.3984  1.6911  2.1402
   21MOL   H160 4200   7.485   1.955   3.110 -0.2579 -2.2082  1.5988
   21MOL   H161 4201   7.353   2.011   3.008  0.0873 -0.9463 -1.4631
   21MOL   C162 4202   7.410   1.811   2.969 -0.0347 -0.2295  0.5851
   21MOL   C163 4203   7.459   1.856   2.836  0.0346 -0.2080  0.0593
   21MOL  Cl164 4204   7.331   1.874   2.725 -0.1991 -0.3735 -0.3031
   21MOL   C165 4205   7.590   1.878   2.818 -0.3817  0.7070  0.3075
   21MOL   C166 4206   7.663   1.918   2.697 -0.1075  0.6757  0.6227
   21MOL   H167 4207   7.485   1.743   3.010  0.0787 -0.2745  0.3040
   21MOL   H168 4208   7.319   1.751   2.957 -0.4134  0.1928  1.3508
   21MOL   H169 4209   7.665   1.854   2.891 -1.1010 -0.5194  0.6627
   21MOL   H170 4210   7.591   1.949   2.621  1.1924  1.0740 -0.4679
   21MOL   H171 4211   7.731   1.999   2.722 -1.7106  2.6579 -1.2696
   21MOL   C172 4212   7.740   1.797   2.641 -0.7557  0.3471 -0.2774
   21MOL   C173 4213   7.797   1.814   2.499  0.0005 -0.1944  0.6227
   21MOL  Cl174 4214   7.873   1.966   2.465  0.0358  0.1594 -0.1126
   21MOL   C175 4215   7.778   1.722   2.403 -0.9750 -0.2584 -0.2983
   21MOL   C176 4216   7.828   1.732   2.261  0.1073  0.1577  0.0831
   21MOL   H177 4217   7.671   1.714   2.649 -1.1647  0.3036 -3.4976
   21MOL   H178 4218   7.826   1.766   2.701 -2.1453 -1.1935  0.9379
   21MOL   H179 4219   7.722   1.633   2.429 -0.3222 -0.2010  1.3966
   21MOL   H180 4220   7.925   1.684   2.246 -0.3241 -0.7145  0.0468
   21MOL   H181 4221   7.838   1.833   2.222 -1.5966  1.0945  1.9799
   21MOL   C182 4222   7.734   1.662   2.159  0.4338  0.0844  0.2883
   21MOL   C183 4223   7.667   1.757   2.057 -0.1390 -0.0933 -0.0634
   21MOL  Cl184 4224   7.548   1.853   2.133  0.2127 -0.2343  0.3096
   21MOL   C185 4225   7.687   1.764   1.925  0.6305  0.2468 -0.2482
   21MOL   C186 4226   7.623   1.860   1.833  0.0272 -0.3567  0.3032
   21MOL   H187 4227   7.801   1.599   2.102 -1.1723  0.0451 -1.6280
   21MOL   H188 4228   7.649   1.606   2.199  0.5102  0.9033  1.6251
   21MOL   H189 4229   7.759   1.690   1.891 -2.1973 -2.2404 -1.0206
   21MOL   H190 4230   7.519   1.832   1.816  0.3616  0.1199 -2.6948
   21MOL   H191 4231   7.624   1.961   1.872 -2.6109  0.1387 -0.8469
   21MOL   C192 4232   7.690   1.856   1.695  0.0034 -0.2870  0.4299
   21MOL   C193 4233   7.632   1.972   1.611 -0.2089  0.0152  0.0294
   21MOL  Cl194 4234   7.713   2.118   1.633  0.1796 -0.1290  0.4192
   21MOL   C195 4235   7.520   1.977   1.536 -0.2504 -0.0322 -0.0649
   21MOL   C196 4236   7.426   1.857   1.522  0.0000 -0.5687  0.8133
   21MOL   H197 4237   7.689   1.759   1.646 -0.0054  0.2503 -0.6402
   21MOL   H198 4238   7.796   1.880   1.707 -0.4401  1.1226  1.7716
   21MOL   H199 4239   7.494   2.061   1.473  0.0838  1.7986  2.1890
   21MOL   H200 4240   7.414   1.816   1.421 -0.0748  0.1616  0.5202
   21MOL   H201 4241   7.326   1.894   1.543 -1.7137 -2.7250 -2.8868
   21MOL   H202 4242   7.459   1.783   1.595  0.6404  0.9440  2.0930
   22MOL     C1 4243   5.522   6.097   2.062 -0.0167  0.0538  0.1438
   22MOL     C2 4244   5.386   6.128   2.118  0.6550  0.1918 -0.2946
   22MOL    Cl3 4245   5.319   6.265   2.037  0.1381  0.4878  0.4860
   22MOL     C4 4246   5.318   6.067   2.218  1.0822  0.4566 -0.6114
   22MOL     C5 4247   5.377   5.947   2.288  0.1749 -0.1442  0.2204
   22MOL     H6 4248   5.585   6.106   2.150 -0.3387  2.4229  0.1710
   22MOL     H7 4249   5.554   6.169   1.987  0.8393  1.4124  1.7830
   22MOL     H8 4250   5.223   6.110   2.247  1.1819  1.0537 -1.1477
   22MOL     H9 4251   5.294   5.887   2.325 -0.3985  0.5498  0.0630
   22MOL    H10 4252   5.423   5.876   2.219 -1.0199  0.5191 -1.2854
   22MOL    H11 4253   5.516   5.996   2.022 -4.0072  0.9075 -1.7082
   22MOL    C12 4254   5.466   5.987   2.402 -0.2244 -0.5140 -0.3560
   22MOL    C13 4255   5.568   5.883   2.441 -0.3444 -0.1188  0.0236
   22MOL   Cl14 4256   5.731   5.931   2.398  0.5445 -0.2357  0.1831
   22MOL    C15 4257   5.554   5.762   2.499 -0.4246  0.5333  0.2629
   22MOL    C16 4258   5.417   5.700   2.533  0.0612  0.1263 -0.3436
   22MOL    H17 4259   5.525   6.072   2.369 -1.8403  2.5113  4.0149
   22MOL    H18 4260   5.414   6.022   2.491  0.3780  2.0059 -0.9675
   22MOL    H19 4261   5.641   5.700   2.511 -0.5985  0.2753  0.1846
   22MOL    H20 4262   5.408   5.668   2.636 -0.0417  1.5867  0.1174
   22MOL    H21 4263   5.332   5.760   2.503 -0.4821  0.1756  1.2669
   22MOL    C22 4264   5.406   5.566   2.454  0.2856 -0.5994  0.1099
   22MOL    C23 4265   5.265   5.511   2.458  0.3161 -0.7043 -0.4920
   22MOL   Cl24 4266   5.176   5.551   2.309 -0.0279 -0.0093 -0.2121
   22MOL    C25 4267   5.223   5.425   2.550  0.0534 -0.1748 -0.0376
   22MOL    C26 4268   5.091   5.355   2.549  0.2929 -0.1096  0.1144
   22MOL    H27 4269   5.447   5.572   2.353  0.2722 -0.9522  0.0836
   22MOL    H28 4270   5.468   5.487   2.495 -2.8557 -3.2848 -0.0921
   22MOL    H29 4271   5.287   5.403   2.634 -0.5977  0.1425  0.5511
   22MOL    H30 4272   5.031   5.391   2.466 -2.1811 -1.5270  1.2290
   22MOL    H31 4273   5.114   5.250   2.530 -0.5291 -0.6869  2.2377
   22MOL    C32 4274   5.017   5.368   2.685  0.4040  0.6728  1.0193
   22MOL    C33 4275   4.884   5.299   2.681 -0.1649 -0.4560  0.3211
   22MOL   Cl34 4276   4.903   5.133   2.714 -0.1809 -0.1425 -0.4574
   22MOL    C35 4277   4.769   5.361   2.660  0.7721  0.0189  0.2037
   22MOL    C36 4278   4.633   5.297   2.675  0.4038 -0.0179  0.7973
   22MOL    H37 4279   5.084   5.327   2.761  0.5770  0.2602  0.6472
   22MOL    H38 4280   5.012   5.472   2.718  0.0478  0.7142  0.8377
   22MOL    H39 4281   4.775   5.467   2.639 -1.9693  0.8896  3.3391
   22MOL    H40 4282   4.635   5.210   2.741 -0.4278  0.5555  1.5874
   22MOL    H41 4283   4.562   5.370   2.715 -0.7795 -1.0015  0.5132
   22MOL    C42 4284   4.583   5.236   2.541 -0.2878  0.7158  1.0070
   22MOL    C43 4285   4.555   5.343   2.437 -0.2792 -0.2579  0.6266
   22MOL   Cl44 4286   4.391   5.401   2.460 -0.3251  0.2654  0.1438
   22MOL    C45 4287   4.637   5.390   2.345 -0.3205 -0.0943 -0.5323
   22MOL    C46 4288   4.783   5.342   2.321 -0.0821 -0.2328  0.2345
   22MOL    H47 4289   4.646   5.152   2.512  0.7051  1.1837  1.7552
   22MOL    H48 4290   4.494   5.179   2.566 -0.5790  0.1015 -1.3521
   22MOL    H49 4291   4.597   5.472   2.288 -0.7373 -0.2002 -0.3914
   22MOL    H50 4292   4.853   5.417   2.282 -0.1244  0.7832  2.0785
   22MOL    H51 4293   4.828   5.311   2.415  1.0396  0.7042  0.0261
   22MOL    C52 4294   4.787   5.217   2.228 -0.6759 -0.2201 -0.0889
   22MOL    C53 4295   4.922   5.142   2.235 -0.1031 -0.0319  0.1051
   22MOL   Cl54 4296   4.937   5.040   2.375 -0.2409 -0.1223 -0.4057
   22MOL    C55 4297   5.025   5.159   2.147 -0.5984  0.1698  0.4007
   22MOL    C56 4298   5.161   5.105   2.169  0.1499 -0.3771 -0.2553
   22MOL    H57 4299   4.716   5.142   2.263 -0.5594  0.4312  1.5555
   22MOL    H58 4300   4.752   5.250   2.130  0.7260  0.5542 -0.3457
   22MOL    H59 4301   5.014   5.222   2.059 -0.6092 -2.6301 -1.6827
   22MOL    H60 4302   5.166   5.026   2.243 -0.6579  1.3606  1.7126
   22MOL    H61 4303   5.196   5.078   2.070  0.5767  1.0684 -0.5187
   22MOL    C62 4304   5.258   5.222   2.208 -0.2823 -0.4343 -0.9522
   22MOL    C63 4305   5.399   5.184   2.230 -0.0248 -0.1913 -0.0598
   22MOL   Cl64 4306   5.497   5.235   2.100 -0.0688  0.3344  0.0606
   22MOL    C65 4307   5.449   5.133   2.344 -0.5010  0.2085  1.2088
   22MOL    C66 4308   5.594   5.095   2.380  0.2929  0.3398 -0.2501
   22MOL    H67 4309   5.262   5.293   2.125  1.3337 -0.8995 -1.2884
   22MOL    H68 4310   5.223   5.268   2.300  0.3834 -1.0768 -0.3782
   22MOL    H69 4311   5.373   5.114   2.419 -1.3207  0.1831  0.3723
   22MOL    H70 4312   5.624   5.162   2.460 -1.2713  0.4827  0.2141
   22MOL    H71 4313   5.656   5.117   2.292 -2.1698  0.6739 -1.9550
   22MOL    C72 4314   5.617   4.949   2.429  0.1200  0.3543 -0.3390
   22MOL    C73 4315   5.752   4.932   2.476 -0.2743  0.2773 -0.4235
   22MOL   Cl74 4316   5.826   4.784   2.428 -0.2041 -0.1385 -0.3066
   22MOL    C75 4317   5.820   5.010   2.568  0.4035  0.1620  0.0928
   22MOL    C76 4318   5.954   4.982   2.642  0.6717 -0.0094 -0.7111
   22MOL    H77 4319   5.592   4.870   2.358  1.8458 -0.2985 -0.2346
   22MOL    H78 4320   5.542   4.936   2.508  0.3846  1.0948  0.0376
   22MOL    H79 4321   5.773   5.104   2.594 -0.3502  0.7187 -3.0401
   22MOL    H80 4322   6.010   5.076   2.636 -1.5124  1.3411 -0.3957
   22MOL    H81 4323   6.013   4.904   2.594  1.2837  1.0368 -1.6928
   22MOL    C82 4324   5.934   4.949   2.788 -0.5028 -0.2001  0.1233
   22MOL    C83 4325   6.059   4.928   2.862  0.5580 -0.7191  0.2986
   22MOL   Cl84 4326   6.100   5.040   2.986  0.5449 -0.0971  0.0907
   22MOL    C85 4327   6.130   4.819   2.847  0.1428 -0.2766  0.4505
   22MOL    C86 4328   6.250   4.785   2.937  0.1460  0.2875 -0.3639
   22MOL    H87 4329   5.852   4.879   2.805  0.0400 -0.9106 -0.1555
   22MOL    H88 4330   5.886   5.040   2.823 -2.2377 -0.7947 -0.6458
   22MOL    H89 4331   6.105   4.738   2.780 -0.5727 -0.0767  0.4699
   22MOL    H90 4332   6.321   4.736   2.871  0.5797 -0.8564  0.9182
   22MOL    H91 4333   6.300   4.876   2.971  0.3665  0.2444 -0.5788
   22MOL    C92 4334   6.216   4.691   3.051 -0.2685  0.8788  0.1879
   22MOL    C93 4335   6.334   4.615   3.104  0.1182 -0.4812  0.7530
   22MOL   Cl94 4336   6.369   4.479   3.005  0.1141  0.5553  0.1977
   22MOL    C95 4337   6.415   4.650   3.205  0.0313 -0.4402  0.1919
   22MOL    C96 4338   6.394   4.766   3.298  0.3938 -0.7643 -0.5522
   22MOL    H97 4339   6.150   4.608   3.026 -0.0077  1.3793 -2.2814
   22MOL    H98 4340   6.161   4.731   3.136 -0.8591  1.8973 -0.6672
   22MOL    H99 4341   6.503   4.597   3.237  0.1364  1.8115  3.9289
   22MOL   H100 4342   6.493   4.807   3.318  0.0569 -1.7637  3.4327
   22MOL   H101 4343   6.351   4.847   3.238  0.3240 -0.5599 -0.2276
   22MOL   C102 4344   6.321   4.746   3.432  1.0274 -0.1203 -0.2745
   22MOL   C103 4345   6.175   4.697   3.418  0.7100 -0.1617 -1.0478
   22MOL  Cl104 4346   6.165   4.529   3.464  0.0170  0.2447  0.4041
   22MOL   C105 4347   6.066   4.771   3.401 -0.2568 -0.4229  0.1670
   22MOL   C106 4348   5.925   4.713   3.397  0.1450 -0.1846 -0.8996
   22MOL   H107 4349   6.386   4.684   3.494  0.6578  0.0038  0.2352
   22MOL   H108 4350   6.308   4.840   3.484  0.3056 -1.4140  1.9529
   22MOL   H109 4351   6.074   4.878   3.384  1.9475 -0.6892 -0.6206
   22MOL   H110 4352   5.889   4.729   3.295  0.6944  1.2021 -0.8938
   22MOL   H111 4353   5.921   4.606   3.415 -1.1393  0.2916  1.9847
   22MOL   C112 4354   5.839   4.777   3.504  0.5103  0.7125  0.4849
   22MOL   C113 4355   5.692   4.739   3.491 -0.0310 -0.0030 -0.4704
   22MOL  Cl114 4356   5.652   4.579   3.434  0.1025 -0.5389 -0.4006
   22MOL   C115 4357   5.595   4.826   3.517 -0.4149 -0.9293 -0.1446
   22MOL   C116 4358   5.616   4.972   3.561  0.4608 -0.7053  0.8988
   22MOL   H117 4359   5.872   4.743   3.602 -2.1017  0.3000  1.2631
   22MOL   H118 4360   5.847   4.885   3.493  0.6765  0.5128 -1.4110
   22MOL   H119 4361   5.493   4.793   3.502 -0.7338 -1.0036  1.9831
   22MOL   H120 4362   5.650   5.032   3.477 -0.2261 -0.9522  0.4427
   22MOL   H121 4363   5.706   4.967   3.622  2.1066  0.3109 -1.3735
   22MOL   C122 4364   5.496   5.035   3.632  0.1376  0.1761 -0.9103
   22MOL   C123 4365   5.520   5.174   3.664  0.2827  0.1531  0.2488
   22MOL  Cl124 4366   5.438   5.283   3.568 -0.1194 -0.0901  0.0461
   22MOL   C125 4367   5.601   5.226   3.764 -0.1205  0.0527  0.4055
   22MOL   C126 4368   5.675   5.149   3.878  0.2735  0.0062  0.0296
   22MOL   H127 4369   5.416   5.031   3.558 -0.8937 -2.3993  0.2911
   22MOL   H128 4370   5.462   4.970   3.712  1.1245 -1.3451 -1.7036
   22MOL   H129 4371   5.620   5.332   3.754  0.4313 -0.0236  0.6249
   22MOL   H130 4372   5.641   5.045   3.886 -0.0031  0.1548  0.8680
   22MOL   H131 4373   5.782   5.153   3.860 -0.0296  0.3327 -1.7870
   22MOL   C132 4374   5.639   5.202   4.023  0.0813  0.3718  0.6942
   22MOL   C133 4375   5.740   5.152   4.129 -0.1795 -0.3375  0.0805
   22MOL  Cl134 4376   5.869   5.257   4.147 -0.2990  0.2264 -0.3615
   22MOL   C135 4377   5.725   5.045   4.204 -0.2038  0.1833 -0.1514
   22MOL   C136 4378   5.614   4.939   4.197  0.7631  0.3483 -0.1920
   22MOL   H137 4379   5.640   5.310   4.016  2.0152  0.4197  1.3616
   22MOL   H138 4380   5.541   5.177   4.062  0.5455 -2.3402  0.2314
   22MOL   H139 4381   5.798   5.034   4.283 -0.5385  0.5172  0.2083
   22MOL   H140 4382   5.529   4.979   4.141  1.9507 -0.2703 -2.5097
   22MOL   H141 4383   5.663   4.860   4.140 -0.1427 -0.7330  0.5009
   22MOL   C142 4384   5.576   4.889   4.336  0.1110  1.0686  0.2715
   22MOL   C143 4385   5.442   4.817   4.339 -0.4361  0.8996 -0.0903
   22MOL  Cl144 4386   5.337   4.857   4.472 -0.3723  0.5542  0.5087
   22MOL   C145 4387   5.407   4.721   4.247 -0.2527 -0.4506 -0.4649
   22MOL   C146 4388   5.283   4.636   4.251  0.1200 -0.0817 -0.7273
   22MOL   H147 4389   5.578   4.969   4.410 -0.1295  0.8561  0.5092
   22MOL   H148 4390   5.652   4.817   4.369  0.2668  0.8202 -0.6173
   22MOL   H149 4391   5.470   4.712   4.160  0.3923 -1.1324  0.0732
   22MOL   H150 4392   5.299   4.557   4.324 -1.8333  0.0101 -0.1651
   22MOL   H151 4393   5.207   4.697   4.299  0.4956 -0.5211  0.4436
   22MOL   C152 4394   5.230   4.589   4.116 -0.2397 -0.0439  0.1175
   22MOL   C153 4395   5.173   4.707   4.038 -0.1097 -0.5505  0.0298
   22MOL  Cl154 4396   5.003   4.733   4.080 -0.0829 -0.0157  0.3057
   22MOL   C155 4397   5.236   4.782   3.944 -1.0842 -0.2089 -0.0027
   22MOL   C156 4398   5.182   4.893   3.855 -0.2977 -0.7938 -0.3533
   22MOL   H157 4399   5.308   4.537   4.060 -2.2867 -1.1593 -1.7971
   22MOL   H158 4400   5.146   4.520   4.127 -1.1593  0.9739 -0.3296
   22MOL   H159 4401   5.339   4.753   3.932 -0.1451  3.2014 -0.5139
   22MOL   H160 4402   5.257   4.971   3.854 -0.7123 -0.3075  2.0126
   22MOL   H161 4403   5.095   4.946   3.894  0.3639  0.2065 -0.2248
   22MOL   C162 4404   5.158   4.842   3.711  0.7719 -0.1957 -0.2074
   22MOL   C163 4405   5.116   4.946   3.608 -0.2380  0.0905  0.0612
   22MOL  Cl164 4406   5.125   5.104   3.661  0.0367 -0.0381 -0.3410
   22MOL   C165 4407   5.088   4.919   3.484  0.5418 -0.4843  0.3355
   22MOL   C166 4408   5.054   5.026   3.376  0.1105  0.0902  0.3440
   22MOL   H167 4409   5.246   4.790   3.673  1.4267  0.6931  0.0988
   22MOL   H168 4410   5.080   4.765   3.709 -0.8978  1.4922 -2.6480
   22MOL   H169 4411   5.088   4.814   3.457  1.5068 -0.6761  1.0412
   22MOL   H170 4412   4.978   4.978   3.314 -0.0432 -0.7157  1.1510
   22MOL   H171 4413   5.014   5.117   3.421  2.3237  0.7737  0.9694
   22MOL   C172 4414   5.173   5.051   3.280  0.1583  0.1608  0.4261
   22MOL   C173 4415   5.150   5.187   3.200  0.0687 -0.0135 -1.0316
   22MOL  Cl174 4416   5.033   5.164   3.073  0.1257  0.2680 -0.8001
   22MOL   C175 4417   5.213   5.297   3.231 -0.0844 -0.5133  0.6408
   22MOL   C176 4418   5.187   5.431   3.154 -0.2329  0.7731 -0.3865
   22MOL   H177 4419   5.191   4.971   3.208  0.6769  0.3580  0.3299
   22MOL   H178 4420   5.266   5.052   3.338 -0.7858 -2.6912  2.0660
   22MOL   H179 4421   5.295   5.313   3.300  0.1325  1.1758  0.0088
   22MOL   H180 4422   5.168   5.490   3.244  3.4618 -0.9592  1.6603
   22MOL   H181 4423   5.094   5.421   3.098 -1.5589  0.6595  1.7925
   22MOL   C182 4424   5.311   5.487   3.070 -0.1395 -0.4316 -0.4213
   22MOL   C183 4425   5.298   5.615   2.998  0.2089  0.3699 -1.0183
   22MOL  Cl184 4426   5.436   5.661   2.902 -0.1418  0.0357 -0.1949
   22MOL   C185 4427   5.181   5.685   2.993  0.8151 -0.4177  0.2929
   22MOL   C186 4428   5.146   5.812   2.920  0.6785  0.1192  0.7198
   22MOL   H187 4429   5.401   5.493   3.131  0.3610  0.1063 -1.1883
   22MOL   H188 4430   5.338   5.408   3.000  0.8670 -2.1926  1.8910
   22MOL   H189 4431   5.102   5.653   3.060  0.3328  1.8345  0.8206
   22MOL   H190 4432   5.107   5.880   2.995  0.5496  0.3198  0.4722
   22MOL   H191 4433   5.230   5.863   2.874  0.1692 -0.2622 -0.6849
   22MOL   C192 4434   5.037   5.782   2.812  0.5819  0.1086  0.3410
   22MOL   C193 4435   4.988   5.915   2.751  0.3281 -0.1477 -1.3582
   22MOL  Cl194 4436   5.048   5.942   2.594  0.1078 -0.0620  0.0794
   22MOL   C195 4437   4.905   6.008   2.808 -0.7142 -0.3421  0.1417
   22MOL   C196 4438   4.847   5.994   2.943  0.1828  0.2710  0.0805
   22MOL   H197 4439   4.949   5.730   2.850 -0.6962  0.5135 -1.9731
   22MOL   H198 4440   5.085   5.720   2.736  0.3067 -0.2100  0.4233
   22MOL   H199 4441   4.876   6.097   2.755  1.8906  0.7812  0.4939
   22MOL   H200 4442   4.877   6.082   2.999 -2.7868  2.3028 -1.4442
   22MOL   H201 4443   4.877   5.899   2.989 -0.9956 -0.5119 -0.7400
   22MOL   H202 4444   4.739   5.995   2.933  0.3822 -0.0030 -2.4554
   23MOL     C1 4445   4.990   6.016   7.301  0.1442  0.5678  0.2208
   23MOL     C2 4446   5.052   6.143   7.349  0.3211  0.6102 -0.1453
   23MOL    Cl3 4447   4.972   6.205   7.489 -0.2042 -0.7512  0.0754
   23MOL     C4 4448   5.156   6.213   7.290 -0.1928  0.1714 -0.8443
   23MOL     C5 4449   5.219   6.179   7.157  0.0934 -0.0309  0.0557
   23MOL     H6 4450   4.885   6.008   7.327  0.2777  0.4255  0.7258
   23MOL     H7 4451   5.052   5.931   7.330  1.5842  1.4069 -0.3154
   23MOL     H8 4452   5.195   6.291   7.354 -0.3505  0.4835 -1.1252
   23MOL     H9 4453   5.156   6.144   7.076 -1.2434  0.8948  0.6827
   23MOL    H10 4454   5.246   6.274   7.109 -3.5686  1.0048 -0.0734
   23MOL    H11 4455   4.992   6.030   7.193 -2.3678  0.2322  0.1128
   23MOL    C12 4456   5.349   6.102   7.182 -0.3558  0.3692 -0.6364
   23MOL    C13 4457   5.406   6.037   7.056 -1.0465 -0.0174 -0.9354
   23MOL   Cl14 4458   5.549   6.110   6.995 -0.2805 -0.2567  0.0777
   23MOL    C15 4459   5.356   5.934   6.988  0.4171 -0.1245 -0.0828
   23MOL    C16 4460   5.240   5.848   7.021  0.1507 -0.4049  0.0667
   23MOL    H17 4461   5.426   6.162   7.231 -0.9607 -1.6114  2.8988
   23MOL    H18 4462   5.339   6.021   7.253  0.5849 -0.7808 -1.7975
   23MOL    H19 4463   5.405   5.907   6.895 -0.5894 -2.2088 -0.0359
   23MOL    H20 4464   5.212   5.856   7.126  0.8999 -0.5808  0.2851
   23MOL    H21 4465   5.161   5.898   6.965  1.1368  2.3469  1.0504
   23MOL    C22 4466   5.265   5.703   6.984  0.0056 -1.1441 -0.4020
   23MOL    C23 4467   5.135   5.624   6.950  0.3697 -0.2581  0.1535
   23MOL   Cl24 4468   5.091   5.633   6.787 -0.1006 -0.0731 -0.1689
   23MOL    C25 4469   5.065   5.557   7.044 -0.3131  0.4987  0.0797
   23MOL    C26 4470   4.929   5.488   7.020 -0.5297 -0.8407 -0.5506
   23MOL    H27 4471   5.316   5.696   6.889 -0.0285 -0.2895 -0.4883
   23MOL    H28 4472   5.322   5.651   7.061  0.0620 -1.4733 -0.6693
   23MOL    H29 4473   5.108   5.543   7.142 -0.0659  0.7180  0.0020
   23MOL    H30 4474   4.928   5.446   6.920  0.2159 -1.0182 -0.4859
   23MOL    H31 4475   4.929   5.412   7.098 -1.3925 -1.0297 -0.7293
   23MOL    C32 4476   4.815   5.590   7.051 -0.3080 -0.4571  0.6038
   23MOL    C33 4477   4.678   5.528   7.013  0.0956 -0.4877  0.9416
   23MOL   Cl34 4478   4.617   5.581   6.864  0.2703 -0.3420  0.5486
   23MOL    C35 4479   4.611   5.435   7.083  0.1915 -0.0884 -0.2024
   23MOL    C36 4480   4.475   5.374   7.052  0.2838  0.7111  0.9711
   23MOL    H37 4481   4.806   5.612   7.158 -1.0714  2.4460 -0.0012
   23MOL    H38 4482   4.829   5.683   6.995  0.0099 -0.0855  1.2886
   23MOL    H39 4483   4.660   5.391   7.169 -1.1599  0.9825  1.1334
   23MOL    H40 4484   4.410   5.459   7.032  1.7095  1.0113 -2.8760
   23MOL    H41 4485   4.487   5.316   6.960 -0.5849  0.8498  0.7694
   23MOL    C42 4486   4.412   5.290   7.159 -0.1326  0.0937 -0.0070
   23MOL    C43 4487   4.269   5.249   7.146 -0.4376  0.2631 -0.7806
   23MOL   Cl44 4488   4.162   5.328   7.260 -0.4854 -0.1585  0.2087
   23MOL    C45 4489   4.216   5.155   7.066  0.0534  0.0498  0.5826
   23MOL    C46 4490   4.276   5.077   6.953 -0.7485  0.0031  0.0688
   23MOL    H47 4491   4.463   5.194   7.162  0.4796  0.4520  2.2500
   23MOL    H48 4492   4.431   5.343   7.253  3.2406  1.4528 -1.3857
   23MOL    H49 4493   4.111   5.133   7.081  0.1148 -1.3947 -1.0024
   23MOL    H50 4494   4.257   5.120   6.854 -0.8337 -1.6387 -0.6483
   23MOL    H51 4495   4.383   5.070   6.971 -0.2617  2.6891 -1.4881
   23MOL    C52 4496   4.217   4.936   6.953  0.6159  0.5657  0.0926
   23MOL    C53 4497   4.262   4.848   6.845  0.5270 -0.2431 -0.2301
   23MOL   Cl54 4498   4.189   4.900   6.697 -0.1998  0.0274  0.1730
   23MOL    C55 4499   4.356   4.748   6.848 -0.0519  0.7893 -0.2104
   23MOL    C56 4500   4.406   4.666   6.728 -0.5491  0.5691 -0.7040
   23MOL    H57 4501   4.233   4.881   7.046  0.9414 -1.4790 -1.1466
   23MOL    H58 4502   4.109   4.943   6.944  0.8783  2.4275 -1.8645
   23MOL    H59 4503   4.416   4.719   6.934 -0.1393  2.4774  0.4288
   23MOL    H60 4504   4.434   4.571   6.773 -0.1934  1.3245  0.6979
   23MOL    H61 4505   4.324   4.647   6.659  0.2490 -1.0576 -1.2337
   23MOL    C62 4506   4.528   4.732   6.663 -0.1889  0.0503  0.2972
   23MOL    C63 4507   4.656   4.708   6.745  0.2481  0.4778 -0.3146
   23MOL   Cl64 4508   4.725   4.545   6.733  0.1359 -0.2501 -0.1589
   23MOL    C65 4509   4.712   4.801   6.830 -0.2288 -0.2118 -0.5937
   23MOL    C66 4510   4.821   4.786   6.936  0.0923 -0.4947 -0.2302
   23MOL    H67 4511   4.547   4.695   6.562  0.3578  0.7577  0.1348
   23MOL    H68 4512   4.511   4.839   6.651 -0.2688 -0.2414 -2.5375
   23MOL    H69 4513   4.665   4.898   6.820 -2.0954 -1.0540 -0.2489
   23MOL    H70 4514   4.916   4.817   6.892 -0.4605  2.0085  0.2450
   23MOL    H71 4515   4.830   4.683   6.970  0.0720 -0.3917  0.0867
   23MOL    C72 4516   4.788   4.884   7.055  0.3878  0.0137 -0.6884
   23MOL    C73 4517   4.895   4.877   7.162  1.2730  0.1340  0.1369
   23MOL   Cl74 4518   4.944   5.033   7.195  0.2533  0.7666 -0.1951
   23MOL    C75 4519   4.919   4.769   7.230  0.5710 -1.3533 -0.1339
   23MOL    C76 4520   5.014   4.761   7.347 -0.3872  0.6599 -0.2139
   23MOL    H77 4521   4.689   4.880   7.101  1.3078  0.8660  1.4048
   23MOL    H78 4522   4.794   4.984   7.012  0.0426 -0.0349 -0.8550
   23MOL    H79 4523   4.876   4.674   7.204 -0.5175  0.0540 -3.6918
   23MOL    H80 4524   4.954   4.776   7.436  0.3352  0.4328  0.3146
   23MOL    H81 4525   5.083   4.845   7.357  0.5525 -0.0973 -0.3373
   23MOL    C82 4526   5.103   4.635   7.359  0.1948  0.1045  0.2500
   23MOL    C83 4527   5.185   4.648   7.485  0.3227 -0.2770 -0.4898
   23MOL   Cl84 4528   5.353   4.699   7.463 -0.2211  0.1578  0.1161
   23MOL    C85 4529   5.138   4.621   7.607 -0.2243  0.1499 -0.2444
   23MOL    C86 4530   5.213   4.633   7.741 -0.0009  0.3229 -0.4030
   23MOL    H87 4531   5.166   4.627   7.270 -2.6223  0.6513 -1.8585
   23MOL    H88 4532   5.032   4.552   7.364 -1.9062  1.8698  0.7241
   23MOL    H89 4533   5.037   4.584   7.617 -0.5687  1.0121 -0.4937
   23MOL    H90 4534   5.316   4.661   7.718 -0.2980  2.6015  0.9556
   23MOL    H91 4535   5.169   4.717   7.795 -1.5732 -0.4629 -0.4130
   23MOL    C92 4536   5.208   4.512   7.827  0.0163 -0.3322 -0.9366
   23MOL    C93 4537   5.286   4.518   7.963 -0.4125  0.3747 -0.2470
   23MOL   Cl94 4538   5.422   4.629   7.959  0.1671  0.4338  0.6566
   23MOL    C95 4539   5.275   4.431   8.063  0.2027 -0.6394 -0.6195
   23MOL    C96 4540   5.192   4.304   8.071  0.3064  0.1378  0.0448
   23MOL    H97 4541   5.228   4.422   7.769 -1.1889 -1.4629  0.3528
   23MOL    H98 4542   5.105   4.503   7.864 -0.2268  3.1945 -0.5585
   23MOL    H99 4543   5.334   4.449   8.151 -0.4862 -1.2585 -0.0265
   23MOL   H100 4544   5.144   4.287   7.975 -0.9635  4.3004 -0.1971
   23MOL   H101 4545   5.264   4.225   8.088  1.0035  0.7328 -0.1417
   23MOL   C102 4546   5.084   4.321   8.179  0.8192 -0.6505  0.1575
   23MOL   C103 4547   4.986   4.209   8.203 -0.6078  1.1236 -0.5289
   23MOL  Cl104 4548   4.914   4.161   8.059  0.2268 -0.2015  0.2009
   23MOL   C105 4549   4.957   4.148   8.323 -0.5683  0.4346 -0.7138
   23MOL   C106 4550   4.847   4.047   8.343 -0.6559  0.3105 -0.0759
   23MOL   H107 4551   5.144   4.330   8.270  0.4661 -0.4588  0.3775
   23MOL   H108 4552   5.032   4.417   8.170  0.0890 -0.9481  1.0786
   23MOL   H109 4553   5.006   4.188   8.410  0.3710 -0.1296 -0.9795
   23MOL   H110 4554   4.764   4.070   8.276  1.4173  0.5809 -2.6283
   23MOL   H111 4555   4.875   3.950   8.302  1.6088  0.9922 -0.2013
   23MOL   C112 4556   4.812   4.030   0.070 -0.8088 -0.7027 -0.4098
   23MOL   C113 4557   4.692   3.948   0.091  0.9963 -0.0757 -0.5634
   23MOL  Cl114 4558   4.559   4.047   0.090  0.1139 -0.5114 -0.0484
   23MOL   C115 4559   4.689   3.814   0.120  0.0392 -0.0573  0.5856
   23MOL   C116 4560   4.810   3.723   0.124 -0.5743  0.0240  0.3401
   23MOL   H117 4561   4.892   3.996   0.136 -1.6543 -0.7075  0.6336
   23MOL   H118 4562   4.786   4.129   0.110  0.1701 -0.0625 -1.3367
   23MOL   H119 4563   4.600   3.758   0.143 -0.5791  0.6612 -0.0475
   23MOL   H120 4564   4.855   3.726   0.224 -1.0040 -0.9564  0.5683
   23MOL   H121 4565   4.893   3.764   0.067 -0.4993 -0.1685  0.3098
   23MOL   C122 4566   4.766   3.584   0.075  0.1270 -0.1066 -0.0433
   23MOL   C123 4567   4.879   3.487   0.071 -0.6343  0.2202  0.3444
   23MOL  Cl124 4568   4.965   3.503   8.343  0.0258 -0.0007 -0.1499
   23MOL   C125 4569   4.914   3.392   0.160 -0.3849 -0.1699  0.0934
   23MOL   C126 4570   4.850   3.359   0.290 -0.2426  0.4007 -0.5120
   23MOL   H127 4571   4.696   3.532   0.141 -1.7261  0.2151 -1.7170
   23MOL   H128 4572   4.721   3.589   8.397  0.5285 -0.6936 -0.2616
   23MOL   H129 4573   4.992   3.319   0.144 -0.8434 -0.3921 -1.1251
   23MOL   H130 4574   4.936   3.362   0.357 -0.2739 -1.8353 -0.3542
   23MOL   H131 4575   4.792   3.449   0.313 -0.2880  0.6971 -1.7230
   23MOL   C132 4576   4.775   3.222   0.296  1.3689 -0.4229 -0.1111
   23MOL   C133 4577   4.786   3.146   0.427  1.1338  0.7211  0.3759
   23MOL  Cl134 4578   4.641   3.174   0.522 -0.4906 -0.2371 -0.1512
   23MOL   C135 4579   4.879   3.061   0.465 -0.7972  0.7951 -0.0473
   23MOL   C136 4580   4.996   3.023   0.381 -0.1311  0.8769 -0.1850
   23MOL   H137 4581   4.669   3.238   0.276  1.7219 -0.8491 -2.3887
   23MOL   H138 4582   4.801   3.163   0.208  0.8207  0.8893 -1.1667
   23MOL   H139 4583   4.874   3.016   0.563  2.6517  2.3873  0.9243
   23MOL   H140 4584   5.021   3.076   0.289  0.5142  0.2531 -0.3790
   23MOL   H141 4585   5.090   3.046   0.432  0.3669 -1.3296 -0.0604
   23MOL   C142 4586   4.985   2.873   0.346 -0.0793 -0.5473  0.0688
   23MOL   C143 4587   5.057   2.824   0.219 -0.1394  0.2327 -0.2156
   23MOL  Cl144 4588   5.226   2.816   0.268 -0.6845 -0.0784 -0.4016
   23MOL   C145 4589   5.010   2.776   0.102  0.5116 -0.4847 -0.3376
   23MOL   C146 4590   5.095   2.723   8.410 -0.0372  0.0457 -0.2598
   23MOL   H147 4591   4.880   2.851   0.323 -0.8728  1.3484  1.7706
   23MOL   H148 4592   5.001   2.808   0.431  0.3696  0.2245  0.5703
   23MOL   H149 4593   4.904   2.792   0.088  0.3460 -1.0491  0.2665
   23MOL   H150 4594   5.138   2.807   8.356 -1.6183  0.9374 -0.1575
   23MOL   H151 4595   5.174   2.665   0.036 -0.2250  0.2023  0.2502
   23MOL   C152 4596   5.022   2.626   8.322  0.4498 -0.1659  0.3227
   23MOL   C153 4597   5.114   2.586   8.213 -0.4469 -0.3643 -0.1942
   23MOL  Cl154 4598   5.090   2.704   8.085  0.1673 -0.1929 -0.0650
   23MOL   C155 4599   5.209   2.490   8.205 -0.1631 -0.6645 -0.2295
   23MOL   C156 4600   5.296   2.462   8.080 -0.3770  0.1124 -0.0178
   23MOL   H157 4601   5.010   2.534   8.379  1.1634  0.9532  2.3309
   23MOL   H158 4602   4.919   2.653   8.295 -0.0789 -0.9413  1.5489
   23MOL   H159 4603   5.232   2.425   8.288 -0.8663 -1.3484 -0.5587
   23MOL   H160 4604   5.393   2.437   8.122  0.0860  2.2532  0.2334
   23MOL   H161 4605   5.320   2.551   8.022  0.0185 -0.7136 -1.1371
   23MOL   C162 4606   5.243   2.348   7.988  0.5601 -0.1541  0.1915
   23MOL   C163 4607   5.143   2.394   7.885  0.5314  0.0068  0.5065
   23MOL  Cl164 4608   5.190   2.522   7.777  0.1995 -0.1837  0.2345
   23MOL   C165 4609   5.016   2.341   7.885 -0.3351  0.5322 -0.0966
   23MOL   C166 4610   4.905   2.383   7.796 -0.0810 -0.4417 -0.4684
   23MOL   H167 4611   5.327   2.313   7.929 -0.1637 -1.2221 -0.2225
   23MOL   H168 4612   5.205   2.265   8.047  0.5027 -0.6971 -0.6056
   23MOL   H169 4613   5.005   2.261   7.956  2.1182 -0.4113 -0.7029
   23MOL   H170 4614   4.937   2.393   7.693  1.9452  0.6680  0.2440
   23MOL   H171 4615   4.826   2.308   7.791 -2.3973  1.7876  1.1426
   23MOL   C172 4616   4.857   2.525   7.831 -0.2942  0.0441  0.1180
   23MOL   C173 4617   4.770   2.583   7.717  0.3074  0.0838 -0.1137
   23MOL  Cl174 4618   4.619   2.493   7.687 -0.2164  0.0404  0.0919
   23MOL   C175 4619   4.803   2.699   7.652  0.3319 -0.3540  0.4806
   23MOL   C176 4620   4.723   2.778   7.553 -0.2611 -0.2807  0.2484
   23MOL   H177 4621   4.942   2.593   7.827 -0.2528  0.1694  2.6262
   23MOL   H178 4622   4.794   2.536   7.919 -1.0820 -1.1291 -0.2896
   23MOL   H179 4623   4.902   2.737   7.675 -0.0047  0.8224  0.0082
   23MOL   H180 4624   4.618   2.748   7.558 -0.0074 -1.5553 -1.5962
   23MOL   H181 4625   4.745   2.744   7.452 -1.3759  0.8241 -0.3832
   23MOL   C182 4626   4.746   2.926   7.558  0.1698 -0.1938 -0.0811
   23MOL   C183 4627   4.704   2.991   7.682  0.4893 -0.6590  0.5301
   23MOL  Cl184 4628   4.832   3.050   7.785 -0.0057 -0.1465  0.4475
   23MOL   C185 4629   4.577   2.991   7.726  0.6442  0.4478 -0.0167
   23MOL   C186 4630   4.515   3.071   7.836  0.0469  0.7740 -0.2644
   23MOL   H187 4631   4.854   2.934   7.557  0.2848 -1.6216 -0.1816
   23MOL   H188 4632   4.699   2.962   7.466 -0.1191 -0.4627 -0.0387
   23MOL   H189 4633   4.502   2.931   7.676  1.2248 -1.1674  0.9915
   23MOL   H190 4634   4.470   2.994   7.899 -0.5239 -0.9894 -2.7377
   23MOL   H191 4635   4.592   3.123   7.893 -0.2920  0.3095  0.6293
   23MOL   C192 4636   4.426   3.184   7.793 -0.6661  0.1696  0.3307
   23MOL   C193 4637   4.283   3.140   7.779 -0.1022 -0.0607 -0.2469
   23MOL  Cl194 4638   4.241   3.105   7.616  0.0074  0.1749 -0.3943
   23MOL   C195 4639   4.195   3.133   7.884 -0.5225  0.2226 -0.3303
   23MOL   C196 4640   4.235   3.159   8.024  0.5416  0.2078  0.6492
   23MOL   H197 4641   4.461   3.222   7.697 -0.3843 -1.9571 -0.4381
   23MOL   H198 4642   4.446   3.269   7.858  0.0714  1.8163 -1.9944
   23MOL   H199 4643   4.092   3.103   7.871 -1.4087  1.6755  2.8292
   23MOL   H200 4644   4.340   3.132   8.037  0.5599 -0.4434 -0.7881
   23MOL   H201 4645   4.179   3.093   8.091 -0.9335  0.3895 -0.4065
   23MOL   H202 4646   4.230   3.266   8.041  1.1519  0.3518 -0.0404
   24MOL     C1 4647   2.080   1.329   2.629 -0.0936 -0.0492 -0.0128
   24MOL     C2 4648   2.067   1.381   2.486 -0.6435  0.1553  0.3572
   24MOL    Cl3 4649   2.029   1.247   2.379  0.2825  0.2907  0.4228
   24MOL     C4 4650   2.086   1.505   2.439  0.1541 -0.5621  0.1398
   24MOL     C5 4651   2.130   1.624   2.526  0.0980  0.5202 -0.3934
   24MOL     H6 4652   2.186   1.330   2.653 -0.4816  1.9981  1.8113
   24MOL     H7 4653   2.052   1.224   2.637  0.8506 -0.4285 -1.5155
   24MOL     H8 4654   2.062   1.526   2.336  0.4499  1.3069  0.4248
   24MOL     H9 4655   2.046   1.693   2.518 -1.1131 -1.0350 -1.4610
   24MOL    H10 4656   2.140   1.597   2.631 -2.1789 -3.1988 -1.0672
   24MOL    H11 4657   2.023   1.391   2.699  0.0152 -1.0799  1.0028
   24MOL    C12 4658   2.251   1.700   2.468  0.2759 -0.2045  0.5949
   24MOL    C13 4659   2.268   1.836   2.545 -0.5224  0.3597  0.3060
   24MOL   Cl14 4660   2.181   1.971   2.485  0.0457 -0.5594  0.0115
   24MOL    C15 4661   2.333   1.842   2.661 -0.2440  0.6030  0.7981
   24MOL    C16 4662   2.398   1.723   2.739 -0.8367 -0.3446 -0.9313
   24MOL    H17 4663   2.342   1.641   2.465 -0.5164 -1.3857 -0.6619
   24MOL    H18 4664   2.240   1.729   2.364 -3.3162  1.3881  1.3370
   24MOL    H19 4665   2.333   1.942   2.701 -0.7959  0.8552  0.1747
   24MOL    H20 4666   2.342   1.632   2.716 -1.5027 -0.7628  2.0900
   24MOL    H21 4667   2.502   1.709   2.710 -1.3741 -2.5964 -1.8694
   24MOL    C22 4668   2.399   1.744   2.890  0.3121  0.0270  0.0979
   24MOL    C23 4669   2.443   1.612   2.957 -0.9651  0.3704  0.3268
   24MOL   Cl24 4670   2.610   1.602   2.943  0.0757 -0.2294  0.4872
   24MOL    C25 4671   2.367   1.531   3.035  0.6510 -0.1695 -0.3463
   24MOL    C26 4672   2.411   1.413   3.112 -0.0663  0.7043 -0.6355
   24MOL    H27 4673   2.461   1.828   2.921  0.8569 -0.0552 -0.7413
   24MOL    H28 4674   2.294   1.755   2.918  0.7973  1.6785  1.3535
   24MOL    H29 4675   2.264   1.560   3.038  1.2116  1.8469  0.0616
   24MOL    H30 4676   2.379   1.327   3.052  0.3855 -0.8144  1.2387
   24MOL    H31 4677   2.518   1.410   3.134 -0.2372 -0.5691  0.0945
   24MOL    C32 4678   2.327   1.396   3.243  0.5100 -0.0127  1.0543
   24MOL    C33 4679   2.361   1.268   3.318  0.0548 -0.2852 -0.2233
   24MOL   Cl34 4680   2.217   1.166   3.346  0.2788  0.7586  0.0797
   24MOL    C35 4681   2.487   1.236   3.356  0.6579 -0.6177 -0.0005
   24MOL    C36 4682   2.534   1.105   3.427  0.4471  0.3210 -0.2048
   24MOL    H37 4683   2.344   1.480   3.310 -1.6585  1.0880  0.2552
   24MOL    H38 4684   2.221   1.391   3.218  0.5990  1.0493  0.4437
   24MOL    H39 4685   2.562   1.311   3.332 -2.4759  1.9741 -2.1059
   24MOL    H40 4686   2.622   1.118   3.489 -0.2067 -1.0420  1.0466
   24MOL    H41 4687   2.455   1.079   3.497  0.8091 -0.5241 -0.1066
   24MOL    C42 4688   2.565   0.988   3.334 -0.2335 -0.3941  0.2949
   24MOL    C43 4689   2.626   0.870   3.401 -0.2699 -0.2082 -0.6812
   24MOL   Cl44 4690   2.794   0.849   3.353 -0.0873  0.0127  0.3808
   24MOL    C45 4691   2.570   0.793   3.496 -0.7480 -0.1660 -0.1044
   24MOL    C46 4692   2.433   0.809   3.549  0.0969  0.2197  0.1209
   24MOL    H47 4693   2.466   0.959   3.300 -0.9001  1.7213  0.3521
   24MOL    H48 4694   2.631   1.027   3.256 -3.6426  0.2821 -2.3701
   24MOL    H49 4695   2.619   0.709   3.543  0.6994  0.1751 -0.9749
   24MOL    H50 4696   2.362   0.838   3.472 -1.7523 -0.9985  1.3377
   24MOL    H51 4697   2.398   0.707   3.556 -2.0077  0.9900  1.3056
   24MOL    C52 4698   2.419   0.878   3.684  0.6095  0.9471 -0.4104
   24MOL    C53 4699   2.277   0.927   3.726 -0.1008 -0.1856  0.8342
   24MOL   Cl54 4700   2.176   0.795   3.768  0.8861 -0.3879 -0.1163
   24MOL    C55 4701   2.237   1.055   3.710 -0.0679  0.2038 -0.4270
   24MOL    C56 4702   2.099   1.105   3.737  0.2068 -0.0413 -0.2775
   24MOL    H57 4703   2.456   0.818   3.768  0.1060  1.6574  0.3290
   24MOL    H58 4704   2.484   0.965   3.675  0.7439  0.6648 -2.3499
   24MOL    H59 4705   2.307   1.132   3.680 -2.2854  1.3409 -2.8168
   24MOL    H60 4706   2.033   1.048   3.802 -0.0484 -0.1860 -0.6554
   24MOL    H61 4707   2.088   1.201   3.788  0.7258 -0.4166  0.5368
   24MOL    C62 4708   2.013   1.115   3.603 -0.6459 -0.5587  0.4120
   24MOL    C63 4709   1.868   1.131   3.616  0.2951 -0.5074  0.6276
   24MOL   Cl64 4710   1.817   1.296   3.567  0.1788  0.3026  0.9328
   24MOL    C65 4711   1.789   1.034   3.652  0.6140  0.4726  0.5092
   24MOL    C66 4712   1.641   1.048   3.674 -0.0178 -0.3993 -0.5026
   24MOL    H67 4713   2.051   1.196   3.540 -1.2782 -0.1757  0.5106
   24MOL    H68 4714   2.024   1.022   3.548 -0.6316 -1.0841  1.2929
   24MOL    H69 4715   1.838   0.939   3.672  0.4789  0.7940  2.5440
   24MOL    H70 4716   1.617   1.154   3.682 -1.2315 -0.8024  1.5596
   24MOL    H71 4717   1.619   1.001   3.770  0.1765 -1.9002 -1.1827
   24MOL    C72 4718   1.561   0.974   3.567 -0.3264 -0.0762 -0.2630
   24MOL    C73 4719   1.571   1.042   3.432  0.1855 -0.0201 -0.1253
   24MOL   Cl74 4720   1.639   0.934   3.307  0.1156 -0.1315 -0.1859
   24MOL    C75 4721   1.541   1.173   3.413  0.4170  0.1718 -0.4341
   24MOL    C76 4722   1.556   1.256   3.294 -0.3356 -0.5908 -0.0017
   24MOL    H77 4723   1.455   0.977   3.592 -0.7207 -2.3286 -1.4837
   24MOL    H78 4724   1.592   0.870   3.553 -2.0412 -0.4647 -1.3072
   24MOL    H79 4725   1.489   1.218   3.496 -1.5228  0.8502 -1.9874
   24MOL    H80 4726   1.520   1.188   3.216 -1.5780  0.4865 -0.4011
   24MOL    H81 4727   1.659   1.291   3.285 -0.8008  2.0950  3.9340
   24MOL    C82 4728   1.456   1.375   3.291 -0.0290 -0.4504  0.0275
   24MOL    C83 4729   1.503   1.490   3.373 -0.8192 -0.9727  0.1601
   24MOL   Cl84 4730   1.632   1.562   3.290 -0.0713  0.1577  0.3034
   24MOL    C85 4731   1.445   1.534   3.486 -0.3706 -0.8790 -0.2004
   24MOL    C86 4732   1.499   1.654   3.558 -0.1136 -0.5728  0.7057
   24MOL    H87 4733   1.359   1.340   3.327 -0.0630  0.8473  1.2962
   24MOL    H88 4734   1.446   1.416   3.191  3.6546 -1.3882 -0.7867
   24MOL    H89 4735   1.355   1.484   3.520 -1.1255  1.4341  1.3220
   24MOL    H90 4736   1.557   1.719   3.493 -1.1862  1.5435  1.8039
   24MOL    H91 4737   1.413   1.721   3.571  1.8197  2.1949 -0.3903
   24MOL    C92 4738   1.585   1.615   3.681 -0.6726 -0.3853 -0.1974
   24MOL    C93 4739   1.619   1.735   3.762 -0.2510 -0.2350 -0.3116
   24MOL   Cl94 4740   1.521   1.746   3.901 -0.0839  0.3847  0.1765
   24MOL    C95 4741   1.715   1.827   3.729 -0.2618 -0.5482 -1.0051
   24MOL    C96 4742   1.800   1.819   3.602 -0.6245  0.2648  0.5667
   24MOL    H97 4743   1.674   1.557   3.657 -0.1353 -0.8541  2.7619
   24MOL    H98 4744   1.528   1.551   3.749 -1.8934 -1.1894 -1.9339
   24MOL    H99 4745   1.737   1.916   3.785 -0.1775 -1.3210  0.1996
   24MOL   H100 4746   1.901   1.835   3.640  0.4402  0.8719 -2.3905
   24MOL   H101 4747   1.792   1.722   3.554  1.9860  0.3486 -0.1038
   24MOL   C102 4748   1.781   1.944   3.514 -0.2019 -0.4639  0.5487
   24MOL   C103 4749   1.868   1.938   3.387  0.0746  0.2857  0.7400
   24MOL  Cl104 4750   2.027   1.981   3.421 -0.5396 -0.0714  0.2569
   24MOL   C105 4751   1.828   1.913   3.257 -0.1433  0.3656  0.3835
   24MOL   C106 4752   1.911   1.903   3.134 -0.0584 -0.0615 -0.0411
   24MOL   H107 4753   1.678   1.942   3.479  0.1155 -1.1295 -0.3651
   24MOL   H108 4754   1.787   2.037   3.570  2.1764 -0.2665  0.0151
   24MOL   H109 4755   1.722   1.903   3.241 -0.6395  2.5546  2.0918
   24MOL   H110 4756   2.017   1.925   3.142 -0.5613  2.3704  0.1363
   24MOL   H111 4757   1.909   1.799   3.099 -1.6897 -0.0913  0.1022
   24MOL   C112 4758   1.853   1.995   3.024 -0.5133 -0.3266  0.0704
   24MOL   C113 4759   1.868   1.944   2.887  0.2347 -0.0328  0.5835
   24MOL  Cl114 4760   1.737   1.842   2.844  0.5051 -0.1019 -0.4352
   24MOL   C115 4761   1.967   1.981   2.798 -0.0026 -0.9843  0.1782
   24MOL   C116 4762   2.087   2.071   2.830 -0.4441  0.2186  0.3472
   24MOL   H117 4763   1.755   2.031   3.055  0.0463  1.3030 -0.0179
   24MOL   H118 4764   1.925   2.076   3.030  1.2008 -1.4879 -3.3399
   24MOL   H119 4765   1.966   1.950   2.695 -0.8111 -0.2048 -0.0525
   24MOL   H120 4766   2.170   2.017   2.785 -1.3852  1.5755 -3.1844
   24MOL   H121 4767   2.113   2.090   2.934  0.6347  0.8211 -0.0277
   24MOL   C122 4768   2.069   2.205   2.740 -0.4981  0.2955  0.1814
   24MOL   C123 4769   2.175   2.310   2.766  0.1346  0.0857  0.1982
   24MOL  Cl124 4770   2.297   2.288   2.645 -0.0110 -0.0764  0.6395
   24MOL   C125 4771   2.184   2.397   2.869  0.2067 -0.0216  0.0928
   24MOL   C126 4772   2.082   2.408   2.984  0.0798  0.4041 -0.1152
   24MOL   H127 4773   2.049   2.178   2.637 -0.8381  2.5686 -0.3750
   24MOL   H128 4774   1.975   2.247   2.775 -1.7829 -0.6465 -2.0317
   24MOL   H129 4775   2.264   2.469   2.867  0.1350  0.0366 -2.4876
   24MOL   H130 4776   2.061   2.514   3.001 -3.6470 -0.3217  0.2751
   24MOL   H131 4777   1.990   2.352   2.970  0.4482 -0.0044 -0.9361
   24MOL   C132 4778   2.144   2.368   3.111  0.0088 -0.0362 -0.1084
   24MOL   C133 4779   2.052   2.410   3.227  0.8843 -0.1788  0.2502
   24MOL  Cl134 4780   1.929   2.298   3.250 -0.0634 -0.1043  0.0104
   24MOL   C135 4781   2.064   2.514   3.310  0.0075  0.1246 -0.1468
   24MOL   C136 4782   2.162   2.634   3.299  0.0708  0.5175  0.1412
   24MOL   H137 4783   2.143   2.259   3.119 -2.0485 -0.0534 -0.1681
   24MOL   H138 4784   2.244   2.404   3.133 -1.3219  2.3231  2.2807
   24MOL   H139 4785   1.986   2.522   3.384 -0.7184 -2.6122 -0.5788
   24MOL   H140 4786   2.229   2.623   3.213 -2.3945 -0.8286 -1.6626
   24MOL   H141 4787   2.094   2.714   3.271  1.2902  1.1598 -1.0350
   24MOL   C142 4788   2.242   2.667   3.426  0.8977  0.1234  0.6615
   24MOL   C143 4789   2.342   2.777   3.405 -0.1798 -0.3020 -0.0662
   24MOL  Cl144 4790   2.318   2.904   3.515 -0.0358 -0.5038 -0.2786
   24MOL   C145 4791   2.438   2.774   3.309  0.0156 -0.2902 -0.0741
   24MOL   C146 4792   2.528   2.883   3.262 -0.3143  0.1627 -0.4023
   24MOL   H147 4793   2.301   2.580   3.454 -3.0040 -2.4531  1.2522
   24MOL   H148 4794   2.180   2.692   3.513 -1.1118  0.3708 -0.8057
   24MOL   H149 4795   2.447   2.682   3.254 -1.1114  0.1325 -0.9833
   24MOL   H150 4796   2.501   2.895   3.157 -1.8445 -1.6927 -0.2538
   24MOL   H151 4797   2.515   2.975   3.320  0.0935  0.7723 -1.2633
   24MOL   C152 4798   2.676   2.833   3.274 -0.7017 -0.0192 -0.1909
   24MOL   C153 4799   2.775   2.934   3.216 -0.9691  0.0784  0.1483
   24MOL  Cl154 4800   2.850   3.024   3.349  0.3335 -0.2505  0.0033
   24MOL   C155 4801   2.800   2.948   3.089 -0.0758  0.2312 -0.3144
   24MOL   C156 4802   2.902   3.048   3.031 -0.4813  0.0086 -0.0603
   24MOL   H157 4803   2.696   2.812   3.379  1.2612 -0.5432 -0.6468
   24MOL   H158 4804   2.692   2.736   3.227 -0.0911 -0.1354  0.2351
   24MOL   H159 4805   2.754   2.887   3.013  1.3581 -2.0719  0.6223
   24MOL   H160 4806   2.922   3.122   3.109 -0.3387  0.8936 -0.9235
   24MOL   H161 4807   2.843   3.098   2.954  0.4211 -1.1821 -1.5476
   24MOL   C162 4808   3.027   2.983   2.975  0.3576  0.4720 -0.4008
   24MOL   C163 4809   3.158   3.062   2.981 -0.3450  0.0711  0.1877
   24MOL  Cl164 4810   3.180   3.175   2.851  0.4508  0.0677  0.0278
   24MOL   C165 4811   3.246   3.034   3.076  0.1487  0.7830 -0.9326
   24MOL   C166 4812   3.371   3.113   3.105 -0.0440 -0.1844 -0.3501
   24MOL   H167 4813   3.055   2.895   3.033  3.1762  1.6261  0.0583
   24MOL   H168 4814   3.004   2.938   2.878  0.5618 -0.4197 -0.0363
   24MOL   H169 4815   3.226   2.956   3.148  1.3658  1.1988 -0.1131
   24MOL   H170 4816   3.456   3.047   3.085  1.3315  1.7152 -0.9199
   24MOL   H171 4817   3.375   3.191   3.029 -1.3162  1.9416  1.7207
   24MOL   C172 4818   3.380   3.155   3.256  0.8234  0.1865  0.2108
   24MOL   C173 4819   3.484   3.264   3.288 -0.3989  0.1132 -0.4353
   24MOL  Cl174 4820   3.588   3.202   3.409  0.0227  0.0456 -0.3821
   24MOL   C175 4821   3.491   3.387   3.235  0.0572 -0.1352  0.8349
   24MOL   C176 4822   3.595   3.497   3.265 -0.0693  0.5687  0.2001
   24MOL   H177 4823   3.401   3.061   3.307  0.3973  0.8020  1.5599
   24MOL   H178 4824   3.283   3.183   3.297  0.2880  0.0781 -0.9751
   24MOL   H179 4825   3.417   3.413   3.161  2.1993  2.5990 -0.4503
   24MOL   H180 4826   3.675   3.456   3.327 -0.1499 -1.3699 -0.9580
   24MOL   H181 4827   3.555   3.583   3.319  1.8020  0.3450  1.9814
   24MOL   C182 4828   3.660   3.553   3.137  0.1637  0.2514  0.0225
   24MOL   C183 4829   3.765   3.661   3.153 -0.0188  0.6366  0.6332
   24MOL  Cl184 4830   3.728   3.798   3.050  0.1626  0.1938  0.2924
   24MOL   C185 4831   3.890   3.630   3.191 -0.7347 -0.5196  0.4867
   24MOL   C186 4832   4.007   3.725   3.165  0.4301 -0.2931 -0.2471
   24MOL   H187 4833   3.689   3.469   3.074  2.2180  0.8674  0.1229
   24MOL   H188 4834   3.579   3.599   3.079 -0.4978 -0.9068  0.0108
   24MOL   H189 4835   3.913   3.538   3.242  2.2362  0.0936  0.3600
   24MOL   H190 4836   3.981   3.794   3.084 -3.6589 -1.0353  0.3223
   24MOL   H191 4837   4.028   3.778   3.257 -0.2507 -1.5833  0.6588
   24MOL   C192 4838   4.134   3.646   3.124 -0.2817  0.3008  0.3610
   24MOL   C193 4839   4.252   3.725   3.064 -0.0347 -0.3623 -0.3495
   24MOL  Cl194 4840   4.291   3.862   3.157  0.2899  0.2273 -0.3446
   24MOL   C195 4841   4.332   3.693   2.964  0.2280  0.2400  0.4260
   24MOL   C196 4842   4.311   3.572   2.866  0.1661  0.6199 -0.0880
   24MOL   H197 4843   4.107   3.577   3.045 -0.2953  0.5766  0.1234
   24MOL   H198 4844   4.168   3.592   3.213 -2.0560  1.8265  2.0159
   24MOL   H199 4845   4.420   3.748   2.934  2.2384 -2.1903  1.6961
   24MOL   H200 4846   4.242   3.496   2.903  1.0534 -0.5071 -0.7011
   24MOL   H201 4847   4.405   3.519   2.847 -0.1183  0.4102 -0.9328
   24MOL   H202 4848   4.268   3.605   2.772  1.8997 -0.6265 -1.3583
   25MOL     C1 4849   2.143   0.984   3.007  0.3996  0.4142 -0.9252
   25MOL     C2 4850   1.994   1.011   3.040  0.5184  0.6238  0.5541
   25MOL    Cl3 4851   1.900   0.869   3.047  0.1491 -0.3011  0.5167
   25MOL     C4 4852   1.932   1.128   3.055  0.0067  0.3862  0.6057
   25MOL     C5 4853   1.992   1.270   3.051  0.2549  0.2292 -0.1260
   25MOL     H6 4854   2.182   0.937   3.097 -0.3068 -1.3238 -1.5088
   25MOL     H7 4855   2.198   1.074   2.978 -0.2302  1.1291  0.0555
   25MOL     H8 4856   1.827   1.124   3.080 -0.1481 -1.1707 -0.2293
   25MOL     H9 4857   2.099   1.275   3.067  0.4811 -0.9846 -1.1456
   25MOL    H10 4858   1.982   1.295   2.945 -0.4430 -0.1018 -0.1441
   25MOL    H11 4859   2.152   0.909   2.929  1.4200 -0.1528 -0.2709
   25MOL    C12 4860   1.920   1.365   3.152  0.0268  0.2447 -0.1340
   25MOL    C13 4861   1.980   1.501   3.148  0.1401  0.0455  0.2333
   25MOL   Cl14 4862   1.971   1.564   2.987  0.2930 -0.2432 -0.1878
   25MOL    C15 4863   2.021   1.576   3.256 -0.0494  0.0983  0.5344
   25MOL    C16 4864   2.024   1.549   3.411 -0.9331 -0.2151 -0.2803
   25MOL    H17 4865   1.815   1.375   3.127 -0.6997 -2.8162  1.4853
   25MOL    H18 4866   1.926   1.306   3.244 -0.6503 -0.8931 -0.8064
   25MOL    H19 4867   2.049   1.679   3.242 -2.2105  0.7837  1.0431
   25MOL    H20 4868   1.922   1.569   3.444 -0.8810  0.7959 -0.7142
   25MOL    H21 4869   2.047   1.443   3.417  0.0684 -0.0385 -0.8525
   25MOL    C22 4870   2.131   1.636   3.480  0.2190 -0.0180  0.1463
   25MOL    C23 4871   2.178   1.578   3.611 -0.9715 -0.0064  0.4936
   25MOL   Cl24 4872   2.082   1.633   3.743  0.2619  0.1944  0.4548
   25MOL    C25 4873   2.276   1.485   3.630  0.3418  0.4369  0.3601
   25MOL    C26 4874   2.322   1.435   3.762 -0.0137  0.3492 -0.2088
   25MOL    H27 4875   2.213   1.648   3.409  0.3097 -1.1144  0.0555
   25MOL    H28 4876   2.081   1.731   3.496 -1.5910 -1.3414  2.5890
   25MOL    H29 4877   2.330   1.453   3.542 -1.4312  0.9096 -0.9358
   25MOL    H30 4878   2.287   1.477   3.856 -1.6785 -2.8162  0.6679
   25MOL    H31 4879   2.299   1.329   3.762  2.1554 -0.1453 -0.8491
   25MOL    C32 4880   2.475   1.452   3.780  0.2910  0.4787 -0.3017
   25MOL    C33 4881   2.531   1.430   3.920  0.1813  0.0068 -0.0410
   25MOL   Cl34 4882   2.611   1.275   3.934  0.0644  0.0729 -0.6456
   25MOL    C35 4883   2.521   1.523   4.014  0.0802  0.3746 -0.5020
   25MOL    C36 4884   2.574   1.512   4.155 -0.4919  0.1452  0.5188
   25MOL    H37 4885   2.526   1.387   3.709  2.7334  0.5853  1.2723
   25MOL    H38 4886   2.512   1.551   3.755 -0.0513  0.8094  0.4895
   25MOL    H39 4887   2.470   1.613   3.986  3.2189  2.8023  1.3108
   25MOL    H40 4888   2.606   1.410   4.173  1.3726  0.4659 -0.7591
   25MOL    H41 4889   2.674   1.553   4.145  0.2766 -1.6936  0.5994
   25MOL    C42 4890   2.494   1.581   4.272  0.1854  0.4727  0.6365
   25MOL    C43 4891   2.483   1.730   4.254  0.1014  0.1529 -0.2827
   25MOL   Cl44 4892   2.639   1.807   4.260  0.2731 -0.4115 -0.0572
   25MOL    C45 4893   2.369   1.795   4.246  0.2316 -0.4728 -0.1312
   25MOL    C46 4894   2.224   1.745   4.237 -0.4010 -0.6952 -0.1677
   25MOL    H47 4895   2.398   1.529   4.259  2.2461 -2.9394 -1.8853
   25MOL    H48 4896   2.531   1.551   4.370  0.4066 -2.4939 -0.2983
   25MOL    H49 4897   2.372   1.903   4.249  0.2698 -0.4623 -0.5292
   25MOL    H50 4898   2.218   1.643   4.275  0.8418 -0.9612 -0.6611
   25MOL    H51 4899   2.159   1.805   4.300  1.4763 -0.6533  1.7733
   25MOL    C52 4900   2.176   1.737   4.099 -0.8560 -0.1017  0.6948
   25MOL    C53 4901   2.038   1.672   4.089  0.3436 -1.0062  0.2264
   25MOL   Cl54 4902   1.913   1.777   4.027  0.3129  0.1793  0.0656
   25MOL    C55 4903   2.021   1.548   4.121 -0.3306 -0.5511 -0.4429
   25MOL    C56 4904   1.885   1.482   4.126 -0.3417  0.3620  0.0078
   25MOL    H57 4905   2.183   1.828   4.040 -0.5547 -0.3001  0.4180
   25MOL    H58 4906   2.241   1.677   4.035  0.3344  2.4376 -0.5876
   25MOL    H59 4907   2.111   1.498   4.153 -1.5959 -1.7294  1.3719
   25MOL    H60 4908   1.880   1.422   4.217  0.1005 -0.0515 -0.2379
   25MOL    H61 4909   1.808   1.559   4.130 -2.2517 -1.5043  0.5434
   25MOL    C62 4910   1.880   1.386   4.003  0.3654 -0.0477 -0.0556
   25MOL    C63 4911   1.762   1.302   4.001 -0.3448  0.3103 -0.0565
   25MOL   Cl64 4912   1.790   1.137   4.011  0.3685  0.2395 -0.5083
   25MOL    C65 4913   1.633   1.353   3.999  0.2183 -0.9787  0.2401
   25MOL    C66 4914   1.504   1.274   3.993 -0.3489 -0.8073  0.0706
   25MOL    H67 4915   1.903   1.438   3.910  2.2097 -0.1182  0.3301
   25MOL    H68 4916   1.972   1.327   4.011  1.4678  1.5176 -0.8855
   25MOL    H69 4917   1.621   1.460   4.002  1.4157 -0.8143 -0.4677
   25MOL    H70 4918   1.462   1.287   4.093  0.2438  1.1267  0.0747
   25MOL    H71 4919   1.523   1.167   3.991 -2.2507 -1.2050  1.3877
   25MOL    C72 4920   1.409   1.313   3.873  0.2917  0.1727 -0.4561
   25MOL    C73 4921   1.282   1.226   3.878  0.7992 -0.4715  0.5471
   25MOL   Cl74 4922   1.265   1.147   3.726  0.5026 -0.0065  0.1927
   25MOL    C75 4923   1.203   1.211   3.984  0.6675  0.3662  0.2426
   25MOL    C76 4924   1.080   1.116   4.002  0.3548  0.3705 -0.3549
   25MOL    H77 4925   1.457   1.314   3.775  2.4748 -0.5334  0.5751
   25MOL    H78 4926   1.379   1.418   3.871  1.1179  0.4034 -1.3661
   25MOL    H79 4927   1.228   1.265   4.074 -1.1192 -0.3333  1.1723
   25MOL    H80 4928   1.104   1.036   4.072  0.1477  0.4243 -0.2227
   25MOL    H81 4929   1.063   1.067   3.906  0.1746 -1.4482  0.5708
   25MOL    C82 4930   0.949   1.202   4.041  0.0182  1.6169 -0.3018
   25MOL    C83 4931   0.950   1.254   4.183 -0.1852 -0.2286  0.2214
   25MOL   Cl84 4932   0.963   1.424   4.183 -0.0325  0.1769  0.2867
   25MOL    C85 4933   0.948   1.178   4.295  0.8256  0.3832 -0.4729
   25MOL    C86 4934   0.960   1.236   4.433 -0.1603  0.3461 -0.4430
   25MOL    H87 4935   0.854   1.150   4.028  1.8278 -1.7251 -1.0172
   25MOL    H88 4936   0.937   1.286   3.973  1.7523  2.6790  0.6755
   25MOL    H89 4937   0.941   1.071   4.288  1.4017  0.0212  3.2446
   25MOL    H90 4938   1.065   1.233   4.463 -0.7283 -2.1801  1.4958
   25MOL    H91 4939   0.912   1.333   4.440 -0.3935  0.3513 -2.0030
   25MOL    C92 4940   0.887   1.149   4.530  0.3304  0.1190  0.4486
   25MOL    C93 4941   0.890   1.201   4.672  0.4150 -0.1735 -0.5389
   25MOL   Cl94 4942   0.996   1.120   4.770 -0.2537  0.0541  0.1169
   25MOL    C95 4943   0.804   1.296   4.719 -0.4480 -0.8897 -0.2171
   25MOL    C96 4944   0.691   1.367   4.642 -0.2974 -0.3652 -0.1150
   25MOL    H97 4945   0.923   1.046   4.528 -1.9172 -0.7089  0.8073
   25MOL    H98 4946   0.782   1.156   4.499 -0.3339  1.9889  2.9690
   25MOL    H99 4947   0.814   1.327   4.823 -1.3593  2.4833 -1.0798
   25MOL   H100 4948   0.697   1.357   4.533 -1.0675  0.2609 -0.2190
   25MOL   H101 4949   0.600   1.321   4.682  0.1305 -0.5907  0.6107
   25MOL   C102 4950   0.709   1.519   4.672  0.3354 -0.0023 -0.7925
   25MOL   C103 4951   0.631   1.605   4.574 -0.3085 -0.7027 -0.0065
   25MOL  Cl104 4952   0.698   1.762   4.560  0.0052 -0.1788  0.1908
   25MOL   C105 4953   0.519   1.565   4.517  0.0654  0.1460  0.2701
   25MOL   C106 4954   0.429   1.636   4.420  0.2297  0.6297  0.3301
   25MOL   H107 4955   0.668   1.540   4.770 -1.3272 -0.2775 -1.4142
   25MOL   H108 4956   0.814   1.550   4.676  0.4603 -0.6690  1.4153
   25MOL   H109 4957   0.492   1.462   4.531  0.7698 -0.3215 -1.6770
   25MOL   H110 4958   0.325   1.622   4.448  0.7413  1.2521  2.5849
   25MOL   H111 4959   0.451   1.743   4.425 -1.1099  0.9724 -0.6104
   25MOL   C112 4960   0.455   1.601   4.273  0.0495  1.0303 -1.0634
   25MOL   C113 4961   0.404   1.462   4.248  0.4487  0.7384  0.4115
   25MOL  Cl114 4962   0.527   1.338   4.242  0.2827  0.0423  0.1488
   25MOL   C115 4963   0.276   1.421   4.234  0.4961 -0.1104  0.1563
   25MOL   C116 4964   0.148   1.517   4.245 -0.7868 -0.3678  0.2613
   25MOL   H117 4965   0.390   1.659   4.207 -0.7485  2.3847  0.8577
   25MOL   H118 4966   0.554   1.625   4.236 -0.0584  0.0731 -2.0007
   25MOL   H119 4967   0.251   1.317   4.221  0.8477  0.0082 -1.6743
   25MOL   H120 4968   0.103   1.518   4.146  1.7784 -1.1259 -0.9746
   25MOL   H121 4969   0.165   1.623   4.266  0.7642 -0.8717  1.6747
   25MOL   C122 4970   0.049   1.471   4.354 -0.0110  0.0390  0.4982
   25MOL   C123 4971   8.348   1.561   4.356  0.1749  0.1852  0.7646
   25MOL  Cl124 4972   8.227   1.498   4.254 -0.2699 -0.1845  0.1480
   25MOL   C125 4973   8.335   1.680   4.424 -0.3533  0.1183  0.1720
   25MOL   C126 4974   0.022   1.755   4.504  0.0759  0.1660  0.3297
   25MOL   H127 4975   0.010   1.373   4.326 -0.7306  0.6348 -0.6294
   25MOL   H128 4976   0.101   1.476   4.449  1.1808 -1.5874 -0.0512
   25MOL   H129 4977   8.244   1.737   4.410 -0.8092 -0.4782  0.7078
   25MOL   H130 4978   0.104   1.684   4.519 -1.3889 -1.3138  1.6037
   25MOL   H131 4979   0.057   1.837   4.443 -0.4484  0.6261  0.6430
   25MOL   C132 4980   8.402   1.802   4.636  1.0906  0.3389  0.0556
   25MOL   C133 4981   0.072   1.909   4.693  0.3719 -0.0372  0.2145
   25MOL  Cl134 4982   0.059   2.058   4.614 -0.1244 -0.2875 -0.1394
   25MOL   C135 4983   0.161   1.895   4.790  0.1760  0.3710  0.1127
   25MOL   C136 4984   0.195   1.766   4.876 -0.7469 -0.9283  0.0990
   25MOL   H137 4985   8.305   1.850   4.624  0.8063 -0.0959  0.6308
   25MOL   H138 4986   8.388   1.717   4.702  2.7246  1.3555  1.7748
   25MOL   H139 4987   0.218   1.986   4.802 -1.5119  1.4158  0.5087
   25MOL   H140 4988   0.239   1.803   4.968 -2.7526 -1.9426  1.5070
   25MOL   H141 4989   0.104   1.713   4.902 -1.3480  0.3361  0.6107
   25MOL   C142 4990   0.286   1.672   4.811  0.3544 -0.2643  0.3103
   25MOL   C143 4991   0.319   1.554   4.903  0.0285 -0.6240  0.5514
   25MOL  Cl144 4992   0.432   1.608   5.031  0.5950  0.2445  0.1520
   25MOL   C145 4993   0.270   1.428   4.877 -0.0971  0.5139 -0.2425
   25MOL   C146 4994   0.302   1.311   4.966  0.2305 -0.0938  0.1565
   25MOL   H147 4995   0.375   1.715   4.764  1.8623 -4.1247 -0.5520
   25MOL   H148 4996   0.227   1.633   4.728  1.9899  0.8021 -1.4022
   25MOL   H149 4997   0.198   1.425   4.796 -1.1729 -1.0993  0.7515
   25MOL   H150 4998   0.329   1.347   5.065 -0.7014  2.7483 -0.5684
   25MOL   H151 4999   0.211   1.250   4.971 -1.8045  2.7937 -0.1448
   25MOL   C152 5000   0.406   1.213   4.910  0.1178  0.7883 -0.1549
   25MOL   C153 5001   0.401   1.078   4.974  0.5086  0.8045  0.5249
   25MOL  Cl154 5002   0.384   0.956   4.856  0.0071  0.1563  0.3146
   25MOL   C155 5003   0.411   1.044   5.103 -0.6306 -0.6443 -0.1396
   25MOL   C156 5004   0.406   0.907   5.158 -0.0079  0.6220 -0.6146
   25MOL   H157 5005   0.402   1.200   4.802  1.2110  1.1656 -0.2473
   25MOL   H158 5006   0.509   1.246   4.922 -0.0739  1.2495  0.2502
   25MOL   H159 5007   0.433   1.122   5.173  0.0649 -1.0013  0.0428
   25MOL   H160 5008   0.505   0.862   5.155 -0.1524  0.3782 -1.7553
   25MOL   H161 5009   0.334   0.847   5.103 -2.1957 -0.8270  3.6009
   25MOL   C162 5010   0.359   0.900   5.302  0.1022  0.2747  0.9588
   25MOL   C163 5011   0.386   0.764   5.363  0.2421 -0.5124 -0.9227
   25MOL  Cl164 5012   0.515   0.771   5.484 -0.0522 -0.1003 -0.2451
   25MOL   C165 5013   0.313   0.651   5.337  0.8923  0.0703 -0.0325
   25MOL   C166 5014   0.310   0.518   5.411  0.2470  0.1612  0.0654
   25MOL   H167 5015   0.393   0.983   5.364 -0.0015 -0.9215  2.6590
   25MOL   H168 5016   0.251   0.916   5.298  0.1834  1.1315  1.9184
   25MOL   H169 5017   0.240   0.665   5.258 -0.3602  4.1601  1.7152
   25MOL   H170 5018   0.381   0.517   5.494 -0.2266  4.0757  0.5789
   25MOL   H171 5019   0.217   0.501   5.464  0.3900 -0.2561  0.1930
   25MOL   C172 5020   0.319   0.400   5.305  0.1172  0.0502  0.3941
   25MOL   C173 5021   0.363   0.265   5.363 -0.7364  0.0514  0.7385
   25MOL  Cl174 5022   0.326   0.241   5.528 -0.1807 -0.2390 -0.1553
   25MOL   C175 5023   0.444   0.174   5.294  0.0414  0.7153  0.4614
   25MOL   C176 5024   0.483   0.038   5.344  0.4268 -1.2470  0.4544
   25MOL   H177 5025   0.388   0.422   5.223 -0.1403  1.7153  0.6071
   25MOL   H178 5026   0.229   0.403   5.245  0.8052  0.1821 -0.6530
   25MOL   H179 5027   0.480   0.210   5.198  0.4814 -0.9868 -0.0204
   25MOL   H180 5028   0.444   0.025   5.445  0.8796  1.2454  1.0061
   25MOL   H181 5029   0.592   0.050   5.350  0.4911 -0.0763 -2.1223
   25MOL   C182 5030   0.431   8.341   5.253 -0.5819  0.1701  0.0752
   25MOL   C183 5031   0.507   8.216   5.258  0.3698  0.3460  0.3205
   25MOL  Cl184 5032   0.502   8.145   5.097  0.5925  0.4320  0.6224
   25MOL   C185 5033   0.565   8.161   5.364  0.1643 -0.1785  1.0150
   25MOL   C186 5034   0.652   8.038   5.367  1.1657  0.4475  0.0469
   25MOL   H187 5035   0.324   8.337   5.272 -0.4603  0.1036  0.7868
   25MOL   H188 5036   0.445   8.376   5.151  0.0764  1.4975  0.6051
   25MOL   H189 5037   0.556   8.207   5.462  0.7385  0.2033  0.8871
   25MOL   H190 5038   0.677   8.000   5.268 -0.5778 -1.0902  0.1814
   25MOL   H191 5039   0.743   8.079   5.412  0.1791  1.5742  1.0570
   25MOL   C192 5040   0.578   7.930   5.461 -0.3335  0.2941  0.2079
   25MOL   C193 5041   0.660   7.801   5.481  0.3632 -0.0397 -0.8682
   25MOL  Cl194 5042   0.683   7.767   5.649  0.1353 -0.7686  0.4745
   25MOL   C195 5043   0.713   7.711   5.389  0.3411 -0.4276 -0.1063
   25MOL   C196 5044   0.711   7.715   5.242  0.4172  0.1431 -0.4477
   25MOL   H197 5045   0.475   7.912   5.430  0.1412  1.1852 -1.9880
   25MOL   H198 5046   0.569   7.981   5.557  0.3365  2.4749 -0.8617
   25MOL   H199 5047   0.765   7.627   5.432  0.5807 -1.1506 -1.7856
   25MOL   H200 5048   0.688   7.619   5.196  0.4758  1.0232 -2.3591
   25MOL   H201 5049   0.806   7.752   5.202  0.6935 -1.9055 -1.7478
   25MOL   H202 5050   0.635   7.792   5.226  1.5993  1.1953 -1.1197
   26MOL     C1 5051   5.777   0.055   6.092  0.2522  0.0230  0.7093
   26MOL     C2 5052   5.730   0.185   6.147  0.0010  1.2672  0.6493
   26MOL    Cl3 5053   5.791   0.317   6.040 -0.2043  0.0499  0.2940
   26MOL     C4 5054   5.640   0.200   6.247 -0.1212 -1.0000 -0.6935
   26MOL     C5 5055   5.573   0.086   6.321  0.4840 -0.1374  0.5984
   26MOL     H6 5056   5.810   8.405   6.168 -2.0582 -3.9287 -1.7801
   26MOL     H7 5057   5.859   0.064   6.020  1.3955  0.5389  2.0529
   26MOL     H8 5058   5.612   0.300   6.274  1.8289 -0.8928  1.0429
   26MOL     H9 5059   5.468   0.082   6.293  0.5204  2.2377  0.0403
   26MOL    H10 5060   5.624   8.416   6.289 -0.8033 -0.1348 -1.5699
   26MOL    H11 5061   5.685   0.024   6.042  0.5619  0.8665 -0.4159
   26MOL    C12 5062   5.595   0.113   6.476  0.1033  0.0361  0.2586
   26MOL    C13 5063   5.606   8.411   6.563  0.9490  0.3464  0.7788
   26MOL   Cl14 5064   5.536   8.272   6.492 -0.1703  0.1069 -0.3704
   26MOL    C15 5065   5.642   8.411   6.694 -0.2434 -0.1118  0.1989
   26MOL    C16 5066   5.680   0.109   6.766 -0.3999  0.8290  0.2442
   26MOL    H17 5067   5.686   0.171   6.493 -0.1861  0.9103 -1.1186
   26MOL    H18 5068   5.504   0.167   6.503 -0.5181 -0.4538 -0.7990
   26MOL    H19 5069   5.646   8.317   6.747  1.1576 -0.6740 -0.8554
   26MOL    H20 5070   5.669   0.201   6.708 -1.2270  1.0321  0.7268
   26MOL    H21 5071   5.615   0.124   6.852  1.8411  2.8229  1.6580
   26MOL    C22 5072   5.824   0.095   6.828  0.2937  0.0630  0.1966
   26MOL    C23 5073   5.861   0.209   6.917  0.8546  0.6145 -0.8742
   26MOL   Cl24 5074   5.963   0.336   6.853  0.1335 -0.2161  0.1322
   26MOL    C25 5075   5.814   0.223   7.041 -0.2258  0.1210  0.1170
   26MOL    C26 5076   5.846   0.331   7.142  0.1128 -0.2861 -0.2059
   26MOL    H27 5077   5.819   0.002   6.884  2.1940 -0.0079  0.2755
   26MOL    H28 5078   5.907   0.086   6.758 -1.3154  0.0716 -1.7805
   26MOL    H29 5079   5.736   0.155   7.073 -0.2277 -0.1216 -0.3836
   26MOL    H30 5080   5.938   0.381   7.110 -1.2257  3.2058  1.1351
   26MOL    H31 5081   5.763   0.401   7.132 -1.0234 -1.7479 -1.1579
   26MOL    C32 5082   5.852   0.269   7.280  0.1649  1.1599  0.7218
   26MOL    C33 5083   5.832   0.368   7.393 -0.3500 -0.5371 -0.1547
   26MOL   Cl34 5084   5.740   0.297   7.517  0.0681 -0.1723 -0.0566
   26MOL    C35 5085   5.882   0.490   7.394  0.5971 -0.5319 -0.4187
   26MOL    C36 5086   5.864   0.593   7.517 -0.2445 -1.0099 -0.5060
   26MOL    H37 5087   5.776   0.192   7.292  1.8363 -0.8201 -0.9352
   26MOL    H38 5088   5.946   0.218   7.304 -1.2060 -0.8722  1.9088
   26MOL    H39 5089   5.928   0.531   7.306 -2.7508 -0.4178 -2.2121
   26MOL    H40 5090   5.778   0.655   7.491 -0.4093 -0.1552  1.9605
   26MOL    H41 5091   5.826   0.533   7.600 -1.0125  0.1676  0.0089
   26MOL    C42 5092   5.995   0.673   7.556  0.9058  0.0958  0.0102
   26MOL    C43 5093   5.978   0.820   7.519  0.3949  0.0283  0.0662
   26MOL   Cl44 5094   6.022   0.838   7.357 -0.2942  0.4095 -0.2965
   26MOL    C45 5095   5.945   0.921   7.597 -0.2075  0.1459  0.5074
   26MOL    C46 5096   5.891   0.919   7.740 -0.0089  0.1722  0.6061
   26MOL    H47 5097   6.013   0.657   7.662 -0.9572  1.4603  0.5714
   26MOL    H48 5098   6.089   0.636   7.515 -0.1582 -3.4839  0.5802
   26MOL    H49 5099   5.944   1.017   7.548 -2.2920  0.2554  0.7467
   26MOL    H50 5100   5.783   0.931   7.743 -0.2786 -1.5138 -1.2892
   26MOL    H51 5101   5.916   0.827   7.792 -0.5564 -0.4337 -0.1909
   26MOL    C52 5102   5.950   1.041   7.807 -0.6120  0.4359  0.4219
   26MOL    C53 5103   5.917   1.054   7.954  0.5812  0.5513 -0.1015
   26MOL   Cl54 5104   6.037   1.141   8.034 -0.0473  0.1635  0.4130
   26MOL    C55 5105   5.807   1.004   8.016 -0.0242  0.6053  0.4340
   26MOL    C56 5106   5.774   1.018   8.161  0.5425 -0.3568 -0.6755
   26MOL    H57 5107   6.059   1.046   7.796 -0.6037 -0.1170  0.2475
   26MOL    H58 5108   5.919   1.134   7.759  1.5871  0.5806 -0.7788
   26MOL    H59 5109   5.738   0.949   7.954  1.0700  0.3988 -0.6228
   26MOL    H60 5110   5.732   0.924   8.196  0.2769  0.0567  0.1310
   26MOL    H61 5111   5.864   1.036   8.221  0.7943  1.6753 -1.6105
   26MOL    C62 5112   5.671   1.128   8.194 -0.6188 -0.4449 -0.4256
   26MOL    C63 5113   5.646   1.140   8.340  0.1549  1.0430 -0.3899
   26MOL   Cl64 5114   5.559   1.008   8.404 -0.0187 -0.0367 -0.0725
   26MOL    C65 5115   5.685   1.241   8.418 -0.4278  0.1114 -0.5194
   26MOL    C66 5116   5.660   1.259   0.145 -0.4997 -0.1700 -0.2103
   26MOL    H67 5117   5.706   1.226   8.163 -0.2231 -0.2543  0.5844
   26MOL    H68 5118   5.576   1.110   8.145  0.6179  0.7170 -3.3487
   26MOL    H69 5119   5.737   1.326   8.376  0.4051  0.2708  0.8099
   26MOL    H70 5120   5.597   1.174   0.173  1.2105 -1.6057 -0.6284
   26MOL    H71 5121   5.609   1.352   0.172  0.8137 -0.0167  1.8772
   26MOL    C72 5122   5.786   1.234   0.228 -0.5968 -0.0599  0.1634
   26MOL    C73 5123   5.760   1.195   0.372  0.1998 -1.1990  0.1666
   26MOL   Cl74 5124   5.644   1.064   0.395  0.0131  0.0686  0.8325
   26MOL    C75 5125   5.806   1.264   0.484 -0.5798  0.6910  0.8394
   26MOL    C76 5126   5.767   1.237   0.628  0.2360  0.3717 -0.6149
   26MOL    H77 5127   5.855   1.317   0.240  0.9034 -1.0935 -1.0311
   26MOL    H78 5128   5.851   1.154   0.192  0.4935  0.3282  1.2480
   26MOL    H79 5129   5.870   1.349   0.465  0.8246 -0.5327  0.0426
   26MOL    H80 5130   5.856   1.213   0.686 -0.2964 -2.4840 -0.8902
   26MOL    H81 5131   5.700   1.151   0.636 -1.6907  1.7735 -1.2670
   26MOL    C82 5132   5.695   1.350   0.708  0.1860  0.1160 -0.2328
   26MOL    C83 5133   5.580   1.407   0.622 -0.1488  0.4464 -0.2499
   26MOL   Cl84 5134   5.610   1.563   0.549 -0.3181  0.0630 -0.5620
   26MOL    C85 5135   5.467   1.345   0.608 -0.0119 -0.0155  0.7226
   26MOL    C86 5136   5.345   1.404   0.537 -0.2068  0.6976  0.3578
   26MOL    H87 5137   5.773   1.426   0.708  1.3499 -1.0057  2.5598
   26MOL    H88 5138   5.666   1.335   0.812  1.7634 -1.0735  0.0579
   26MOL    H89 5139   5.460   1.250   0.659 -1.1023 -1.1770 -1.5355
   26MOL    H90 5140   5.249   1.353   0.547  0.0510 -0.2601 -1.7188
   26MOL    H91 5141   5.342   1.512   0.552  0.6802  0.8021 -0.2137
   26MOL    C92 5142   5.355   1.386   0.384  0.0519 -0.1743 -0.2549
   26MOL    C93 5143   5.237   1.458   0.321  0.4544  0.2532 -0.3736
   26MOL   Cl94 5144   5.106   1.350   0.293  0.5603  0.2091 -0.1005
   26MOL    C95 5145   5.235   1.587   0.282  0.1060  0.3753  0.3584
   26MOL    C96 5146   5.345   1.683   0.289 -0.6662  0.0226  0.4116
   26MOL    H97 5147   5.338   1.278   0.376  1.5969 -0.5182  0.7543
   26MOL    H98 5148   5.452   1.409   0.342 -0.3810 -1.6878 -2.1359
   26MOL    H99 5149   5.146   1.620   0.230  0.2754 -0.7675 -0.6850
   26MOL   H100 5150   5.314   1.751   0.369 -1.2230 -1.7195  1.7089
   26MOL   H101 5151   5.433   1.629   0.325 -0.2062 -0.7022 -1.7432
   26MOL   C102 5152   5.381   1.759   0.164  0.3398  0.4347  0.5157
   26MOL   C103 5153   5.440   1.670   0.057  0.0786 -0.0196 -0.0751
   26MOL  Cl104 5154   5.608   1.646   0.080 -0.2890 -0.6417  0.0227
   26MOL   C105 5155   5.377   1.606   8.378 -0.2401  0.4632 -0.1249
   26MOL   C106 5156   5.427   1.499   8.282  0.7048 -0.8517  0.0138
   26MOL   H107 5157   5.298   1.804   0.109  0.5013 -1.4085 -1.3032
   26MOL   H108 5158   5.450   1.843   0.177  0.8425  0.3268 -1.2922
   26MOL   H109 5159   5.273   1.626   8.357 -0.3372 -0.1715 -0.2798
   26MOL   H110 5160   5.399   1.531   8.182 -0.2946  0.1116  0.5916
   26MOL   H111 5161   5.534   1.477   8.284  0.5025 -2.0124 -1.1700
   26MOL   C112 5162   5.378   1.359   8.314 -0.0080 -0.2049 -0.2516
   26MOL   C113 5163   5.236   1.338   8.273  0.2903 -0.2702 -0.2296
   26MOL  Cl114 5164   5.126   1.383   8.397 -0.4503 -0.4091 -0.3603
   26MOL   C115 5165   5.200   1.303   8.151 -0.6370 -1.0416  0.2748
   26MOL   C116 5166   5.290   1.272   8.034  0.9155  0.6066 -0.5822
   26MOL   H117 5167   5.440   1.284   8.264  1.8917  2.1480 -1.5508
   26MOL   H118 5168   5.387   1.342   0.000 -2.3482 -2.1377 -0.3125
   26MOL   H119 5169   5.094   1.285   8.134 -0.5015 -0.5162 -1.1740
   26MOL   H120 5170   5.376   1.213   8.066 -1.5853 -2.4660  0.7397
   26MOL   H121 5171   5.329   1.366   7.996  1.6159  0.6902  0.3137
   26MOL   C122 5172   5.210   1.194   7.931  0.1690 -0.3865  0.3960
   26MOL   C123 5173   5.308   1.193   7.821 -0.2512 -0.4436 -0.5316
   26MOL  Cl124 5174   5.407   1.049   7.812  0.1682  0.0390  0.1345
   26MOL   C125 5175   5.315   1.280   7.712 -0.6699  0.7078  0.0761
   26MOL   C126 5176   5.227   1.398   7.684  0.1094  0.0562  0.0775
   26MOL   H127 5177   5.198   1.097   7.979  2.0267 -2.1748 -2.5714
   26MOL   H128 5178   5.116   1.242   7.904  0.9226  1.6095  1.2518
   26MOL   H129 5179   5.385   1.253   7.634  1.3987 -3.1034  3.0996
   26MOL   H130 5180   5.168   1.382   7.594 -0.5031  0.2623  0.4439
   26MOL   H131 5181   5.144   1.414   7.753  1.5563 -1.0440  2.1443
   26MOL   C132 5182   5.319   1.522   7.672 -0.6785 -0.4271  0.3302
   26MOL   C133 5183   5.245   1.649   7.641  0.6781 -0.3711  0.2349
   26MOL  Cl134 5184   5.181   1.651   7.486 -0.1353  0.3524  0.3186
   26MOL   C135 5185   5.203   1.744   7.725 -0.2040  0.2729  0.0214
   26MOL   C136 5186   5.263   1.767   7.864  0.3957 -0.6594 -0.1423
   26MOL   H137 5187   5.373   1.542   7.765  1.7785  0.7142 -1.3141
   26MOL   H138 5188   5.402   1.505   7.604 -0.9893  0.2769 -0.2299
   26MOL   H139 5189   5.137   1.817   7.681  1.0149  1.4888  0.1630
   26MOL   H140 5190   5.302   1.677   7.911  2.4023  1.6820  2.8588
   26MOL   H141 5191   5.353   1.820   7.832  0.8487 -1.8015 -0.7733
   26MOL   C142 5192   5.176   1.856   7.959  0.5682  0.8024 -0.0652
   26MOL   C143 5193   5.243   1.919   8.081  0.1996  0.1371 -0.2463
   26MOL  Cl144 5194   5.170   1.854   8.228  0.2881  0.3329  0.2682
   26MOL   C145 5195   5.342   2.010   8.083 -0.2927 -0.9265 -0.4028
   26MOL   C146 5196   5.403   2.082   8.201 -0.2972  0.0201  0.0749
   26MOL   H147 5197   5.087   1.803   7.992  0.9085  0.0660 -0.3126
   26MOL   H148 5198   5.133   1.932   7.894 -2.1137 -0.3933  0.2475
   26MOL   H149 5199   5.387   2.043   7.990  0.1560 -1.6912 -0.4655
   26MOL   H150 5200   5.400   2.190   8.187 -0.7064 -0.1428 -1.1882
   26MOL   H151 5201   5.360   2.048   8.295 -1.6712  0.4299 -0.3935
   26MOL   C152 5202   5.550   2.038   8.210 -0.6531 -0.3264 -0.7141
   26MOL   C153 5203   5.609   2.106   8.332  0.2921 -0.2316 -0.2247
   26MOL  Cl154 5204   5.592   2.280   8.324  0.1476  0.1856  0.1699
   26MOL   C155 5205   5.678   2.038   0.005 -0.0037  0.1727  0.1178
   26MOL   C156 5206   5.735   2.112   0.131 -0.5195 -0.7449 -0.4421
   26MOL   H157 5207   5.559   1.930   8.224 -1.1704 -0.6798 -3.0063
   26MOL   H158 5208   5.599   2.069   8.118 -0.7380  0.0293 -0.6408
   26MOL   H159 5209   5.700   1.933   8.415 -0.1151  0.4541 -3.1005
   26MOL   H160 5210   5.725   2.220   0.134  0.9141 -0.4345 -3.9861
   26MOL   H161 5211   5.842   2.092   0.128 -0.4774 -0.9376  1.9397
   26MOL   C162 5212   5.679   2.051   0.262  0.1205  0.5192  0.0420
   26MOL   C163 5213   5.752   2.107   0.385 -0.0390 -0.1523 -0.6341
   26MOL  Cl164 5214   5.688   2.266   0.423 -0.0102  0.3996  0.4101
   26MOL   C165 5215   5.863   2.053   0.433 -0.2490 -0.4718  0.0383
   26MOL   C166 5216   5.952   2.116   0.539 -1.0129  0.3742 -0.0691
   26MOL   H167 5217   5.573   2.080   0.264  0.2671  1.0339  0.5319
   26MOL   H168 5218   5.685   1.942   0.256 -1.7109  0.3860  0.2313
   26MOL   H169 5219   5.898   1.961   0.388 -0.2279 -1.5313  2.1609
   26MOL   H170 5220   6.037   2.162   0.489 -1.9069  2.6525  0.4574
   26MOL   H171 5221   5.896   2.187   0.600  0.9746  0.5654  1.6045
   26MOL   C172 5222   6.012   2.014   0.641 -0.0695  1.0824  0.3789
   26MOL   C173 5223   5.911   1.919   0.699  0.1507 -0.2740  0.2437
   26MOL  Cl174 5224   5.899   1.765   0.623  0.1249  0.0458 -0.2509
   26MOL   C175 5225   5.831   1.952   0.805  0.5318 -0.1755  1.0612
   26MOL   C176 5226   5.719   1.873   0.870 -1.0334 -0.3218  0.4603
   26MOL   H177 5227   6.073   2.063   0.716  0.5435  1.3711 -0.3045
   26MOL   H178 5228   6.085   1.961   0.580 -1.9658 -0.7698 -0.3471
   26MOL   H179 5229   5.836   2.051   0.847 -2.1948  1.2521 -1.8081
   26MOL   H180 5230   5.743   1.868   0.976 -1.6344  0.6812  0.6420
   26MOL   H181 5231   5.712   1.769   0.837 -1.3772 -1.2453  3.3391
   26MOL   C182 5232   5.582   1.940   0.849  0.7179 -0.0869 -0.4689
   26MOL   C183 5233   5.571   2.085   0.889  0.0492  0.2644  0.4870
   26MOL  Cl184 5234   5.571   2.102   1.065 -0.2434  0.2046  0.5447
   26MOL   C185 5235   5.565   2.191   0.809  0.2618 -0.0890 -0.2604
   26MOL   C186 5236   5.545   2.332   0.855 -0.5027 -0.0991  0.6242
   26MOL   H187 5237   5.551   1.928   0.745 -0.5251 -3.0990  0.1811
   26MOL   H188 5238   5.511   1.888   0.913  0.7418  0.4234 -0.0238
   26MOL   H189 5239   5.577   2.185   0.702  2.7957  0.2548 -0.0434
   26MOL   H190 5240   5.461   2.366   0.794 -0.3273  0.2302  0.5660
   26MOL   H191 5241   5.514   2.340   0.959  2.9677  0.2257  1.6869
   26MOL   C192 5242   5.674   2.421   0.826 -0.8721  1.0687  0.0673
   26MOL   C193 5243   5.778   2.396   0.932 -0.4254 -0.7278  0.0930
   26MOL  Cl194 5244   5.916   2.322   0.863  0.1983  0.3388  0.1071
   26MOL   C195 5245   5.777   2.434   1.061 -0.1177  0.4143 -0.1236
   26MOL   C196 5246   5.664   2.503   1.133 -0.7144  0.5177 -0.7400
   26MOL   H197 5247   5.656   2.527   0.844  0.5308  1.0090  1.9857
   26MOL   H198 5248   5.704   2.401   0.723  0.4677  0.5411  0.5516
   26MOL   H199 5249   5.864   2.416   1.122 -1.4349  0.7531  1.8879
   26MOL   H200 5250   5.577   2.530   1.073 -0.2900 -0.4861 -1.8311
   26MOL   H201 5251   5.695   2.582   1.202  0.1824  0.7422 -1.3782
   26MOL   H202 5252   5.617   2.429   1.197  1.9508 -2.0291 -1.6111
   27MOL     C1 5253   5.184   2.708   7.175 -0.5967  0.2949  0.2373
   27MOL     C2 5254   5.211   2.593   7.273 -0.1355 -0.3015  0.1025
   27MOL    Cl3 5255   5.279   2.454   7.192 -0.0802  0.6048 -0.3140
   27MOL     C4 5256   5.191   2.610   7.404 -0.0427 -0.0219 -0.3919
   27MOL     C5 5257   5.134   2.734   7.475  0.7121 -0.2074  0.2337
   27MOL     H6 5258   5.249   2.681   7.092  0.7066  1.6404  0.8050
   27MOL     H7 5259   5.220   2.806   7.207  0.2672  0.2125 -0.4766
   27MOL     H8 5260   5.212   2.529   7.471 -0.2941  1.4196  1.4631
   27MOL     H9 5261   5.080   2.795   7.402 -2.2441 -0.6924  1.9181
   27MOL    H10 5262   5.058   2.695   7.543  0.4257 -0.1844 -0.0727
   27MOL    H11 5263   5.088   2.718   7.124 -0.4828 -1.0462 -0.2464
   27MOL    C12 5264   5.234   2.828   7.551  0.6130 -0.2777  0.1059
   27MOL    C13 5265   5.168   2.943   7.624  0.0912 -0.3070 -0.6536
   27MOL   Cl14 5266   5.128   2.907   7.787  0.0283 -0.0875 -0.0167
   27MOL    C15 5267   5.133   3.058   7.580  0.0622 -0.4068 -0.3745
   27MOL    C16 5268   5.137   3.100   7.430  0.0321  0.5896  0.2087
   27MOL    H17 5269   5.287   2.772   7.629  0.8788  0.4692  0.4721
   27MOL    H18 5270   5.318   2.874   7.499  0.5881  0.2710  0.5412
   27MOL    H19 5271   5.083   3.129   7.644 -1.2386 -0.5395 -1.2129
   27MOL    H20 5272   5.172   3.020   7.365 -3.4225  0.3618 -1.5202
   27MOL    H21 5273   5.043   3.133   7.385 -0.0335 -0.3306 -0.3404
   27MOL    C22 5274   5.245   3.208   7.417 -0.1558  0.0297 -0.6674
   27MOL    C23 5275   5.254   3.280   7.292 -0.4243  0.1416 -0.0755
   27MOL   Cl24 5276   5.385   3.391   7.293  0.1966  0.1880  0.4442
   27MOL    C25 5277   5.178   3.266   7.184  0.2600  0.0066 -0.3951
   27MOL    C26 5278   5.197   3.323   7.046  0.6914  0.8684 -0.0576
   27MOL    H27 5279   5.231   3.277   7.500  2.4850  1.6662 -1.5011
   27MOL    H28 5280   5.349   3.175   7.427 -0.3590  0.0318  1.6881
   27MOL    H29 5281   5.093   3.199   7.185 -0.8950  1.4342 -0.2171
   27MOL    H30 5282   5.104   3.373   7.019  0.2679  0.1762  0.0904
   27MOL    H31 5283   5.276   3.397   7.036  0.9383  0.6804  0.5116
   27MOL    C32 5284   5.208   3.208   6.939  0.7343 -0.0468 -0.1991
   27MOL    C33 5285   5.302   3.095   6.976 -0.0073 -1.0929  0.2648
   27MOL   Cl34 5286   5.242   2.949   6.906 -0.3071 -0.1555 -0.2200
   27MOL    C35 5287   5.414   3.101   7.044 -0.1010  0.4571  0.2250
   27MOL    C36 5288   5.501   2.981   7.081  0.3226 -0.6950  0.0047
   27MOL    H37 5289   5.113   3.161   6.918  1.2212 -1.2844  0.3357
   27MOL    H38 5290   5.239   3.243   6.840  1.2963  2.1504  0.7093
   27MOL    H39 5291   5.442   3.198   7.083 -0.9862  0.2026  1.5069
   27MOL    H40 5292   5.462   2.884   7.052 -1.3046  0.2011 -0.8471
   27MOL    H41 5293   5.596   2.988   7.028  2.1120  0.2721  3.2400
   27MOL    C42 5294   5.520   2.980   7.236 -0.4222 -0.4317 -0.4232
   27MOL    C43 5295   5.608   2.864   7.264 -0.6551  0.6452  0.2585
   27MOL   Cl44 5296   5.522   2.724   7.306  0.1321 -0.0740 -0.1393
   27MOL    C45 5297   5.744   2.871   7.255 -0.4117 -0.2937 -0.2178
   27MOL    C46 5298   5.831   2.988   7.233  0.0047 -0.3526  0.2607
   27MOL    H47 5299   5.575   3.068   7.270  2.0538 -2.3285  0.6447
   27MOL    H48 5300   5.431   2.956   7.295 -0.1159  0.5463  0.4583
   27MOL    H49 5301   5.800   2.781   7.274 -1.1748 -0.5091  1.1033
   27MOL    H50 5302   5.881   2.987   7.136  2.1520  0.0397  1.3366
   27MOL    H51 5303   5.769   3.078   7.230  0.2191 -0.1587  1.5591
   27MOL    C52 5304   5.940   3.008   7.342 -0.9648 -0.2525 -0.0659
   27MOL    C53 5305   6.079   2.948   7.322  0.2388 -1.0593 -0.1792
   27MOL   Cl54 5306   6.082   2.775   7.291  0.2915 -0.3129  0.1340
   27MOL    C55 5307   6.191   3.018   7.332  0.1211 -0.0324  0.3145
   27MOL    C56 5308   6.339   2.978   7.312  0.1115  0.3110 -0.2222
   27MOL    H57 5309   5.941   3.116   7.362 -2.7437 -0.3680  0.7017
   27MOL    H58 5310   5.905   2.964   7.436  0.0629 -0.9937 -0.0263
   27MOL    H59 5311   6.185   3.122   7.361  0.9447 -0.5831  2.5996
   27MOL    H60 5312   6.368   2.990   7.417  2.3194 -2.1253 -0.5135
   27MOL    H61 5313   6.352   2.871   7.299  1.1654 -0.1373  3.7221
   27MOL    C62 5314   6.415   3.071   7.209 -0.2998 -0.2557  0.2445
   27MOL    C63 5315   6.337   3.071   7.076  0.0202  0.6422  0.3605
   27MOL   Cl64 5316   6.382   3.211   6.986  0.1924 -0.6631  0.4177
   27MOL    C65 5317   6.261   2.975   7.022  0.2790  0.8656 -0.3319
   27MOL    C66 5318   6.206   2.969   6.880 -0.7740  0.1307 -0.1873
   27MOL    H67 5319   6.396   3.172   7.244  0.8776 -0.6352  2.0283
   27MOL    H68 5320   6.523   3.064   7.203 -0.2354  0.4539  0.4894
   27MOL    H69 5321   6.238   2.887   7.081 -0.3938  2.0233  1.1822
   27MOL    H70 5322   6.202   3.073   6.848 -2.5389 -0.0089 -0.4808
   27MOL    H71 5323   6.108   2.922   6.872 -0.2574 -1.0501  0.3242
   27MOL    C72 5324   6.310   2.893   6.788  0.2425  0.4450 -0.9438
   27MOL    C73 5325   6.285   2.905   6.640  0.5027  0.3795 -0.0632
   27MOL   Cl74 5326   6.284   3.071   6.591  0.2977 -0.4753 -0.1310
   27MOL    C75 5327   6.244   2.805   6.560  0.0793  0.4695  0.0598
   27MOL    C76 5328   6.190   2.809   6.413  0.4312 -0.1300 -0.2778
   27MOL    H77 5329   6.320   2.788   6.818 -0.7157  0.2107 -1.4236
   27MOL    H78 5330   6.410   2.934   6.799  0.2074  0.6317 -1.3045
   27MOL    H79 5331   6.243   2.707   6.605  0.7756  0.0322 -0.8512
   27MOL    H80 5332   6.223   2.714   6.371  2.6096 -0.3671  1.8745
   27MOL    H81 5333   6.245   2.889   6.363  3.3134 -2.3385 -0.7276
   27MOL    C82 5334   6.035   2.828   6.415  0.2554  0.0863  0.1128
   27MOL    C83 5335   5.970   2.803   6.284  0.2727 -0.1339  0.1423
   27MOL   Cl84 5336   5.841   2.680   6.303 -0.2947 -0.0675 -0.0970
   27MOL    C85 5337   6.009   2.840   6.161  0.5985 -0.1430  0.5321
   27MOL    C86 5338   5.935   2.814   6.031  0.5270  0.6434  0.1798
   27MOL    H87 5339   6.013   2.928   6.453  0.0316 -0.3730  1.1845
   27MOL    H88 5340   5.987   2.763   6.488 -2.8973  0.4885 -1.5399
   27MOL    H89 5341   6.095   2.905   6.145  0.6769 -0.9868 -2.6914
   27MOL    H90 5342   5.835   2.793   6.071 -0.0301 -0.4607 -1.7458
   27MOL    H91 5343   5.913   2.897   5.965 -2.3526  0.2901  0.6062
   27MOL    C92 5344   5.987   2.696   5.954 -0.0254  0.5330  0.4046
   27MOL    C93 5345   5.919   2.666   5.820 -0.5685  0.3802  0.1246
   27MOL   Cl94 5346   5.768   2.583   5.831 -0.2770  0.1823  0.0455
   27MOL    C95 5347   5.954   2.707   5.699  0.2910  0.2712  1.0270
   27MOL    C96 5348   6.082   2.783   5.653  0.0459  0.5689  0.5402
   27MOL    H97 5349   5.981   2.604   6.011  2.3378  0.6733  0.9008
   27MOL    H98 5350   6.093   2.704   5.929  0.1083  0.1571  0.8531
   27MOL    H99 5351   5.899   2.679   5.610  2.0148 -0.2907  0.1178
   27MOL   H100 5352   6.129   2.840   5.733  1.9210  1.7387 -1.3649
   27MOL   H101 5353   6.154   2.704   5.632 -1.4673 -1.5237  2.9056
   27MOL   C102 5354   6.062   2.889   5.543  0.5391 -0.1701 -0.7009
   27MOL   C103 5355   5.971   3.003   5.575 -0.7568 -0.2947  0.5532
   27MOL  Cl104 5356   5.859   3.040   5.442 -0.3892 -0.1348 -0.1357
   27MOL   C105 5357   5.979   3.067   5.692  0.5744  0.5771 -0.4351
   27MOL   C106 5358   5.889   3.179   5.735  0.3223  0.3452 -0.4419
   27MOL   H107 5359   6.159   2.939   5.535  0.9380 -0.8604 -0.2474
   27MOL   H108 5360   6.032   2.847   5.447 -1.7927 -1.3848  0.5052
   27MOL   H109 5361   6.059   3.045   5.760  0.2670  1.2246  0.1345
   27MOL   H110 5362   5.817   3.196   5.654 -0.7224 -1.3639  0.1026
   27MOL   H111 5363   5.825   3.138   5.814 -1.1457  1.7323 -0.8722
   27MOL   C112 5364   5.974   3.304   5.780 -0.6485  0.2261 -1.2408
   27MOL   C113 5365   5.891   3.418   5.843  0.5427 -0.4830 -0.2394
   27MOL  Cl114 5366   5.726   3.389   5.887 -0.1052  0.0507  0.1146
   27MOL   C115 5367   5.947   3.539   5.861  0.3831 -0.0135  0.3645
   27MOL   C116 5368   6.096   3.584   5.837  0.7361 -0.8076  0.0350
   27MOL   H117 5369   6.035   3.258   5.858 -0.2253  1.9180 -0.5581
   27MOL   H118 5370   6.028   3.352   5.699 -0.6274  3.8006  0.7885
   27MOL   H119 5371   5.900   3.619   5.916  0.2083 -0.1654  0.4388
   27MOL   H120 5372   6.141   3.511   5.771  1.0515  0.8334 -1.5972
   27MOL   H121 5373   6.157   3.587   5.927 -0.5566 -0.2583  0.9193
   27MOL   C122 5374   6.095   3.718   5.756  0.0800 -0.7087 -0.1344
   27MOL   C123 5375   6.221   3.806   5.767 -0.6386  0.4591 -0.4340
   27MOL  Cl124 5376   6.307   3.817   5.619  0.1022  0.2408  0.2844
   27MOL   C125 5377   6.251   3.888   5.870  0.1020 -0.3573  0.8734
   27MOL   C126 5378   6.174   3.900   6.004 -0.3972 -0.1256  0.5854
   27MOL   H127 5379   6.066   3.697   5.653 -2.6293  0.8658  0.2305
   27MOL   H128 5380   6.014   3.780   5.796  2.2741  1.8764  0.3997
   27MOL   H129 5381   6.338   3.952   5.866  0.0147 -0.2533  0.6205
   27MOL   H130 5382   6.145   4.005   6.014 -0.2113 -0.0708  0.5542
   27MOL   H131 5383   6.075   3.855   5.999 -0.1519 -0.9015  2.2418
   27MOL   C132 5384   6.255   3.861   6.129 -0.9043 -0.0541  0.5097
   27MOL   C133 5385   6.185   3.906   6.255  0.8440  0.2082 -0.1536
   27MOL  Cl134 5386   6.053   3.806   6.294 -0.3936  0.0992  0.0562
   27MOL   C135 5387   6.216   4.003   6.342  0.2987 -0.8927  0.3249
   27MOL   C136 5388   6.331   4.099   6.336 -0.4369 -0.9106 -0.6979
   27MOL   H137 5389   6.274   3.754   6.134  0.9512  0.2719  0.5195
   27MOL   H138 5390   6.356   3.900   6.120 -0.4464 -1.1188  1.0369
   27MOL   H139 5391   6.141   4.012   6.419  0.9363 -2.9834  1.2361
   27MOL   H140 5392   6.383   4.095   6.240  0.4637 -2.8799 -0.1649
   27MOL   H141 5393   6.284   4.194   6.360  1.0934 -0.1001 -0.8648
   27MOL   C142 5394   6.449   4.067   6.440  0.2721  0.1548 -0.4589
   27MOL   C143 5395   6.578   4.142   6.415  0.6266 -0.4212 -0.0792
   27MOL  Cl144 5396   6.589   4.280   6.510  0.1235  0.1073  0.0141
   27MOL   C145 5397   6.670   4.096   6.331 -0.7447  0.1540  0.3986
   27MOL   C146 5398   6.795   4.177   6.284 -0.2024 -0.7925 -0.0220
   27MOL   H147 5399   6.477   3.962   6.445 -1.5002 -0.3082  0.0986
   27MOL   H148 5400   6.412   4.102   6.536 -0.3395  0.0805 -0.6623
   27MOL   H149 5401   6.657   4.003   6.278  0.6039 -0.1878  0.6747
   27MOL   H150 5402   6.781   4.284   6.301  0.3163 -0.1797 -3.1921
   27MOL   H151 5403   6.881   4.146   6.343 -1.2504 -0.4519  1.7476
   27MOL   C152 5404   6.807   4.156   6.135  0.3318 -0.2301  0.3233
   27MOL   C153 5405   6.888   4.265   6.072 -0.4381 -0.0546  0.0931
   27MOL  Cl154 5406   7.057   4.204   6.057 -0.1241 -0.3222  0.0869
   27MOL   C155 5407   6.848   4.390   6.041  0.0719 -0.1776  0.6285
   27MOL   C156 5408   6.926   4.504   5.986  0.2807 -0.1913  0.1002
   27MOL   H157 5409   6.847   4.056   6.117 -0.6500 -0.4604 -0.6577
   27MOL   H158 5410   6.709   4.150   6.088 -1.1402 -0.5855  3.3142
   27MOL   H159 5411   6.743   4.409   6.056  0.0276 -0.2575  0.4179
   27MOL   H160 5412   6.866   4.545   5.904  3.1592  0.1833 -1.8917
   27MOL   H161 5413   7.012   4.454   5.941  1.7066  0.8449  1.6558
   27MOL   C162 5414   6.977   4.606   6.094  0.5366  0.2371 -0.2273
   27MOL   C163 5415   7.064   4.711   6.033 -0.8664  0.4974 -0.1312
   27MOL  Cl164 5416   7.236   4.663   6.012 -0.0752 -0.4834 -0.2062
   27MOL   C165 5417   7.021   4.832   5.999  0.4810  0.5312  0.1627
   27MOL   C166 5418   7.088   4.950   5.924  0.2890  0.2715  0.0397
   27MOL   H167 5419   6.891   4.646   6.149  0.6390 -0.2583  0.2923
   27MOL   H168 5420   7.032   4.550   6.170  0.7707 -0.6704 -1.0601
   27MOL   H169 5421   6.917   4.848   6.021  0.1674 -0.2697 -0.7095
   27MOL   H170 5422   7.076   5.035   5.991  0.5872  0.3320  0.0189
   27MOL   H171 5423   7.196   4.934   5.919  0.7373  1.9438  3.1124
   27MOL   C172 5424   7.032   4.968   5.781  0.6205  0.0511 -0.1433
   27MOL   C173 5425   7.112   5.047   5.683 -0.2073 -0.0990  0.4672
   27MOL  Cl174 5426   7.132   4.964   5.537 -0.3631  0.3096 -0.0287
   27MOL   C175 5427   7.167   5.165   5.704  0.4777 -0.9207  0.7413
   27MOL   C176 5428   7.248   5.258   5.619 -0.3047 -0.1534 -0.4336
   27MOL   H177 5429   6.933   5.013   5.783  0.7981  0.4510 -0.3892
   27MOL   H178 5430   7.039   4.870   5.734  1.4530 -2.3790  4.6984
   27MOL   H179 5431   7.151   5.209   5.802 -3.8866 -1.1820  0.2620
   27MOL   H180 5432   7.173   5.337   5.611  0.8256  1.0659  0.8494
   27MOL   H181 5433   7.265   5.216   5.519 -0.2204 -2.7516  0.6331
   27MOL   C182 5434   7.374   5.303   5.683 -0.9151 -0.1037  0.5233
   27MOL   C183 5435   7.483   5.369   5.597 -0.3223  0.2454 -0.2362
   27MOL  Cl184 5436   7.521   5.254   5.469  0.2467 -0.0720 -0.4406
   27MOL   C185 5437   7.546   5.483   5.632  0.2980 -0.7514 -0.1526
   27MOL   C186 5438   7.672   5.521   5.553  0.1814 -0.0989  0.1652
   27MOL   H187 5439   7.343   5.371   5.763 -0.4371 -1.5321  1.9590
   27MOL   H188 5440   7.425   5.217   5.727 -3.6085  0.0265  4.1219
   27MOL   H189 5441   7.506   5.537   5.716  0.2575 -2.2620  0.8226
   27MOL   H190 5442   7.763   5.516   5.614  0.8122 -0.7605 -0.8264
   27MOL   H191 5443   7.692   5.456   5.469  0.9161 -0.3684  0.5415
   27MOL   C192 5444   7.651   5.661   5.495  0.4840 -0.1012  0.4381
   27MOL   C193 5445   7.760   5.691   5.395 -0.0137  0.3421 -0.6586
   27MOL  Cl194 5446   7.914   5.720   5.469 -0.0509 -0.1073  0.2675
   27MOL   C195 5447   7.754   5.696   5.257  0.1718  0.3224 -0.3602
   27MOL   C196 5448   7.625   5.669   5.179  0.2656 -0.3114 -0.1183
   27MOL   H197 5449   7.649   5.737   5.574  0.1689 -0.3167  0.6350
   27MOL   H198 5450   7.557   5.652   5.441  1.0440  0.6847 -0.6882
   27MOL   H199 5451   7.840   5.717   5.195  1.0053  0.2733  0.7677
   27MOL   H200 5452   7.591   5.756   5.123 -0.0031  1.5217  2.7745
   27MOL   H201 5453   7.533   5.650   5.235  0.1858  1.6904  0.4401
   27MOL   H202 5454   7.632   5.589   5.105  1.1901 -1.6160  1.3457
   28MOL     C1 5455   2.171   6.432   5.486  0.3521  0.4857  0.1008
   28MOL     C2 5456   2.251   6.401   5.612  0.0878  0.6874  0.1192
   28MOL    Cl3 5457   2.259   6.232   5.651  0.2890 -0.1716 -0.1269
   28MOL     C4 5458   2.306   6.488   5.701 -0.5600 -0.4926 -0.4521
   28MOL     C5 5459   2.300   6.642   5.692 -0.5237  0.0311  0.3749
   28MOL     H6 5460   2.121   6.342   5.449 -0.6543  1.4558 -0.9156
   28MOL     H7 5461   2.233   6.453   5.399  1.5169  1.2641  1.1088
   28MOL     H8 5462   2.359   6.444   5.785  1.5074 -0.8359 -1.9076
   28MOL     H9 5463   2.230   6.678   5.616 -1.0770  0.0796  0.9038
   28MOL    H10 5464   2.268   6.669   5.793 -0.5355  1.3980  0.0235
   28MOL    H11 5465   2.092   6.506   5.496  1.2390  1.5264 -0.5110
   28MOL    C12 5466   2.439   6.706   5.665  0.1127 -0.0398 -0.3722
   28MOL    C13 5467   2.541   6.659   5.763  0.4628 -0.4731  0.0622
   28MOL   Cl14 5468   2.513   6.743   5.918  0.2229  0.0145  0.5962
   28MOL    C15 5469   2.635   6.566   5.760  0.2850  0.7970  0.2055
   28MOL    C16 5470   2.667   6.481   5.645 -0.2776 -0.0284  0.2420
   28MOL    H17 5471   2.484   6.675   5.570 -1.2261 -0.8688 -0.7682
   28MOL    H18 5472   2.429   6.814   5.656 -0.1313 -0.0180  0.1659
   28MOL    H19 5473   2.701   6.546   5.843  0.0623 -4.1669 -0.7019
   28MOL    H20 5474   2.579   6.481   5.581  0.3539  0.9024 -0.6382
   28MOL    H21 5475   2.755   6.516   5.591 -0.8241  0.6163 -0.2285
   28MOL    C22 5476   2.683   6.341   5.697 -0.5731  0.6272 -0.3666
   28MOL    C23 5477   2.829   6.298   5.693 -0.0082 -0.2183 -0.1831
   28MOL   Cl24 5478   2.907   6.340   5.844 -0.0303  0.1296 -0.2138
   28MOL    C25 5479   2.888   6.239   5.588  0.3367 -0.1574 -0.8625
   28MOL    C26 5480   3.032   6.198   5.587  0.9022 -0.8246  0.0591
   28MOL    H27 5481   2.641   6.326   5.797 -0.5050  1.5050 -0.2017
   28MOL    H28 5482   2.614   6.287   5.632 -2.5208  1.5482  0.8824
   28MOL    H29 5483   2.831   6.206   5.501 -2.2323  0.8884  0.3633
   28MOL    H30 5484   3.074   6.227   5.490  0.2945  1.6991  0.5233
   28MOL    H31 5485   3.091   6.251   5.661 -0.8538 -0.4668  1.2313
   28MOL    C32 5486   3.049   6.050   5.611  0.0271  0.1803 -0.5334
   28MOL    C33 5487   3.188   6.004   5.589 -0.1367 -0.7007 -0.0120
   28MOL   Cl34 5488   3.282   5.989   5.735  0.4233  0.2000 -0.1999
   28MOL    C35 5489   3.237   5.987   5.468 -1.0097  0.2117 -0.5352
   28MOL    C36 5490   3.380   5.941   5.429 -0.0396  0.2802 -0.3909
   28MOL    H37 5491   3.019   6.023   5.712  0.7252  1.2750 -0.0251
   28MOL    H38 5492   2.969   6.000   5.556 -0.7675 -1.9975  2.4561
   28MOL    H39 5493   3.185   6.016   5.378 -0.3458  0.9704 -0.6736
   28MOL    H40 5494   3.444   5.938   5.517 -0.4848 -2.3250 -0.1107
   28MOL    H41 5495   3.366   5.847   5.375  1.3172  0.2520 -0.7275
   28MOL    C42 5496   3.451   6.029   5.329 -0.5155 -0.1496 -0.4956
   28MOL    C43 5497   3.541   6.123   5.393 -0.9708 -0.4447 -0.5132
   28MOL   Cl44 5498   3.685   6.051   5.436 -0.0552  0.2082 -0.1365
   28MOL    C45 5499   3.521   6.258   5.416 -0.6535 -0.2019 -0.1956
   28MOL    C46 5500   3.385   6.326   5.383  0.3947  0.8384 -1.0961
   28MOL    H47 5501   3.501   5.956   5.265  0.2459 -0.3943  0.3863
   28MOL    H48 5502   3.379   6.071   5.258 -0.9752  0.4533  0.3277
   28MOL    H49 5503   3.590   6.325   5.464 -1.0552  0.4923 -0.5789
   28MOL    H50 5504   3.307   6.250   5.383 -1.0621  2.2508  1.6187
   28MOL    H51 5505   3.366   6.386   5.472  2.0636 -1.5982  1.0007
   28MOL    C52 5506   3.389   6.421   5.258 -0.5152 -0.2910 -0.3980
   28MOL    C53 5507   3.275   6.409   5.164 -0.0241  0.4047 -0.3788
   28MOL   Cl54 5508   3.330   6.394   5.003  0.0278 -0.0253  0.1822
   28MOL    C55 5509   3.148   6.425   5.194  0.8037  0.3418 -0.2996
   28MOL    C56 5510   3.030   6.426   5.102  0.5494  0.5660 -0.7327
   28MOL    H57 5511   3.407   6.527   5.273 -0.4922 -0.6499  2.4723
   28MOL    H58 5512   3.474   6.389   5.198  0.1276 -1.1978  0.9551
   28MOL    H59 5513   3.118   6.438   5.297 -1.6173 -0.3994 -0.8811
   28MOL    H60 5514   2.999   6.530   5.109 -0.5830  0.1189  1.0984
   28MOL    H61 5515   3.064   6.414   4.999  0.3351  0.2269 -0.7639
   28MOL    C62 5516   2.918   6.329   5.143 -0.2450 -0.0675  0.5366
   28MOL    C63 5517   2.793   6.353   5.069 -0.2236  0.1666 -0.7035
   28MOL   Cl64 5518   2.714   6.496   5.138  0.1190 -0.1062 -0.1710
   28MOL    C65 5519   2.742   6.268   4.978  0.5169  0.0270 -0.0247
   28MOL    C66 5520   2.612   6.286   4.913 -0.5043 -0.4100  0.8035
   28MOL    H67 5521   2.956   6.231   5.117 -3.0071 -1.5221  1.7903
   28MOL    H68 5522   2.894   6.331   5.250  0.9481  0.3916  0.8096
   28MOL    H69 5523   2.808   6.186   4.957  3.1509  1.9076  0.6255
   28MOL    H70 5524   2.566   6.383   4.934  0.9929  0.8789 -1.6237
   28MOL    H71 5525   2.543   6.213   4.955  0.3574 -1.8476 -0.2651
   28MOL    C72 5526   2.616   6.270   4.764  0.2251  0.3881  0.1198
   28MOL    C73 5527   2.478   6.287   4.697 -0.4659  0.3099  0.0010
   28MOL   Cl74 5528   2.451   6.448   4.634  0.2714  0.0454  0.0147
   28MOL    C75 5529   2.394   6.187   4.678  0.1068 -0.0628 -0.1866
   28MOL    C76 5530   2.270   6.185   4.597 -0.0547 -0.0185  0.1027
   28MOL    H77 5531   2.650   6.167   4.755  2.2890  1.1382 -1.0385
   28MOL    H78 5532   2.691   6.330   4.711 -1.7783  3.3517  0.4994
   28MOL    H79 5533   2.417   6.095   4.730 -0.9932 -1.3109 -1.8349
   28MOL    H80 5534   2.269   6.262   4.520 -0.5581 -0.3183 -0.1968
   28MOL    H81 5535   2.190   6.188   4.671  0.4118 -2.4617  0.7482
   28MOL    C82 5536   2.259   6.050   4.514  0.2050  0.1530 -0.5914
   28MOL    C83 5537   2.160   6.059   4.396  0.1724  0.2617 -0.0845
   28MOL   Cl84 5538   1.996   6.084   4.450 -0.0812 -0.2880 -0.3671
   28MOL    C85 5539   2.189   6.040   4.263  0.1541 -0.4498  0.2578
   28MOL    C86 5540   2.093   6.038   4.136 -0.5823 -0.0678 -0.5927
   28MOL    H87 5541   2.224   5.966   4.574 -0.6029  0.4295 -0.6584
   28MOL    H88 5542   2.353   6.019   4.469  0.3192 -2.5668  1.4449
   28MOL    H89 5543   2.293   6.021   4.240  0.7899  1.0159  1.7296
   28MOL    H90 5544   2.106   5.949   4.075 -3.0842 -0.4924 -0.5360
   28MOL    H91 5545   1.990   6.025   4.170 -0.0406  0.8740  1.5219
   28MOL    C92 5546   2.107   6.166   4.050 -0.1438 -0.2149 -0.1859
   28MOL    C93 5547   2.022   6.165   3.922  0.5466 -0.2403  0.5931
   28MOL   Cl94 5548   1.871   6.244   3.932  0.3959  0.0028  0.3219
   28MOL    C95 5549   2.054   6.111   3.804  0.0944 -0.9683  0.0139
   28MOL    C96 5550   2.179   6.028   3.779 -0.4379 -0.6757  0.1086
   28MOL    H97 5551   2.213   6.166   4.023 -0.3369 -0.9120 -0.9815
   28MOL    H98 5552   2.076   6.250   4.111 -2.2902 -0.4854 -0.8677
   28MOL    H99 5553   1.996   6.130   3.715 -0.3049  2.2273  0.8913
   28MOL   H100 5554   2.208   5.983   3.874 -1.1002  1.8663  1.5775
   28MOL   H101 5555   2.159   5.949   3.706  2.3084 -1.2770 -0.0358
   28MOL   C102 5556   2.298   6.112   3.730 -0.6247 -0.7345 -0.0593
   28MOL   C103 5557   2.431   6.041   3.736 -0.4642  0.1551  0.7587
   28MOL  Cl104 5558   2.484   5.993   3.891 -0.1912  0.0219 -0.1866
   28MOL   C105 5559   2.506   6.020   3.624 -0.6023  0.2285  0.6793
   28MOL   C106 5560   2.637   5.938   3.617  0.0897  0.2427  0.2692
   28MOL   H107 5561   2.281   6.140   3.626 -0.0410 -1.7021 -0.4157
   28MOL   H108 5562   2.300   6.200   3.795 -1.2905  0.3676 -1.4894
   28MOL   H109 5563   2.471   6.056   3.529  0.2807 -0.1588  0.2103
   28MOL   H110 5564   2.718   6.007   3.592  0.8320 -1.2306 -1.5004
   28MOL   H111 5565   2.665   5.894   3.712  0.8615 -0.3609 -0.2282
   28MOL   C112 5566   2.628   5.822   3.523  0.5153 -0.1499 -0.2400
   28MOL   C113 5567   2.751   5.728   3.528 -0.5436 -0.8228  0.1093
   28MOL  Cl114 5568   2.722   5.594   3.642  0.3394  0.0809 -0.2565
   28MOL   C115 5569   2.867   5.743   3.466 -0.0563 -0.1961  0.1152
   28MOL   C116 5570   2.905   5.850   3.364  0.5223  0.3483  0.0382
   28MOL   H117 5571   2.538   5.770   3.557  2.5343 -1.6169  3.1158
   28MOL   H118 5572   2.608   5.845   3.419 -3.2562 -0.4366  0.3266
   28MOL   H119 5573   2.945   5.671   3.486  0.9535  0.8280 -0.0398
   28MOL   H120 5574   3.010   5.878   3.368  0.4591  0.6087 -0.0366
   28MOL   H121 5575   2.850   5.943   3.380  3.3905  1.7642  2.0882
   28MOL   C122 5576   2.884   5.795   3.216  0.2850 -0.0313  0.0299
   28MOL   C123 5577   2.850   5.902   3.112  0.5190 -0.1502  0.2935
   28MOL  Cl124 5578   2.690   5.893   3.048 -0.0353  0.1959  0.1361
   28MOL   C125 5579   2.932   5.998   3.076  0.0996 -0.6894  0.0119
   28MOL   C126 5580   3.075   6.012   3.104  0.0239 -0.1873  0.2799
   28MOL   H127 5581   2.969   5.735   3.181 -1.0234 -1.3138 -1.0247
   28MOL   H128 5582   2.800   5.725   3.214  1.7048 -1.7933  0.2955
   28MOL   H129 5583   2.888   6.064   3.004 -0.3991 -1.2980 -0.2463
   28MOL   H130 5584   3.112   5.928   3.163 -0.1128 -0.5802 -0.1925
   28MOL   H131 5585   3.124   5.997   3.008  0.8908 -0.5772  0.7801
   28MOL   C132 5586   3.108   6.149   3.161 -0.5557 -0.0569 -0.6337
   28MOL   C133 5587   3.248   6.150   3.208  0.0450  0.5423  0.4703
   28MOL  Cl134 5588   3.358   6.187   3.072 -0.2265  0.1986  0.1769
   28MOL   C135 5589   3.301   6.127   3.333 -0.1387  0.4106 -0.1475
   28MOL   C136 5590   3.217   6.086   3.447 -0.8397 -0.4543  0.0326
   28MOL   H137 5591   3.095   6.221   3.080 -0.2891  1.0550  0.2938
   28MOL   H138 5592   3.038   6.172   3.241  2.2188 -1.1557  2.2574
   28MOL   H139 5593   3.408   6.135   3.342  0.5049 -3.3785 -3.3214
   28MOL   H140 5594   3.117   6.130   3.445 -1.1960 -1.1512  1.5914
   28MOL   H141 5595   3.192   5.982   3.425 -1.4005 -0.8092  2.1777
   28MOL   C142 5596   3.281   6.119   3.582 -0.0895  1.1619  0.3731
   28MOL   C143 5597   3.236   6.029   3.699  0.5597 -0.6627 -0.0371
   28MOL  Cl144 5598   3.365   5.998   3.810 -0.1383  0.2583  0.0990
   28MOL   C145 5599   3.110   5.974   3.712 -0.4382  0.2701 -0.5824
   28MOL   C146 5600   3.072   5.879   3.828 -0.1583  0.4115 -0.4738
   28MOL   H147 5601   3.273   6.224   3.611  1.2466  2.2047 -2.7546
   28MOL   H148 5602   3.389   6.103   3.578 -0.1809 -0.2091  2.7918
   28MOL   H149 5603   3.033   5.993   3.639  1.3378  2.6211 -1.9147
   28MOL   H150 5604   3.123   5.784   3.817  0.8567  1.0146 -1.1316
   28MOL   H151 5605   3.103   5.926   3.921  0.1504 -1.7141  0.5126
   28MOL   C152 5606   2.920   5.855   3.831  0.2025 -0.6768 -0.9351
   28MOL   C153 5607   2.875   5.797   3.967  0.0363  0.8021 -0.2032
   28MOL  Cl154 5608   2.927   5.630   3.987 -0.2103 -0.1667  0.1497
   28MOL   C155 5609   2.813   5.872   4.065  0.0028 -0.3427 -0.0966
   28MOL   C156 5610   2.769   5.816   4.201  0.3376  0.1844  0.4032
   28MOL   H157 5611   2.872   5.952   3.820  1.0546 -0.0656  0.4887
   28MOL   H158 5612   2.897   5.782   3.754 -0.6593 -2.2908  0.8214
   28MOL   H159 5613   2.792   5.975   4.040  0.2489 -0.3232 -0.2290
   28MOL   H160 5614   2.805   5.716   4.227  0.1895 -0.1401 -0.6023
   28MOL   H161 5615   2.661   5.814   4.214  0.3604 -1.2722  0.5364
   28MOL   C162 5616   2.822   5.914   4.314 -0.2603  0.4135  0.1746
   28MOL   C163 5617   2.771   5.870   4.452 -0.0475 -0.0282 -0.0390
   28MOL  Cl164 5618   2.653   5.974   4.527 -0.4627  0.0075  0.0651
   28MOL   C165 5619   2.803   5.760   4.516  0.7964  0.4445 -0.1257
   28MOL   C166 5620   2.768   5.711   4.656  0.1257  0.0158 -0.1831
   28MOL   H167 5621   2.930   5.919   4.318 -0.2648  0.9087 -0.2732
   28MOL   H168 5622   2.782   6.014   4.294 -1.9248 -0.3400 -0.4038
   28MOL   H169 5623   2.871   5.694   4.465  0.0088 -1.7295  1.5924
   28MOL   H170 5624   2.869   5.690   4.693  0.3254 -2.2790 -1.9407
   28MOL   H171 5625   2.722   5.788   4.718 -0.5402 -1.0772  0.6983
   28MOL   C172 5626   2.686   5.576   4.655 -0.3378 -0.5191  0.3495
   28MOL   C173 5627   2.540   5.585   4.594  0.0034  0.5910 -0.6577
   28MOL  Cl174 5628   2.439   5.704   4.680  0.3432 -0.0442  0.4389
   28MOL   C175 5629   2.502   5.520   4.483  0.6224  0.0196 -0.6895
   28MOL   C176 5630   2.367   5.527   4.413  0.1797  0.5497  0.2853
   28MOL   H177 5631   2.692   5.529   4.753 -1.5962 -0.2166  0.5749
   28MOL   H178 5632   2.737   5.512   4.584 -0.2661  0.4449 -0.4775
   28MOL   H179 5633   2.572   5.454   4.434  0.7751 -1.7974  1.8984
   28MOL   H180 5634   2.302   5.568   4.490 -0.4221  2.0440 -0.9787
   28MOL   H181 5635   2.330   5.432   4.375  2.7612 -0.9027  1.3287
   28MOL   C182 5636   2.386   5.628   4.292  0.2519 -1.0719  0.3022
   28MOL   C183 5637   2.256   5.635   4.209 -0.6282 -0.6869 -0.1289
   28MOL  Cl184 5638   2.278   5.736   4.076 -0.2726 -0.1779  0.0219
   28MOL   C185 5639   2.138   5.582   4.246 -0.3571  0.3322  0.1366
   28MOL   C186 5640   2.013   5.590   4.166 -0.9378 -0.3677  0.3794
   28MOL   H187 5641   2.413   5.726   4.331  1.5186 -1.2780 -0.0497
   28MOL   H188 5642   2.466   5.588   4.230 -0.2999 -2.4432  0.4447
   28MOL   H189 5643   2.126   5.519   4.333 -0.1201  0.3647  0.1935
   28MOL   H190 5644   2.026   5.649   4.075 -0.1571 -0.8582  0.1671
   28MOL   H191 5645   1.992   5.491   4.125  1.3177 -1.2953  1.3863
   28MOL   C192 5646   1.896   5.650   4.240 -0.1455  0.1095  0.2749
   28MOL   C193 5647   1.759   5.604   4.190  0.0110 -0.4246 -0.2566
   28MOL  Cl194 5648   1.709   5.699   4.054  0.2848  0.2854  0.2349
   28MOL   C195 5649   1.684   5.505   4.242 -0.2889 -0.5884  0.3443
   28MOL   C196 5650   1.715   5.413   4.355  0.7882 -0.3306  0.5504
   28MOL   H197 5651   1.900   5.758   4.228 -0.5169 -0.0893 -1.9019
   28MOL   H198 5652   1.905   5.636   4.347 -0.5209  0.9500  0.4207
   28MOL   H199 5653   1.591   5.483   4.192  0.4953  0.7963 -1.7921
   28MOL   H200 5654   1.711   5.309   4.323 -1.2989  0.5045 -2.0612
   28MOL   H201 5655   1.633   5.426   4.425  1.6675  1.7621  1.2381
   28MOL   H202 5656   1.807   5.434   4.411  1.0186  0.7820 -0.2407
   29MOL     C1 5657   6.547   3.411   4.226 -0.2947 -0.5508  0.2973
   29MOL     C2 5658   6.429   3.478   4.152 -0.3437 -0.7653  0.3919
   29MOL    Cl3 5659   6.309   3.516   4.266  0.2479 -0.2302  0.3240
   29MOL     C4 5660   6.409   3.496   4.021  0.1435  0.5217  0.3906
   29MOL     C5 5661   6.502   3.449   3.904 -0.0679  0.7609  0.0463
   29MOL     H6 5662   6.634   3.476   4.226  0.4635 -1.5155 -1.0914
   29MOL     H7 5663   6.559   3.311   4.183 -2.5125 -1.1321  0.9340
   29MOL     H8 5664   6.326   3.551   3.978  2.7563  1.9906 -3.0348
   29MOL     H9 5665   6.567   3.366   3.933 -2.3783 -0.1821  2.8497
   29MOL    H10 5666   6.429   3.409   3.834 -0.0634 -3.1455  2.0998
   29MOL    H11 5667   6.519   3.419   4.331 -2.4682  1.0884 -0.3797
   29MOL    C12 5668   6.590   3.557   3.841  0.1085  0.4460  0.0341
   29MOL    C13 5669   6.689   3.499   3.737 -0.8415 -0.4621 -0.7131
   29MOL   Cl14 5670   6.823   3.420   3.806  0.1402 -0.1537 -0.1056
   29MOL    C15 5671   6.677   3.516   3.600 -0.0449  0.1325  0.1443
   29MOL    C16 5672   6.572   3.580   3.517  0.0017  0.4312 -0.0775
   29MOL    H17 5673   6.541   3.643   3.796 -0.1912 -0.7389 -1.9744
   29MOL    H18 5674   6.645   3.607   3.921  1.8601 -1.4714  0.0780
   29MOL    H19 5675   6.753   3.479   3.533 -0.9338  0.7043 -1.2238
   29MOL    H20 5676   6.489   3.599   3.585  0.3752 -1.3248  0.8886
   29MOL    H21 5677   6.609   3.673   3.473  1.3912 -1.0226 -2.0195
   29MOL    C22 5678   6.522   3.486   3.405  0.0764  0.2812  0.0513
   29MOL    C23 5679   6.418   3.543   3.316 -0.6053 -0.5791 -0.5418
   29MOL   Cl24 5680   6.290   3.431   3.280 -0.3740  0.1861 -0.0012
   29MOL    C25 5681   6.411   3.669   3.268 -0.0563  0.1479  0.1753
   29MOL    C26 5682   6.301   3.732   3.179 -0.3197 -0.7064  0.3092
   29MOL    H27 5683   6.610   3.460   3.346  0.3763  0.2610  0.4994
   29MOL    H28 5684   6.501   3.388   3.448  3.1469 -1.1292 -1.4411
   29MOL    H29 5685   6.489   3.736   3.300  1.6491 -1.3034 -0.8227
   29MOL    H30 5686   6.212   3.668   3.174 -0.0494 -0.8663 -3.6951
   29MOL    H31 5687   6.277   3.830   3.220  1.9494 -1.4071  3.5791
   29MOL    C32 5688   6.359   3.762   3.041 -0.1869 -0.3458 -0.5266
   29MOL    C33 5689   6.274   3.842   2.965 -0.2306 -0.2685  0.3418
   29MOL   Cl34 5690   6.329   4.006   2.987 -0.2725 -0.1920 -0.1538
   29MOL    C35 5691   6.181   3.801   2.884  0.8909 -0.4054 -0.7101
   29MOL    C36 5692   6.108   3.890   2.792  0.0271 -0.7854  0.0003
   29MOL    H37 5693   6.461   3.799   3.052 -0.1454 -0.6827  0.2753
   29MOL    H38 5694   6.375   3.664   2.996  1.1656 -1.6486  2.5957
   29MOL    H39 5695   6.151   3.698   2.880  0.6395 -0.3258 -0.8805
   29MOL    H40 5696   6.039   3.937   2.862  0.8589 -0.1147  0.3749
   29MOL    H41 5697   6.170   3.968   2.748 -0.8229  0.5290  1.0660
   29MOL    C42 5698   6.024   3.817   2.688 -0.3897  0.3414 -0.1139
   29MOL    C43 5699   6.096   3.761   2.563  0.4032 -0.3913 -0.1295
   29MOL   Cl44 5700   6.099   3.591   2.563 -0.0193  0.2065 -0.5019
   29MOL    C45 5701   6.169   3.831   2.474 -0.0667 -0.3012 -0.5640
   29MOL    C46 5702   6.181   3.985   2.460 -0.4870  0.5664 -0.5234
   29MOL    H47 5703   5.959   3.744   2.737 -1.6117  0.5077 -1.4812
   29MOL    H48 5704   5.951   3.885   2.644  1.4170  1.1920 -1.8920
   29MOL    H49 5705   6.223   3.781   2.395 -0.0137 -0.3541 -0.4949
   29MOL    H50 5706   6.124   4.034   2.539  1.3339  1.3371  0.3465
   29MOL    H51 5707   6.287   4.010   2.469 -0.6398  1.7699 -1.9416
   29MOL    C52 5708   6.149   4.045   2.326 -0.1869 -0.0771  0.3369
   29MOL    C53 5709   6.138   4.191   2.339  0.6494  0.3422  0.1548
   29MOL   Cl54 5710   6.275   4.285   2.283  0.3608 -0.2598  0.0851
   29MOL    C55 5711   6.022   4.251   2.379 -0.3849 -0.6452  0.0334
   29MOL    C56 5712   6.011   4.397   2.404 -0.0592  0.6863  0.0819
   29MOL    H57 5713   6.230   4.034   2.254 -1.4968 -3.9557 -0.6813
   29MOL    H58 5714   6.058   4.001   2.285 -0.7119  1.6672 -0.3880
   29MOL    H59 5715   5.937   4.192   2.409 -0.4843 -1.0694 -1.0461
   29MOL    H60 5716   6.082   4.471   2.366  0.6076 -0.4479 -0.9333
   29MOL    H61 5717   5.914   4.421   2.360 -0.0447 -1.5731 -1.2678
   29MOL    C62 5718   6.004   4.418   2.559 -0.4831 -0.0973  0.1659
   29MOL    C63 5719   6.126   4.355   2.636  0.3138  0.1904 -0.8859
   29MOL   Cl64 5720   6.079   4.259   2.770  0.2020 -0.1168 -0.2291
   29MOL    C65 5721   6.252   4.382   2.604 -0.2812 -0.0960 -0.1829
   29MOL    C66 5722   6.376   4.320   2.675  0.4642  0.1018  0.1032
   29MOL    H67 5723   6.000   4.525   2.580 -0.2041 -0.2296  0.9069
   29MOL    H68 5724   5.913   4.387   2.611 -0.5243  0.4820  0.4438
   29MOL    H69 5725   6.265   4.443   2.516 -2.2345  0.8249  0.1510
   29MOL    H70 5726   6.400   4.223   2.632  1.6482 -0.8882  2.8768
   29MOL    H71 5727   6.354   4.299   2.780  0.8480  2.2307  0.6301
   29MOL    C72 5728   6.490   4.419   2.666  0.2751 -1.1318  0.2414
   29MOL    C73 5729   6.629   4.380   2.714 -0.2024  0.6160 -0.2791
   29MOL   Cl74 5730   6.634   4.255   2.832  0.0426  0.1972  0.2778
   29MOL    C75 5731   6.744   4.429   2.661  0.0279  0.2121 -0.0760
   29MOL    C76 5732   6.879   4.385   2.701 -0.4075 -0.1979 -0.0550
   29MOL    H77 5733   6.466   4.519   2.702 -1.1610 -0.7207 -1.7767
   29MOL    H78 5734   6.513   4.421   2.560 -1.6010 -1.0451 -0.1715
   29MOL    H79 5735   6.745   4.506   2.585  4.6572  1.8296  1.4744
   29MOL    H80 5736   6.918   4.321   2.622 -0.6613  2.0508 -2.0279
   29MOL    H81 5737   6.869   4.329   2.794 -1.4008 -1.5695 -0.9558
   29MOL    C82 5738   6.976   4.485   2.731  0.2277 -0.3670  0.1740
   29MOL    C83 5739   7.110   4.421   2.751 -0.5416  0.3458 -0.1463
   29MOL   Cl84 5740   7.190   4.358   2.611 -0.4255 -0.2656 -0.0865
   29MOL    C85 5741   7.164   4.415   2.871 -0.1777  0.0129  0.1072
   29MOL    C86 5742   7.296   4.351   2.917 -0.2648 -0.3061 -0.2779
   29MOL    H87 5743   6.950   4.537   2.823  1.3603  0.1955  0.1933
   29MOL    H88 5744   6.997   4.554   2.649 -2.6897 -0.1121 -0.4161
   29MOL    H89 5745   7.110   4.457   2.954 -1.5881 -1.7244  0.1107
   29MOL    H90 5746   7.298   4.324   3.022 -0.1061 -0.2301 -0.2609
   29MOL    H91 5747   7.317   4.261   2.860 -0.8945  0.4086 -1.6623
   29MOL    C92 5748   7.406   4.451   2.914  0.4974  0.9914  0.0820
   29MOL    C93 5749   7.536   4.379   2.930 -0.0340  0.2982  0.6825
   29MOL   Cl94 5750   7.574   4.334   3.089  0.3924  0.1019 -0.4757
   29MOL    C95 5751   7.614   4.342   2.830  0.1318 -0.1258 -0.1370
   29MOL    C96 5752   7.594   4.361   2.677  0.0528 -0.0592  0.3271
   29MOL    H97 5753   7.393   4.526   2.991  1.7161  0.8478  0.4403
   29MOL    H98 5754   7.417   4.515   2.827  0.4343  2.3009  1.0343
   29MOL    H99 5755   7.701   4.285   2.861  1.1384  1.2153 -0.4227
   29MOL   H100 5756   7.502   4.419   2.667  0.6675  0.7452 -0.7090
   29MOL   H101 5757   7.679   4.410   2.631  0.7553 -1.9007 -0.3837
   29MOL   C102 5758   7.579   4.231   2.598 -0.5743 -0.1579 -0.4309
   29MOL   C103 5759   7.574   4.239   2.445  0.3626 -0.2596 -0.7558
   29MOL  Cl104 5760   7.647   4.102   2.369 -0.3237  0.1864 -0.0588
   29MOL   C105 5761   7.525   4.346   2.373  0.1801  0.6405 -0.1846
   29MOL   C106 5762   7.538   4.356   2.217  0.3111 -0.5588  0.7237
   29MOL   H107 5763   7.666   4.166   2.608 -0.4297  0.2241  1.0009
   29MOL   H108 5764   7.491   4.184   2.642 -2.0604  2.2925 -0.6888
   29MOL   H109 5765   7.474   4.433   2.412  0.6802  0.5549  0.6801
   29MOL   H110 5766   7.549   4.254   2.180 -0.1482  0.0820 -1.2541
   29MOL   H111 5767   7.446   4.396   2.174  0.4542 -0.0706  0.8719
   29MOL   C112 5768   7.650   4.458   2.179 -0.2317 -0.1564  0.4848
   29MOL   C113 5769   7.713   4.435   2.038  0.8067  0.9789 -0.4588
   29MOL  Cl114 5770   7.732   4.269   2.009 -0.3332  0.3632  0.2413
   29MOL   C115 5771   7.745   4.521   1.941 -0.0859  0.2654  0.5683
   29MOL   C116 5772   7.734   4.671   1.943  0.6548  0.1756 -0.3914
   29MOL   H117 5773   7.629   4.563   2.198 -1.4625 -0.3371  0.1056
   29MOL   H118 5774   7.737   4.437   2.242  1.0038  1.6547 -0.5499
   29MOL   H119 5775   7.780   4.480   1.847  0.2963  1.0754  0.3488
   29MOL   H120 5776   7.690   4.698   2.039 -1.5357  1.7184 -1.7592
   29MOL   H121 5777   7.654   4.694   1.872 -0.1249  0.2380  0.4946
   29MOL   C122 5778   7.871   4.736   1.915 -0.8094  0.7741  0.3098
   29MOL   C123 5779   7.980   4.682   2.004 -0.6154 -0.8564  0.1327
   29MOL  Cl124 5780   7.997   4.771   2.151  0.1409 -0.0401 -0.2617
   29MOL   C125 5781   8.070   4.588   1.974  0.2469  0.4885  0.0142
   29MOL   C126 5782   8.097   4.509   1.854  0.0883  0.3858  0.5769
   29MOL   H127 5783   7.907   4.726   1.812 -1.2709  0.0695  0.2093
   29MOL   H128 5784   7.871   4.843   1.933 -1.7452  0.3528  3.0088
   29MOL   H129 5785   8.147   4.570   2.049 -0.1433 -0.3675  0.2099
   29MOL   H130 5786   8.013   4.507   1.784 -1.3548 -1.7865  2.3134
   29MOL   H131 5787   8.181   4.562   1.809  1.0419  1.7287  3.7846
   29MOL   C132 5788   8.113   4.358   1.877  0.3898  0.1070 -0.2139
   29MOL   C133 5789   8.218   4.296   1.793  0.5531 -1.0306  0.1585
   29MOL  Cl134 5790   8.146   4.184   1.685  0.0194  0.4865 -0.3278
   29MOL   C135 5791   8.350   4.324   1.784  0.4608  0.2270  0.0349
   29MOL   C136 5792   0.012   4.423   1.858  0.2302  0.4152  0.1102
   29MOL   H137 5793   8.108   4.337   1.984 -3.1360  0.1034 -0.3141
   29MOL   H138 5794   8.018   4.318   1.842 -1.3322  2.1459  1.9565
   29MOL   H139 5795   8.413   4.268   1.717  1.3976  2.8215 -1.3330
   29MOL   H140 5796   8.377   4.457   1.945  0.8124 -1.7061  1.3540
   29MOL   H141 5797   0.091   4.362   1.903  1.2057  1.5848  0.0118
   29MOL   C142 5798   0.068   4.530   1.760 -0.0598 -0.4126 -0.3347
   29MOL   C143 5799   0.118   4.651   1.840 -1.0387  0.0097  0.1647
   29MOL  Cl144 5800   0.245   4.600   1.947 -0.1504  0.0492 -0.0383
   29MOL   C145 5801   0.064   4.769   1.840  0.4906  0.3229  0.0838
   29MOL   C146 5802   0.107   4.897   1.895  0.4845 -0.2219  0.0782
   29MOL   H147 5803   8.412   4.564   1.691  1.2726 -0.0829 -1.6956
   29MOL   H148 5804   0.146   4.482   1.701  0.1144 -2.0355  1.1807
   29MOL   H149 5805   8.396   4.763   1.779 -1.7129  0.3894  3.2107
   29MOL   H150 5806   0.191   4.887   1.965  0.6997  0.0630 -0.1357
   29MOL   H151 5807   0.148   4.959   1.815 -1.8711  1.6367  0.2570
   29MOL   C152 5808   8.406   4.970   1.966  0.2687  0.0341 -0.1485
   29MOL   C153 5809   0.026   5.114   2.002 -0.3681 -0.4248  0.4855
   29MOL  Cl154 5810   8.384   5.223   1.894  0.2465  0.4270  0.2526
   29MOL   C155 5811   0.100   5.139   2.115 -0.2737  0.1766  0.4377
   29MOL   C156 5812   0.147   5.266   2.169  0.4868 -0.1860  0.3641
   29MOL   H157 5813   8.317   4.968   1.903  1.2078 -1.7774 -1.4498
   29MOL   H158 5814   8.375   4.915   2.055  0.3340 -0.6640 -0.5512
   29MOL   H159 5815   0.131   5.051   2.170 -1.8935 -2.0078 -2.0002
   29MOL   H160 5816   0.108   5.275   2.271  1.2743  0.1498  0.6363
   29MOL   H161 5817   0.101   5.349   2.115 -2.1518 -2.6296 -1.2861
   29MOL   C162 5818   0.301   5.282   2.170  0.0446 -0.3324  0.3716
   29MOL   C163 5819   0.368   5.310   2.034  0.0898 -0.4393 -0.7353
   29MOL  Cl164 5820   0.507   5.424   2.043  0.3387 -0.0475  0.1373
   29MOL   C165 5821   0.326   5.259   1.916  0.4867  0.1395  0.9179
   29MOL   C166 5822   0.388   5.301   1.786 -0.0498 -0.4365  0.0938
   29MOL   H167 5823   0.328   5.369   2.230  1.9026  0.4193 -1.5176
   29MOL   H168 5824   0.348   5.196   2.219  1.0416  1.0973  1.9553
   29MOL   H169 5825   0.249   5.184   1.914  1.7126 -1.1844  1.9769
   29MOL   H170 5826   0.429   5.402   1.785 -1.8078  0.3159 -2.5201
   29MOL   H171 5827   0.469   5.235   1.758  0.5904  0.0984  0.6584
   29MOL   C172 5828   0.297   5.309   1.666 -0.2522  0.0948 -0.2171
   29MOL   C173 5829   0.365   5.308   1.535  0.2365  0.0690  0.3782
   29MOL  Cl174 5830   0.272   5.203   1.427 -0.1864 -0.0511  0.1632
   29MOL   C175 5831   0.484   5.356   1.510 -0.1415  0.4326  0.3131
   29MOL   C176 5832   0.559   5.333   1.383 -0.5500  0.5687  0.3689
   29MOL   H177 5833   0.247   5.404   1.689 -0.1446  0.0087  0.3965
   29MOL   H178 5834   0.221   5.231   1.667 -0.9151  0.7202 -0.8480
   29MOL   H179 5835   0.542   5.414   1.580  1.8158  0.0203 -0.8975
   29MOL   H180 5836   0.606   5.426   1.352  0.4353  0.3635  1.2242
   29MOL   H181 5837   0.488   5.299   1.307  0.0877 -1.0810  0.4760
   29MOL   C182 5838   0.678   5.236   1.395  0.4887 -0.5537  0.5641
   29MOL   C183 5839   0.728   5.192   1.261  0.0669 -0.2949  0.4289
   29MOL  Cl184 5840   0.868   5.283   1.209  0.0338  0.1043  0.1830
   29MOL   C185 5841   0.681   5.082   1.199 -0.1486  0.1217 -0.3213
   29MOL   C186 5842   0.728   5.011   1.072 -0.9061 -0.5655 -0.4515
   29MOL   H187 5843   0.757   5.284   1.452  0.3117  3.0348 -2.0152
   29MOL   H188 5844   0.641   5.148   1.448  0.0432 -1.1293 -0.6781
   29MOL   H189 5845   0.603   5.033   1.255  0.0516 -1.6921 -1.5796
   29MOL   H190 5846   0.643   4.981   1.010 -0.2484  0.3566 -1.8294
   29MOL   H191 5847   0.783   5.081   1.010  0.1368  0.2337  1.3450
   29MOL   C192 5848   0.816   4.895   1.103  0.2128 -0.1804 -0.0346
   29MOL   C193 5849   0.741   4.763   1.144  0.0696  0.2016 -0.1964
   29MOL  Cl194 5850   0.688   4.687   1.001 -0.1527  0.2370  0.2023
   29MOL   C195 5851   0.746   4.703   1.261 -0.0457 -0.1488  0.5096
   29MOL   C196 5852   0.816   4.766   1.383 -0.7879  0.0101 -0.4057
   29MOL   H197 5853   0.896   4.924   1.172 -0.4198  0.1345  0.5649
   29MOL   H198 5854   0.862   4.867   1.008 -0.9754 -0.5128 -0.5234
   29MOL   H199 5855   0.720   4.602   1.290  1.5310 -1.5492 -2.6026
   29MOL   H200 5856   0.893   4.691   1.404 -1.1500 -0.0076  0.8463
   29MOL   H201 5857   0.747   4.780   1.465 -0.1567 -0.6617  0.2490
   29MOL   H202 5858   0.871   4.858   1.360 -0.8012  0.4656  1.3652
   30MOL     C1 5859   2.359   0.108   7.720 -0.4922  0.1050 -0.2092
   30MOL     C2 5860   2.349   0.066   7.572  0.5304 -0.1773  0.3497
   30MOL    Cl3 5861   2.421   8.343   7.529  0.0028  0.0418  0.0044
   30MOL     C4 5862   2.286   0.146   7.484 -0.5124  0.4242 -0.6080
   30MOL     C5 5863   2.217   0.277   7.503  0.0393 -1.0061 -0.8843
   30MOL     H6 5864   2.268   0.154   7.759 -0.8401  0.4354 -1.3882
   30MOL     H7 5865   2.436   0.185   7.725 -1.0230  0.6459 -0.2794
   30MOL     H8 5866   2.291   0.102   7.385 -0.1674 -0.5895 -0.1515
   30MOL     H9 5867   2.261   0.326   7.590 -1.2531 -1.0690 -0.1755
   30MOL    H10 5868   2.237   0.337   7.414  0.1689 -1.8277 -1.4200
   30MOL    H11 5869   2.380   0.023   7.786 -3.0379 -0.3174  0.1191
   30MOL    C12 5870   2.059   0.270   7.507 -0.3073  0.7628 -0.2012
   30MOL    C13 5871   1.997   0.402   7.525 -0.2580  0.5441  0.1631
   30MOL   Cl14 5872   1.923   0.466   7.379  0.1707 -0.1528  0.2333
   30MOL    C15 5873   1.990   0.476   7.636 -0.1817  0.2317  0.5946
   30MOL    C16 5874   2.055   0.436   7.773  0.4642  0.6031  0.2751
   30MOL    H17 5875   2.030   0.239   7.407 -1.7175  1.6265 -0.0767
   30MOL    H18 5876   2.024   0.200   7.583 -0.2912  0.0500 -0.8491
   30MOL    H19 5877   1.929   0.565   7.636  2.6008  2.2068 -0.6701
   30MOL    H20 5878   1.978   0.458   7.846  2.1946  0.1972  2.2782
   30MOL    H21 5879   2.074   0.329   7.775 -2.1492  0.0969 -0.7570
   30MOL    C22 5880   2.175   0.514   7.816 -0.5584  0.0445 -0.0705
   30MOL    C23 5881   2.237   0.450   7.936 -1.4063  0.4745 -0.1129
   30MOL   Cl24 5882   2.152   0.473   8.084 -0.3049  0.2221 -0.1614
   30MOL    C25 5883   2.360   0.402   7.928 -0.2122  0.1370  0.2463
   30MOL    C26 5884   2.431   0.330   8.046 -0.5109 -0.3294  0.4539
   30MOL    H27 5885   2.250   0.525   7.738  0.7708 -2.1213  0.8648
   30MOL    H28 5886   2.148   0.615   7.845  0.7456 -0.0462  1.5786
   30MOL    H29 5887   2.408   0.412   7.832 -2.6274 -3.9843 -1.5060
   30MOL    H30 5888   2.492   0.393   8.111  1.3895  0.2436 -1.8594
   30MOL    H31 5889   2.353   0.287   8.109 -0.1400 -1.3832  0.2107
   30MOL    C32 5890   2.513   0.214   8.003 -0.4903  0.0711 -0.9425
   30MOL    C33 5891   2.584   0.142   8.125  0.5066  0.3854  0.0244
   30MOL   Cl34 5892   2.718   0.250   8.182 -0.0477 -0.1558  0.1054
   30MOL    C35 5893   2.565   0.013   8.164 -0.1441 -0.3076 -0.2327
   30MOL    C36 5894   2.635   8.354   8.276  0.5837 -0.2461  0.1165
   30MOL    H37 5895   2.444   0.147   7.952 -1.9570 -0.3666  1.5627
   30MOL    H38 5896   2.593   0.244   7.935 -0.3255 -0.6041 -1.0492
   30MOL    H39 5897   2.482   8.378   8.122  0.1198 -0.4836 -0.5217
   30MOL    H40 5898   2.690   8.276   8.224  0.4330 -0.1311 -0.2216
   30MOL    H41 5899   2.712   0.001   8.312 -1.4648  1.6244  1.1630
   30MOL    C42 5900   2.545   8.298   8.390  0.2201 -0.4079  0.1109
   30MOL    C43 5901   2.620   8.235   0.080  0.3807  0.2168  0.9524
   30MOL   Cl44 5902   2.657   8.352   0.199 -0.1682 -0.0335 -0.3648
   30MOL    C45 5903   2.649   8.103   0.099 -0.3765 -0.1716  0.3692
   30MOL    C46 5904   2.616   7.984   0.015 -0.2368 -0.2308 -0.1660
   30MOL    H47 5905   2.492   8.384   0.007 -0.1277 -0.0032 -1.2530
   30MOL    H48 5906   2.469   8.228   8.356  1.7462 -2.1082  0.0924
   30MOL    H49 5907   2.692   8.076   0.194  0.5840 -2.3065 -0.6391
   30MOL    H50 5908   2.564   7.912   0.078  0.7490 -0.3238  0.5533
   30MOL    H51 5909   2.556   8.031   8.359 -0.7391  1.9231  1.4794
   30MOL    C52 5910   2.746   7.938   8.365  0.9225  0.1233  0.1774
   30MOL    C53 5911   2.727   7.809   8.281 -0.2168  0.7006  0.1137
   30MOL   Cl54 5912   2.877   7.726   8.257  0.3792 -0.2312  0.2528
   30MOL    C55 5913   2.610   7.769   8.227 -0.2638  0.7067 -0.5412
   30MOL    C56 5914   2.590   7.653   8.134 -0.3192 -0.8394 -0.3848
   30MOL    H57 5915   2.793   8.010   8.298 -0.4102  0.8993  0.0579
   30MOL    H58 5916   2.817   7.910   0.022 -0.4503 -0.5685  1.2039
   30MOL    H59 5917   2.520   7.826   8.246  0.5084  1.3652  1.2734
   30MOL    H60 5918   2.521   7.685   8.056 -1.0125 -0.5543  0.3441
   30MOL    H61 5919   2.682   7.636   8.077  0.1179  0.4078 -0.0658
   30MOL    C62 5920   2.544   7.528   8.200  0.0466 -0.2806  0.0882
   30MOL    C63 5921   2.564   7.411   8.104 -1.0178 -0.1192 -0.5368
   30MOL   Cl64 5922   2.411   7.336   8.049 -0.5030  0.1120 -0.2353
   30MOL    C65 5923   2.679   7.356   8.075 -0.1539  0.0047 -0.3285
   30MOL    C66 5924   2.691   7.220   7.991  0.1519  0.1866 -0.5890
   30MOL    H67 5925   2.589   7.506   8.297 -0.8162  3.6094  1.4483
   30MOL    H68 5926   2.440   7.550   8.226 -0.1868 -1.2950  0.0537
   30MOL    H69 5927   2.770   7.403   8.109 -0.6721  1.0201 -0.3222
   30MOL    H70 5928   2.746   7.239   7.899 -0.9007  1.3184 -1.0055
   30MOL    H71 5929   2.593   7.192   7.952 -0.9104 -0.4976  2.4347
   30MOL    C72 5930   2.747   7.096   8.077 -0.4604  0.3456  0.3947
   30MOL    C73 5931   2.778   6.975   7.990 -0.1332 -0.0766 -0.1853
   30MOL   Cl74 5932   2.934   6.910   8.007 -0.0599 -0.4300  0.1219
   30MOL    C75 5933   2.685   6.914   7.912  0.2578 -0.1910  0.3045
   30MOL    C76 5934   2.697   6.795   7.818  0.3499 -0.0648  0.1175
   30MOL    H77 5935   2.698   7.063   8.169  1.6103 -2.5070  0.5464
   30MOL    H78 5936   2.838   7.128   8.129  0.8918 -1.6855 -0.6196
   30MOL    H79 5937   2.586   6.956   7.918  0.2669 -0.4192  2.7618
   30MOL    H80 5938   2.798   6.786   7.776 -1.4806 -1.1725 -4.4049
   30MOL    H81 5939   2.643   6.833   7.731  0.3507  0.8972  0.5318
   30MOL    C82 5940   2.638   6.664   7.862  0.4137  0.2464 -0.2798
   30MOL    C83 5941   2.699   6.598   7.986  0.0713 -0.1915  0.0824
   30MOL   Cl84 5942   2.595   6.611   8.126  0.1178  0.0560 -0.0776
   30MOL    C85 5943   2.806   6.518   7.988 -0.1487 -0.2229  0.1709
   30MOL    C86 5944   2.868   6.436   8.103  0.6476  0.1132  0.2537
   30MOL    H87 5945   2.637   6.591   7.782  0.5766 -0.2960  0.2059
   30MOL    H88 5946   2.531   6.675   7.883 -0.0787 -0.9963 -2.0294
   30MOL    H89 5947   2.864   6.514   7.897 -0.5561 -1.0802 -0.0533
   30MOL    H90 5948   2.974   6.459   8.118  0.7672 -1.2619  1.7070
   30MOL    H91 5949   2.819   6.474   8.193 -2.3354 -1.7751 -0.4957
   30MOL    C92 5950   2.855   6.283   8.090  0.1469  0.4846 -0.0342
   30MOL    C93 5951   2.897   6.225   7.959 -0.5082 -0.6954 -0.6374
   30MOL   Cl94 5952   3.068   6.198   7.952 -0.1606  0.3403  0.0643
   30MOL    C95 5953   2.814   6.174   7.863 -0.0813  0.4953  0.0687
   30MOL    C96 5954   2.662   6.192   7.864  0.1800  0.9243 -0.1084
   30MOL    H97 5955   2.753   6.251   8.112 -0.0416  0.6162 -0.7138
   30MOL    H98 5956   2.920   6.242   8.167  0.4334  2.5571  0.8472
   30MOL    H99 5957   2.850   6.132   7.770  2.2034  0.9147  0.7275
   30MOL   H100 5958   2.623   6.104   7.915 -0.4602  0.1826 -1.8541
   30MOL   H101 5959   2.644   6.282   7.924  0.0305  1.0536 -0.3482
   30MOL   C102 5960   2.610   6.209   7.721 -0.4262  0.2714  0.1306
   30MOL   C103 5961   2.650   6.111   7.614 -0.1488 -0.5420 -0.0778
   30MOL  Cl104 5962   2.720   6.179   7.477 -0.0726 -0.4619 -0.0379
   30MOL   C105 5963   2.620   5.980   7.634  0.0076 -0.3830  0.5020
   30MOL   C106 5964   2.655   5.864   7.535 -0.0071  0.0767  0.7023
   30MOL   H107 5965   2.501   6.203   7.723 -0.4452 -1.8134 -3.1997
   30MOL   H108 5966   2.646   6.301   7.675 -0.2566  0.0795 -0.1215
   30MOL   H109 5967   2.560   5.948   7.717 -1.0765 -3.6057 -1.4390
   30MOL   H110 5968   2.717   5.913   7.460  1.7347  0.6183  2.4594
   30MOL   H111 5969   2.720   5.798   7.593 -0.1683  1.2565  2.2845
   30MOL   C112 5970   2.533   5.782   7.488 -0.1681  0.1366 -0.4762
   30MOL   C113 5971   2.557   5.711   7.355  0.3543  0.4163 -0.5001
   30MOL  Cl114 5972   2.614   5.544   7.384  0.2932  0.0900  0.2201
   30MOL   C115 5973   2.559   5.769   7.232  0.3542 -0.6563 -0.2374
   30MOL   C116 5974   2.520   5.912   7.194  0.2906 -0.2962  0.6730
   30MOL   H117 5975   2.497   5.715   7.565  0.6179 -0.3843 -0.5508
   30MOL   H118 5976   2.445   5.845   7.474 -2.1798 -2.1043  1.6550
   30MOL   H119 5977   2.590   5.710   7.147 -0.1265  1.4781 -1.9271
   30MOL   H120 5978   2.465   5.956   7.277 -0.8072 -3.4628  1.6844
   30MOL   H121 5979   2.448   5.902   7.113  0.2977  2.1282  0.3250
   30MOL   C122 5980   2.642   5.996   7.140  0.7859 -0.9418 -0.1077
   30MOL   C123 5981   2.712   5.916   7.025 -0.1507  0.0600 -1.4819
   30MOL  Cl124 5982   2.657   5.962   6.867 -0.0217  0.2465 -0.3789
   30MOL   C125 5983   2.827   5.845   7.028 -0.3410  0.3120  0.3032
   30MOL   C126 5984   2.907   5.809   7.152  0.2731 -0.2452  0.0051
   30MOL   H127 5985   2.602   6.092   7.108  2.1984 -0.3793 -0.2073
   30MOL   H128 5986   2.714   6.009   7.221 -0.3162  1.1156  0.5723
   30MOL   H129 5987   2.876   5.812   6.938 -0.8647  1.2151 -0.3149
   30MOL   H130 5988   3.006   5.843   7.121 -0.5149  0.0188 -2.3181
   30MOL   H131 5989   2.890   5.872   7.239  2.1097  0.3210 -0.0104
   30MOL   C132 5990   2.916   5.663   7.183 -0.5327  0.5401  0.6527
   30MOL   C133 5991   3.032   5.618   7.269  0.2853 -0.6539 -0.1865
   30MOL  Cl134 5992   3.177   5.590   7.177  0.1207 -0.0459 -0.1306
   30MOL   C135 5993   3.044   5.612   7.406  0.1442  0.2462  0.0376
   30MOL   C136 5994   2.940   5.646   7.515  0.4971  0.2987  0.0881
   30MOL   H137 5995   2.824   5.629   7.232 -0.9681  1.7790  0.7121
   30MOL   H138 5996   2.947   5.610   7.093 -2.1173 -1.2986  1.1665
   30MOL   H139 5997   3.143   5.586   7.438 -0.3801  0.7552  2.1495
   30MOL   H140 5998   2.918   5.753   7.514 -1.2952 -0.0626 -0.9785
   30MOL   H141 5999   2.846   5.599   7.485  0.3332  1.4029 -1.1683
   30MOL   C142 6000   2.979   5.606   7.651  0.1059  0.8827 -0.3808
   30MOL   C143 6001   2.945   5.464   7.686 -0.2275 -0.0861 -0.4001
   30MOL  Cl144 6002   3.093   5.366   7.707 -0.1015  0.7405 -0.1364
   30MOL   C145 6003   2.824   5.420   7.730  0.7338 -0.0229  0.0294
   30MOL   C146 6004   2.794   5.291   7.801  0.2456  0.4775 -0.5077
   30MOL   H147 6005   2.934   5.666   7.730 -0.2103 -0.2990  0.3402
   30MOL   H148 6006   3.087   5.621   7.662  0.5383 -1.7517 -0.8334
   30MOL   H149 6007   2.743   5.492   7.720  0.2648 -0.7857 -1.7140
   30MOL   H150 6008   2.886   5.239   7.826 -1.0263 -1.3067  0.6200
   30MOL   H151 6009   2.743   5.313   7.895  0.5340 -2.6764  0.4719
   30MOL   C152 6010   2.702   5.204   7.724 -0.1033  0.3725  0.2763
   30MOL   C153 6011   2.726   5.058   7.767 -0.7017 -0.2238  0.2275
   30MOL  Cl154 6012   2.599   5.010   7.862  0.1764  0.1734  0.0085
   30MOL   C155 6013   2.831   4.980   7.741 -0.4615 -0.3708 -0.1089
   30MOL   C156 6014   2.848   4.841   7.788  0.3316  0.4479  0.1429
   30MOL   H157 6015   2.598   5.232   7.737  0.7482  2.7175  2.6570
   30MOL   H158 6016   2.715   5.202   7.616  2.6684 -1.3121  0.5972
   30MOL   H159 6017   2.915   5.007   7.679  0.7674 -2.0698  0.7477
   30MOL   H160 6018   2.766   4.817   7.856 -0.2222  2.7343  0.3191
   30MOL   H161 6019   2.940   4.826   7.845  0.6798  0.8496 -0.3181
   30MOL   C162 6020   2.859   4.736   7.676 -0.0540 -0.3779  0.3342
   30MOL   C163 6021   2.854   4.578   7.698 -0.1671 -0.3206  0.6783
   30MOL  Cl164 6022   2.936   4.494   7.574 -0.0399 -0.2837 -0.0380
   30MOL   C165 6023   2.797   4.521   7.807 -0.3863  0.0754  0.5550
   30MOL   C166 6024   2.793   4.373   7.843 -0.0893  0.1435 -0.3690
   30MOL   H167 6025   2.769   4.746   7.614 -0.4055  1.0529  1.0561
   30MOL   H168 6026   2.949   4.748   7.616 -0.2048 -0.0934  0.1593
   30MOL   H169 6027   2.756   4.586   7.884  1.1325 -1.1155  2.4351
   30MOL   H170 6028   2.693   4.335   7.862 -0.2173 -0.5018 -2.3054
   30MOL   H171 6029   2.833   4.316   7.760 -1.0066 -0.7463 -0.2022
   30MOL   C172 6030   2.893   4.339   7.949 -0.5136 -1.3195 -0.3568
   30MOL   C173 6031   2.908   4.195   7.988 -0.2816  0.2454 -0.6117
   30MOL  Cl174 6032   2.911   4.080   7.860 -0.1570 -0.3022  0.2272
   30MOL   C175 6033   2.915   4.150   8.116  1.2411  0.1044  0.7883
   30MOL   C176 6034   2.933   4.009   8.162  0.3671 -0.0563  0.5742
   30MOL   H177 6035   2.865   4.399   8.036 -0.1470  0.2436 -1.2863
   30MOL   H178 6036   2.993   4.376   7.928 -0.4586  0.3615  2.5852
   30MOL   H179 6037   2.906   4.228   8.190 -1.7218  0.2324  0.3377
   30MOL   H180 6038   2.949   3.931   8.088 -0.8769 -1.0522  1.3284
   30MOL   H181 6039   2.838   3.986   8.210  0.4189 -1.1546  0.1637
   30MOL   C182 6040   3.047   4.003   8.262 -0.1815 -0.1441  0.3646
   30MOL   C183 6041   3.060   3.863   8.327  0.6833 -0.7443  0.0736
   30MOL  Cl184 6042   2.921   3.843   0.012 -0.2946 -0.2874 -0.1045
   30MOL   C185 6043   3.155   3.762   8.319  0.6222 -0.0772 -0.3317
   30MOL   C186 6044   3.140   3.634   8.400 -0.3686 -0.7366 -0.0062
   30MOL   H187 6045   3.143   4.015   8.212  0.3937  0.4318  1.5954
   30MOL   H188 6046   3.033   4.079   8.338 -1.0570 -0.8952  0.9618
   30MOL   H189 6047   3.238   3.772   8.251  0.4000  1.5024 -0.3777
   30MOL   H190 6048   3.069   3.650   0.061 -0.4526  2.1935 -0.5723
   30MOL   H191 6049   3.090   3.562   8.336 -2.3041 -0.7310  1.4735
   30MOL   C192 6050   3.271   3.570   0.027 -0.2798 -0.0869  0.3559
   30MOL   C193 6051   3.243   3.460   0.130 -0.3105  0.0942  0.6656
   30MOL  Cl194 6052   3.294   3.513   0.285 -0.2191  0.0764 -0.1218
   30MOL   C195 6053   3.191   3.334   0.118 -0.5198 -0.2075 -0.0611
   30MOL   C196 6054   3.156   3.271   8.408 -0.0769 -0.6217 -0.1100
   30MOL   H197 6055   3.338   3.639   0.078  0.2928 -0.9243  0.7622
   30MOL   H198 6056   3.328   3.529   8.364 -0.9240  1.8228 -1.0493
   30MOL   H199 6057   3.173   3.277   0.208 -1.6963 -1.4904 -1.0812
   30MOL   H200 6058   3.185   3.166   8.408 -0.4762 -0.7356  0.7625
   30MOL   H201 6059   3.211   3.315   8.324 -0.4920 -0.6690 -0.4068
   30MOL   H202 6060   3.053   3.291   8.380  0.0695 -0.1889 -0.3449
   31MOL     C1 6061   1.280   2.768   4.518 -0.6100 -0.0666  0.1978
   31MOL     C2 6062   1.387   2.866   4.528 -0.4254 -0.3680 -0.0136
   31MOL    Cl3 6063   1.319   3.024   4.497  0.0915  0.0569  0.2857
   31MOL     C4 6064   1.519   2.854   4.547 -0.6208  0.6008  0.5705
   31MOL     C5 6065   1.587   2.720   4.574 -0.0861  0.6185 -0.0047
   31MOL     H6 6066   1.296   2.679   4.457 -1.1558  0.4018 -0.6383
   31MOL     H7 6067   1.181   2.807   4.495 -0.3295  2.2045  2.6260
   31MOL     H8 6068   1.580   2.943   4.537  0.9344 -0.4283  0.7450
   31MOL     H9 6069   1.512   2.658   4.623  0.8556 -1.5125 -1.1849
   31MOL    H10 6070   1.602   2.679   4.474 -4.5031 -0.2713 -0.4033
   31MOL    H11 6071   1.266   2.728   4.618 -1.7300  1.7083  0.7847
   31MOL    C12 6072   1.712   2.728   4.667  0.0404 -1.3273 -0.1061
   31MOL    C13 6073   1.795   2.603   4.663  0.1173  0.3768  0.4610
   31MOL   Cl14 6074   1.752   2.491   4.782  0.0795 -0.1295 -0.2535
   31MOL    C15 6075   1.900   2.572   4.579 -0.2606 -0.2548  0.3960
   31MOL    C16 6076   1.948   2.662   4.459  0.5441  0.8111  0.3687
   31MOL    H17 6077   1.783   2.798   4.623  0.7964 -2.3572 -0.5530
   31MOL    H18 6078   1.694   2.760   4.769  2.4576  1.8910 -0.6105
   31MOL    H19 6079   1.949   2.476   4.587  1.7086  0.6887  0.0940
   31MOL    H20 6080   1.942   2.585   4.381 -0.8073  0.5944  0.6793
   31MOL    H21 6081   1.882   2.743   4.428  3.1863  2.2166 -1.7600
   31MOL    C22 6082   2.079   2.725   4.486  0.2463 -0.5503 -0.6668
   31MOL    C23 6083   2.121   2.822   4.381 -0.0357 -0.8090  0.1789
   31MOL   Cl24 6084   2.194   2.733   4.256 -0.0610 -0.0115  0.1175
   31MOL    C25 6085   2.127   2.959   4.397  0.7689 -0.7489  0.3893
   31MOL    C26 6086   2.180   3.067   4.297 -0.0309 -0.1882 -0.6625
   31MOL    H27 6087   2.066   2.781   4.579  0.4305  0.3728 -1.1933
   31MOL    H28 6088   2.156   2.649   4.500  3.5460  3.1933  2.7933
   31MOL    H29 6089   2.093   3.006   4.489 -2.1672 -1.2765 -0.3745
   31MOL    H30 6090   2.186   3.010   4.205  0.1585 -0.1684 -0.6616
   31MOL    H31 6091   2.093   3.133   4.291 -0.5382 -0.8310 -0.4323
   31MOL    C32 6092   2.313   3.122   4.345 -0.1807 -0.2108  0.0884
   31MOL    C33 6093   2.313   3.199   4.479  0.1744  0.6384 -0.4317
   31MOL   Cl34 6094   2.469   3.183   4.570 -0.1641  0.0109 -0.0426
   31MOL    C35 6095   2.204   3.258   4.535  0.0788  0.4652 -0.5364
   31MOL    C36 6096   2.207   3.322   4.676  0.1249 -0.4567  0.4646
   31MOL    H37 6097   2.379   3.037   4.357 -0.9869 -0.6238  1.7886
   31MOL    H38 6098   2.357   3.179   4.263  1.7654 -3.6684 -1.3825
   31MOL    H39 6099   2.111   3.251   4.481  0.3810  1.6972 -1.2307
   31MOL    H40 6100   2.310   3.339   4.708 -0.0550  0.8079  0.4178
   31MOL    H41 6101   2.160   3.421   4.677 -2.4995 -1.6407 -0.7760
   31MOL    C42 6102   2.134   3.231   4.783  0.1761 -0.3401  0.9725
   31MOL    C43 6103   1.983   3.240   4.769  0.4737 -0.5634  0.4367
   31MOL   Cl44 6104   1.905   3.098   4.704  0.1716 -0.1527 -0.2384
   31MOL    C45 6105   1.902   3.341   4.812 -0.3570  0.1386 -0.3341
   31MOL    C46 6106   1.973   3.466   4.875  0.0994  0.1252  0.0325
   31MOL    H47 6107   2.165   3.128   4.764 -2.0001 -0.9821  0.8090
   31MOL    H48 6108   2.171   3.255   4.883  2.0221  1.8125 -0.1642
   31MOL    H49 6109   1.794   3.339   4.804 -0.1915  0.6944 -3.5835
   31MOL    H50 6110   1.927   3.480   4.973  1.2477  1.5292  0.3881
   31MOL    H51 6111   2.081   3.451   4.877  0.2779  1.4737  0.6281
   31MOL    C52 6112   1.933   3.595   4.798  0.0851  0.0107 -0.3626
   31MOL    C53 6113   1.887   3.702   4.896  0.8376  0.1442 -0.2616
   31MOL   Cl54 6114   1.998   3.739   5.013 -0.1011 -0.0586  0.5018
   31MOL    C55 6115   1.769   3.763   4.879 -0.2456  0.9005  0.3228
   31MOL    C56 6116   1.718   3.883   4.968 -0.7289  0.4235  0.3226
   31MOL    H57 6117   2.018   3.641   4.747 -0.0462  1.0275  0.3232
   31MOL    H58 6118   1.865   3.582   4.713 -0.3719  1.8681 -0.2929
   31MOL    H59 6119   1.702   3.729   4.801 -0.1033  0.4155  0.4108
   31MOL    H60 6120   1.801   3.929   5.021 -1.1678 -0.1610  1.5258
   31MOL    H61 6121   1.699   3.962   4.895  2.4630 -0.6526 -1.7822
   31MOL    C62 6122   1.599   3.854   5.065  0.7422  0.3973  0.3939
   31MOL    C63 6123   1.489   3.773   5.001  0.5064  0.1586 -0.4074
   31MOL   Cl64 6124   1.410   3.864   4.876  0.1369 -0.3153  0.3117
   31MOL    C65 6125   1.450   3.646   5.043 -0.6242  0.3921 -0.0195
   31MOL    C66 6126   1.337   3.566   4.986  0.1372  0.3064 -0.0122
   31MOL    H67 6127   1.638   3.794   5.148 -1.4001 -3.1936 -1.0897
   31MOL    H68 6128   1.562   3.947   5.107 -1.7784 -0.8514  1.0433
   31MOL    H69 6129   1.511   3.595   5.115  0.3514  0.3632 -0.8496
   31MOL    H70 6130   1.359   3.462   4.962  0.9902 -0.4229  3.7064
   31MOL    H71 6131   1.310   3.601   4.886  0.4374  0.2226 -0.1234
   31MOL    C72 6132   1.209   3.564   5.070  0.3159  0.1957  0.2446
   31MOL    C73 6133   1.090   3.521   4.992  0.6598  0.5540  0.7205
   31MOL   Cl74 6134   1.017   3.378   5.064 -0.0296 -0.1896  0.5871
   31MOL    C75 6135   1.040   3.576   4.879 -0.5271 -0.6215  0.2387
   31MOL    C76 6136   0.930   3.522   4.788  0.4106  0.4331  0.4565
   31MOL    H77 6137   1.172   3.661   5.104  2.6854  0.7282  1.3517
   31MOL    H78 6138   1.212   3.506   5.162  1.6738 -1.8988 -1.0884
   31MOL    H79 6139   1.083   3.669   4.845 -0.2039 -1.4257 -1.6310
   31MOL    H80 6140   0.839   3.581   4.802  0.8939  1.1930  0.4394
   31MOL    H81 6141   0.914   3.415   4.800 -1.7623  0.9077  2.2579
   31MOL    C82 6142   0.962   3.543   4.638 -0.3532 -0.8244  0.2421
   31MOL    C83 6143   0.869   3.472   4.543  0.5563 -0.5638  0.5902
   31MOL   Cl84 6144   0.948   3.370   4.428 -0.0815  0.3632  0.0390
   31MOL    C85 6145   0.736   3.482   4.559  0.2794 -0.1090 -0.3391
   31MOL    C86 6146   0.634   3.405   4.472 -0.7260  0.4763 -0.2184
   31MOL    H87 6147   1.060   3.498   4.619 -0.4449 -0.6516 -0.6572
   31MOL    H88 6148   0.971   3.648   4.612 -0.4293 -0.9241 -0.1880
   31MOL    H89 6149   0.692   3.543   4.636  1.1467  1.9909 -1.4703
   31MOL    H90 6150   0.691   3.341   4.404 -0.1915 -0.2035  0.8698
   31MOL    H91 6151   0.580   3.340   4.541 -0.4427  0.4092 -0.0637
   31MOL    C92 6152   0.521   3.494   4.410 -0.2503 -0.2442 -0.5143
   31MOL    C93 6153   0.573   3.604   4.317  0.3070  0.2930  0.5301
   31MOL   Cl94 6154   0.582   3.753   4.397 -0.3354 -0.1491  0.0778
   31MOL    C95 6155   0.605   3.586   4.190  0.2627 -0.4899 -0.2501
   31MOL    C96 6156   0.593   3.468   4.102  0.3295 -0.2169 -0.3420
   31MOL    H97 6157   0.461   3.553   4.480  1.3112  0.4808  0.2375
   31MOL    H98 6158   0.456   3.426   4.355 -1.4629  0.5471 -0.0861
   31MOL    H99 6159   0.645   3.666   4.129 -0.2673  1.0530  1.3763
   31MOL   H100 6160   0.551   3.380   4.152 -0.5988 -0.1394 -0.9869
   31MOL   H101 6161   0.531   3.502   4.020 -2.0235  0.6578  1.7347
   31MOL   C102 6162   0.725   3.425   4.041  0.6713  0.8491  0.1173
   31MOL   C103 6163   0.718   3.353   3.905 -0.0995  0.4845  0.0411
   31MOL  Cl104 6164   0.861   3.387   3.813 -0.0009  0.0991 -0.0218
   31MOL   C105 6165   0.618   3.265   3.883 -0.8214  0.5769  0.8130
   31MOL   C106 6166   0.609   3.179   3.759  0.2261  0.1487  0.0841
   31MOL   H107 6167   0.780   3.519   4.028  2.1310  0.1196  0.8752
   31MOL   H108 6168   0.767   3.354   4.112  0.4023  0.7008  0.1298
   31MOL   H109 6169   0.543   3.251   3.959 -0.1880  0.2098  1.3752
   31MOL   H110 6170   0.691   3.200   3.690 -0.8551 -1.2993 -1.7068
   31MOL   H111 6171   0.601   3.075   3.790  1.9641 -0.7221 -2.2123
   31MOL   C112 6172   0.476   3.215   3.693 -0.2152 -0.5285  0.5934
   31MOL   C113 6173   0.426   3.123   3.585  0.2627 -0.0418  0.4123
   31MOL  Cl114 6174   0.483   3.163   3.424  0.2156  0.0370  0.3413
   31MOL   C115 6175   0.350   3.013   3.606  0.5002 -0.0469  0.1141
   31MOL   C116 6176   0.300   2.945   3.730  0.2759  0.2457 -0.2366
   31MOL   H117 6177   0.390   3.226   3.759 -0.3229 -3.0007  0.9066
   31MOL   H118 6178   0.499   3.313   3.650  0.0964 -0.8982 -0.0911
   31MOL   H119 6179   0.318   2.955   3.521  0.8354 -3.1047  1.9930
   31MOL   H120 6180   0.192   2.935   3.734  0.2552  0.8732  0.8864
   31MOL   H121 6181   0.314   3.006   3.819  0.3915 -0.6334  0.3511
   31MOL   C122 6182   0.350   2.804   3.743 -0.1663 -0.1477  0.2231
   31MOL   C123 6183   0.307   2.735   3.869  0.2817  1.1282 -0.6305
   31MOL  Cl124 6184   0.376   2.802   4.011  0.2584 -0.3380 -0.3889
   31MOL   C125 6185   0.213   2.631   3.884  0.0559 -0.1397 -0.5083
   31MOL   C126 6186   0.148   2.565   3.769 -0.3494  0.5202 -0.3138
   31MOL   H127 6187   0.307   2.753   3.657 -3.5597  1.2019  1.0192
   31MOL   H128 6188   0.459   2.798   3.739 -0.2367 -0.7315 -0.7078
   31MOL   H129 6189   0.194   2.597   3.985  0.3583 -0.7042 -0.6404
   31MOL   H130 6190   0.216   2.560   3.684 -1.1555  2.9002 -1.1186
   31MOL   H131 6191   0.131   2.460   3.795  1.3527  0.5301  0.9832
   31MOL   C132 6192   0.021   2.632   3.716  0.2457  0.6823 -0.1822
   31MOL   C133 6193   8.375   2.555   3.603 -0.2882  0.4714 -0.4920
   31MOL  Cl134 6194   8.219   2.482   3.648 -0.2630  0.2967 -0.2353
   31MOL   C135 6195   8.410   2.558   3.476  0.0453 -0.3204  0.0034
   31MOL   C136 6196   0.114   2.625   3.414 -0.2894 -0.2022 -0.1411
   31MOL   H137 6197   8.364   2.642   3.792 -0.6409 -2.0370 -0.6597
   31MOL   H138 6198   0.038   2.731   3.676 -0.8086  0.4208 -1.3208
   31MOL   H139 6199   8.355   2.497   3.405  1.3529 -1.9343  0.3407
   31MOL   H140 6200   0.080   2.686   3.330 -0.9433 -1.8837 -1.1228
   31MOL   H141 6201   0.152   2.694   3.489  1.3084 -0.3837 -0.7534
   31MOL   C142 6202   0.225   2.525   3.379  0.3997  0.4718 -0.4650
   31MOL   C143 6203   0.338   2.576   3.293 -0.2763  0.2496 -0.0302
   31MOL  Cl144 6204   0.404   2.729   3.337  0.2128  0.3280  0.0887
   31MOL   C145 6205   0.395   2.504   3.193  0.3050  0.1261  0.4006
   31MOL   C146 6206   0.525   2.537   3.120 -0.5717 -0.7192  0.0342
   31MOL   H147 6207   0.177   2.435   3.339  2.6897 -1.1695  0.3982
   31MOL   H148 6208   0.284   2.489   3.463  0.2352  4.1486  1.3009
   31MOL   H149 6209   0.349   2.412   3.160  1.5765 -0.0350 -0.9824
   31MOL   H150 6210   0.515   2.502   3.017  2.1544 -0.0785 -0.4694
   31MOL   H151 6211   0.539   2.645   3.112 -0.0177 -0.8076 -0.2271
   31MOL   C152 6212   0.652   2.476   3.180 -0.1024 -0.6568 -0.0422
   31MOL   C153 6213   0.779   2.493   3.102  0.3099 -0.1062 -0.3572
   31MOL  Cl154 6214   0.921   2.481   3.204 -0.0763  0.1055 -0.0303
   31MOL   C155 6215   0.789   2.560   2.983  0.3769 -0.0106 -0.4127
   31MOL   C156 6216   0.917   2.600   2.909  0.6925 -0.4846 -0.0853
   31MOL   H157 6217   0.674   2.528   3.273  1.2970 -1.7892  0.2781
   31MOL   H158 6218   0.643   2.372   3.211 -0.9248 -0.5168  0.2219
   31MOL   H159 6219   0.696   2.586   2.934 -0.6503 -0.7737  1.0902
   31MOL   H160 6220   1.001   2.548   2.954 -0.6907 -2.1059  0.6778
   31MOL   H161 6221   0.929   2.709   2.913 -1.8482 -0.1219 -1.3967
   31MOL   C162 6222   0.912   2.555   2.757 -0.2841 -0.1121 -0.1655
   31MOL   C163 6223   1.047   2.586   2.686  0.8406 -0.0584  0.3966
   31MOL  Cl164 6224   1.182   2.488   2.727 -0.1459  0.5862  0.1079
   31MOL   C165 6225   1.056   2.670   2.585 -0.3500 -0.4698 -1.1071
   31MOL   C166 6226   1.181   2.714   2.520 -0.1224  0.6532 -0.2150
   31MOL   H167 6227   0.893   2.448   2.758  0.3590 -0.2267 -0.0227
   31MOL   H168 6228   0.832   2.603   2.702 -1.1012 -0.8736  0.3471
   31MOL   H169 6229   0.964   2.723   2.565 -0.9439 -0.5049  1.3309
   31MOL   H170 6230   1.266   2.650   2.544  0.7601  2.0654  0.4972
   31MOL   H171 6231   1.186   2.686   2.415 -1.5856  0.2667 -0.1887
   31MOL   C172 6232   1.202   2.864   2.541 -0.4352  0.5076 -0.0729
   31MOL   C173 6233   1.235   2.907   2.683 -0.0460  0.0259  0.0177
   31MOL  Cl174 6234   1.142   3.046   2.738  0.1181 -0.2996 -0.2674
   31MOL   C175 6235   1.307   2.837   2.769 -0.4127  0.2643  0.4746
   31MOL   C176 6236   1.332   2.867   2.912 -0.4173  0.8207  0.0543
   31MOL   H177 6237   1.108   2.906   2.506 -1.2341 -1.3562 -0.2153
   31MOL   H178 6238   1.288   2.903   2.487 -0.1558  0.1307  0.0966
   31MOL   H179 6239   1.365   2.753   2.732  1.1035  1.3361  0.3835
   31MOL   H180 6240   1.287   2.963   2.936 -0.9454  0.4230  0.6746
   31MOL   H181 6241   1.441   2.861   2.920 -0.3539  1.5548 -0.2796
   31MOL   C182 6242   1.285   2.759   3.013  1.0705  0.4421 -0.6845
   31MOL   C183 6243   1.284   2.805   3.161  0.1456  0.0063  0.4499
   31MOL  Cl184 6244   1.171   2.704   3.255  0.1229  0.2037  0.2318
   31MOL   C185 6245   1.337   2.923   3.206  0.1366 -0.2974 -1.2403
   31MOL   C186 6246   1.317   2.993   3.344 -0.0310 -0.2546  0.3612
   31MOL   H187 6247   1.191   2.708   2.990  0.9118  0.8099 -0.8624
   31MOL   H188 6248   1.352   2.675   2.998  1.5293 -0.1699  4.1333
   31MOL   H189 6249   1.408   2.977   3.144  0.0018 -1.4882 -2.4487
   31MOL   H190 6250   1.258   2.936   3.417 -1.6485  1.4645  0.4455
   31MOL   H191 6251   1.413   2.994   3.396 -0.5214  0.5171  1.2788
   31MOL   C192 6252   1.258   3.133   3.333 -0.8939 -0.4619  0.5259
   31MOL   C193 6253   1.238   3.192   3.471  0.5378 -0.0572 -0.2703
   31MOL  Cl194 6254   1.384   3.255   3.534 -0.1256 -0.1591 -0.1635
   31MOL   C195 6255   1.129   3.195   3.548 -0.0599  0.0150 -0.2305
   31MOL   C196 6256   0.991   3.144   3.524  0.4379 -0.2333  0.3831
   31MOL   H197 6257   1.160   3.135   3.287  0.0586  1.7531 -1.5082
   31MOL   H198 6258   1.327   3.205   3.289  1.2143 -2.1761  0.9387
   31MOL   H199 6259   1.129   3.228   3.651 -0.8190 -1.6592  0.3114
   31MOL   H200 6260   0.926   3.229   3.499  0.4631 -0.5306 -0.7443
   31MOL   H201 6261   0.956   3.093   3.614  1.9698 -2.1062 -0.0585
   31MOL   H202 6262   0.987   3.077   3.438 -0.2871 -1.5962  1.4512
   32MOL     C1 6263   4.018   0.906   0.418  0.4298 -0.1911 -0.5151
   32MOL     C2 6264   4.134   1.000   0.395  0.1604 -0.0768 -0.2867
   32MOL    Cl3 6265   4.199   1.074   0.537  0.3574 -0.3346  0.0296
   32MOL     C4 6266   4.201   1.021   0.277 -0.1245  0.1959  0.2809
   32MOL     C5 6267   4.156   0.958   0.149 -0.3546  0.4879  0.0109
   32MOL     H6 6268   4.031   0.803   0.386  0.0721 -0.1672 -0.7452
   32MOL     H7 6269   3.933   0.936   0.356 -0.6410 -1.3270  0.3675
   32MOL     H8 6270   4.285   1.089   0.281 -0.2137  0.4078 -1.2206
   32MOL     H9 6271   4.239   0.922   0.089  1.0542  1.5237  1.2658
   32MOL    H10 6272   4.086   0.878   0.171 -0.5778  0.0211 -2.3461
   32MOL    H11 6273   3.996   0.904   0.524  1.1224  1.0618 -0.3341
   32MOL    C12 6274   4.086   1.047   0.047  0.2585  0.1301  0.0503
   32MOL    C13 6275   3.993   0.973   8.379 -0.2963 -0.0058 -0.4816
   32MOL   Cl14 6276   4.084   0.929   8.238  0.0737  0.0851  0.0519
   32MOL    C15 6277   3.864   0.934   8.393  0.3716 -0.2562  0.1322
   32MOL    C16 6278   3.778   0.977   0.091 -0.0362 -0.1996  0.1093
   32MOL    H17 6279   4.032   1.125   0.101  1.7004  1.9282 -1.0619
   32MOL    H18 6280   4.160   1.106   8.413 -0.8753  0.7321 -0.8599
   32MOL    H19 6281   3.817   0.873   8.318 -1.5490  2.1415 -0.7060
   32MOL    H20 6282   3.835   1.041   0.159 -2.3591 -1.1130  3.0442
   32MOL    H21 6283   3.694   1.025   0.041  0.7404  0.0779 -0.9499
   32MOL    C22 6284   3.709   0.853   0.159 -0.3859  0.0744 -0.2001
   32MOL    C23 6285   3.635   0.865   0.289  0.5990  0.5874  0.7499
   32MOL   Cl24 6286   3.480   0.927   0.270 -0.1526  0.3226  0.2762
   32MOL    C25 6287   3.678   0.806   0.403 -0.3018  0.5497 -0.5675
   32MOL    C26 6288   3.603   0.795   0.537 -0.3999 -0.1530  0.1049
   32MOL    H27 6289   3.640   0.802   0.091  0.6803 -0.3469 -0.9762
   32MOL    H28 6290   3.788   0.778   0.163 -1.0439 -0.6510 -0.5221
   32MOL    H29 6291   3.775   0.760   0.388 -1.2520 -1.2059 -1.5323
   32MOL    H30 6292   3.508   0.848   0.532 -0.1013  0.4650  1.0012
   32MOL    H31 6293   3.583   0.690   0.559 -2.0704  0.4475  1.5692
   32MOL    C32 6294   3.694   0.859   0.648 -0.8239  0.5549 -1.2059
   32MOL    C33 6295   3.663   0.813   0.782  0.0949  0.5693  0.1322
   32MOL   Cl34 6296   3.797   0.818   0.890  0.2657 -0.2976  0.2544
   32MOL    C35 6297   3.540   0.763   0.816 -0.0100 -0.7990  0.3331
   32MOL    C36 6298   3.487   0.720   0.945 -0.5024 -0.2652 -0.3262
   32MOL    H37 6299   3.800   0.845   0.625 -0.4739 -0.6246  1.0167
   32MOL    H38 6300   3.676   0.965   0.630 -0.6088  0.6446 -0.8973
   32MOL    H39 6301   3.467   0.771   0.737  0.9480  0.6129 -0.4157
   32MOL    H40 6302   3.559   0.654   0.993 -0.0698  1.2106  1.0593
   32MOL    H41 6303   3.468   0.808   1.006 -1.6664  0.5269 -1.7963
   32MOL    C42 6304   3.367   0.642   0.933  0.5416  0.1580  0.2393
   32MOL    C43 6305   3.300   0.625   1.067  0.4701  0.2467  0.8873
   32MOL   Cl44 6306   3.371   0.496   1.157  0.7613  0.1081 -0.3135
   32MOL    C45 6307   3.196   0.698   1.110  0.1543 -0.4630 -0.1056
   32MOL    C46 6308   3.127   0.819   1.046 -0.1796 -0.4647 -0.1653
   32MOL    H47 6309   3.298   0.698   0.869  0.0614 -0.1137  0.5218
   32MOL    H48 6310   3.385   0.542   0.893 -0.2455  0.3868 -0.7223
   32MOL    H49 6311   3.160   0.662   1.205  3.0973 -3.5539 -0.0578
   32MOL    H50 6312   3.177   0.843   0.952  0.1271  2.1803  0.6347
   32MOL    H51 6313   3.026   0.797   1.012  0.5527 -2.0112 -1.4242
   32MOL    C52 6314   3.125   0.938   1.139  0.5053  0.4672 -0.6855
   32MOL    C53 6315   3.094   1.074   1.084 -0.0974  0.2788  0.2373
   32MOL   Cl54 6316   3.008   1.066   0.932 -0.1419  0.0574  0.4172
   32MOL    C55 6317   3.134   1.191   1.139  0.6696  0.5584  0.4063
   32MOL    C56 6318   3.110   1.329   1.073  0.2597  0.5088  0.0388
   32MOL    H57 6319   3.047   0.917   1.211  2.7322 -2.3883  0.9722
   32MOL    H58 6320   3.220   0.937   1.192  0.5860  1.1599 -0.8017
   32MOL    H59 6321   3.178   1.202   1.237 -0.3382  1.1193  0.8078
   32MOL    H60 6322   3.200   1.390   1.071  0.3329  0.4764  1.7699
   32MOL    H61 6323   3.083   1.311   0.969  1.1811 -1.7796  0.1542
   32MOL    C62 6324   2.983   1.389   1.128  0.8916 -0.1405  0.3363
   32MOL    C63 6325   2.953   1.521   1.069  0.2649  0.7789 -0.3503
   32MOL   Cl64 6326   2.961   1.635   1.196 -0.1668 -0.4921 -0.2424
   32MOL    C65 6327   2.899   1.542   0.952  0.3985 -0.4150 -0.2208
   32MOL    C66 6328   2.856   1.676   0.897 -0.2361  0.1198  0.2113
   32MOL    H67 6329   2.897   1.326   1.107 -0.0730  1.0014  0.7920
   32MOL    H68 6330   2.980   1.393   1.237 -0.7613  1.7613  0.2426
   32MOL    H69 6331   2.878   1.461   0.884  0.0710 -1.3444  0.9704
   32MOL    H70 6332   2.868   1.755   0.971  0.8343 -0.6430  0.8655
   32MOL    H71 6333   2.747   1.681   0.892 -0.0857  1.8572 -2.3816
   32MOL    C72 6334   2.897   1.698   0.749 -0.2802 -0.3253  0.3262
   32MOL    C73 6335   3.046   1.716   0.732  0.5589 -0.1849  0.5178
   32MOL   Cl74 6336   3.099   1.875   0.770 -0.0367  0.2503 -0.0027
   32MOL    C75 6337   3.129   1.623   0.696  0.2893 -0.4562 -0.0672
   32MOL    C76 6338   3.278   1.632   0.686 -0.0615  0.4060  0.5925
   32MOL    H77 6339   2.852   1.782   0.696  0.4461 -1.0805 -1.5363
   32MOL    H78 6340   2.861   1.607   0.701  0.6170 -0.0684 -0.8729
   32MOL    H79 6341   3.086   1.527   0.673  0.9141 -0.2322 -2.2241
   32MOL    H80 6342   3.300   1.735   0.656 -0.4649  0.4337  0.3859
   32MOL    H81 6343   3.315   1.570   0.605  0.3697 -0.0144  1.1147
   32MOL    C82 6344   3.367   1.604   0.816 -0.2139 -0.0768 -0.1465
   32MOL    C83 6345   3.515   1.599   0.784 -0.0414  0.1590 -0.6837
   32MOL   Cl84 6346   3.589   1.475   0.878 -0.0941  0.2747  0.4576
   32MOL    C85 6347   3.574   1.679   0.695  0.3873  0.1158  0.4447
   32MOL    C86 6348   3.723   1.668   0.660  0.0713 -0.1918  0.2716
   32MOL    H87 6349   3.337   1.504   0.848 -0.3157  0.2764  0.8488
   32MOL    H88 6350   3.347   1.671   0.899  1.3485 -1.9338  1.7678
   32MOL    H89 6351   3.513   1.752   0.644 -0.1001  0.7243  1.8922
   32MOL    H90 6352   3.769   1.740   0.727  0.8189  0.6567 -1.1334
   32MOL    H91 6353   3.770   1.572   0.683  1.5378  0.5841  0.5072
   32MOL    C92 6354   3.750   1.695   0.510 -0.0310  0.0146  0.5514
   32MOL    C93 6355   3.727   1.844   0.469 -0.5248 -0.1108  0.0191
   32MOL   Cl94 6356   3.844   1.951   0.528 -0.3988  0.1226  0.1289
   32MOL    C95 6357   3.629   1.883   0.389  0.3120  0.3292 -0.0204
   32MOL    C96 6358   3.505   1.804   0.340  0.3763 -0.2437 -0.4921
   32MOL    H97 6359   3.685   1.633   0.448 -0.8578  1.4192 -0.0210
   32MOL    H98 6360   3.854   1.676   0.483 -0.5703 -0.6054 -1.1742
   32MOL    H99 6361   3.638   1.985   0.355  0.3922  0.9033  1.6718
   32MOL   H100 6362   3.506   1.808   0.231 -0.9929 -1.5194 -0.5741
   32MOL   H101 6363   3.504   1.698   0.366 -1.0087 -0.7411 -2.4512
   32MOL   C102 6364   3.382   1.873   0.404  0.2297 -0.5658  0.5889
   32MOL   C103 6365   3.242   1.805   0.372 -0.3026 -0.4390 -0.2387
   32MOL  Cl104 6366   3.253   1.642   0.312 -0.2504  0.2333 -0.2343
   32MOL   C105 6367   3.126   1.869   0.391  0.3232  0.5911 -0.6149
   32MOL   C106 6368   2.993   1.795   0.382  0.0248  0.0292 -0.4223
   32MOL   H107 6369   3.392   1.898   0.510 -0.4375 -0.2568  0.5776
   32MOL   H108 6370   3.373   1.970   0.355 -0.2995 -0.3621  1.0933
   32MOL   H109 6371   3.134   1.971   0.425 -0.1324  0.4085  0.0341
   32MOL   H110 6372   3.005   1.688   0.372  1.8752  0.1384  0.4777
   32MOL   H111 6373   2.938   1.815   0.474 -1.1849  0.0541 -1.1301
   32MOL   C112 6374   2.907   1.850   0.258 -0.8611  0.5542 -0.6698
   32MOL   C113 6375   2.788   1.760   0.221  0.5246  1.5047 -0.0578
   32MOL  Cl114 6376   2.684   1.744   0.348 -0.1203  0.2203  0.0170
   32MOL   C115 6377   2.753   1.705   0.103 -0.4272 -0.0182 -0.3436
   32MOL   C116 6378   2.836   1.706   8.403  0.2949  0.0947 -0.5407
   32MOL   H117 6379   2.859   1.942   0.294 -1.4548 -0.4122  1.0691
   32MOL   H118 6380   2.971   1.885   0.177  1.1782 -0.1821  0.5854
   32MOL   H119 6381   2.658   1.654   0.102 -0.2474 -0.3615 -0.1045
   32MOL   H120 6382   2.940   1.708   0.015  0.2195  0.8501 -0.3208
   32MOL   H121 6383   2.830   1.795   8.340 -1.4540 -2.0918 -3.6047
   32MOL   C122 6384   2.809   1.585   8.319 -0.2270  0.0915 -0.7041
   32MOL   C123 6385   2.927   1.559   8.230 -0.2082  0.6031  0.2682
   32MOL  Cl124 6386   2.887   1.609   8.071 -0.3039  0.2902 -0.0154
   32MOL   C125 6387   3.048   1.514   8.258  0.0339 -0.6481  0.2804
   32MOL   C126 6388   3.094   1.474   8.398 -0.8029 -0.3028  0.2073
   32MOL   H127 6389   2.800   1.493   8.376  0.2884 -0.0097 -0.7854
   32MOL   H128 6390   2.715   1.600   8.266  0.0215  0.5359 -1.0271
   32MOL   H129 6391   3.127   1.500   8.186  0.7903 -0.9118  1.1446
   32MOL   H130 6392   3.179   1.537   0.004 -1.9887  1.0310  0.9250
   32MOL   H131 6393   3.017   1.496   0.052 -0.3600  0.2269  0.5118
   32MOL   C132 6394   3.143   1.334   8.402 -0.3743  0.8019  0.1066
   32MOL   C133 6395   3.204   1.306   0.117 -0.4037 -0.1777  0.7216
   32MOL  Cl134 6396   3.373   1.330   0.115 -0.0151 -0.1968  0.1775
   32MOL   C135 6397   3.145   1.280   0.234 -0.0315 -0.4483  0.7328
   32MOL   C136 6398   2.997   1.256   0.262  0.1319  0.1668  0.6477
   32MOL   H137 6399   3.062   1.265   8.383  2.0406 -1.7912 -1.1985
   32MOL   H138 6400   3.218   1.319   8.324 -0.7360  0.2917 -0.1434
   32MOL   H139 6401   3.205   1.278   0.324  0.4875 -0.9046  0.3762
   32MOL   H140 6402   2.941   1.237   0.171  1.7518 -0.6537 -0.2016
   32MOL   H141 6403   2.991   1.164   0.320 -2.2629  0.7716  1.3934
   32MOL   C142 6404   2.930   1.366   0.344 -0.0833  0.1493  0.2756
   32MOL   C143 6405   2.799   1.327   0.407  0.2318  1.0021  0.3842
   32MOL  Cl144 6406   2.795   1.360   0.576 -0.0307  0.1116  0.2044
   32MOL   C145 6407   2.695   1.268   0.345  0.0955  0.6362 -0.6319
   32MOL   C146 6408   2.562   1.226   0.400  0.5366  0.1942 -0.6393
   32MOL   H147 6409   2.914   1.459   0.288 -0.2458 -0.6444 -1.0351
   32MOL   H148 6410   2.997   1.396   0.424 -0.1553 -1.7815  1.0843
   32MOL   H149 6411   2.710   1.239   0.242 -0.7713 -0.2614 -0.5024
   32MOL   H150 6412   2.562   1.215   0.509  1.8293 -1.5166 -0.7921
   32MOL   H151 6413   2.493   1.307   0.377  1.1770  0.3797 -1.9842
   32MOL   C152 6414   2.508   1.096   0.335  0.1603 -0.2944  0.1074
   32MOL   C153 6415   2.358   1.079   0.356 -0.2742 -0.0466  0.1134
   32MOL  Cl154 6416   2.315   1.016   0.513  0.3068  0.1891 -0.1885
   32MOL   C155 6417   2.276   1.092   0.254  0.1715 -0.1407  0.1946
   32MOL   C156 6418   2.124   1.065   0.257  0.4867  0.4429  0.5615
   32MOL   H157 6419   2.526   1.092   0.228 -0.7903  0.6210 -0.0962
   32MOL   H158 6420   2.553   1.001   0.362  1.0417  0.2918  0.7008
   32MOL   H159 6421   2.316   1.122   0.158  0.3854  0.6960  0.5433
   32MOL   H160 6422   2.089   1.062   0.361  1.0130  0.1473  0.7339
   32MOL   H161 6423   2.109   0.971   0.204  1.4061 -0.3741  1.7189
   32MOL   C162 6424   2.033   1.172   0.195  0.3833  0.4248  0.1363
   32MOL   C163 6425   2.044   1.309   0.261  0.4083 -0.1374  0.0098
   32MOL  Cl164 6426   2.160   1.407   0.184  0.4369 -0.1948 -0.2294
   32MOL   C165 6427   1.969   1.337   0.370 -0.4753 -0.0472  0.4280
   32MOL   C166 6428   1.972   1.479   0.430 -0.0870  0.2742 -0.7140
   32MOL   H167 6429   2.047   1.190   0.089 -2.8135  4.1034  0.2393
   32MOL   H168 6430   1.930   1.140   0.188  0.6862 -0.4116 -0.5035
   32MOL   H169 6431   1.902   1.262   0.410 -1.6809  2.3637  3.1079
   32MOL   H170 6432   2.039   1.461   0.515 -0.3344  0.3234 -0.5086
   32MOL   H171 6433   2.014   1.563   0.374 -0.3099  0.0954 -1.1502
   32MOL   C172 6434   1.834   1.526   0.483  0.4273  0.4834 -1.2108
   32MOL   C173 6435   1.787   1.463   0.614 -0.4250 -0.3642 -0.3552
   32MOL  Cl174 6436   1.875   1.525   0.752 -0.4154  0.2033  0.3658
   32MOL   C175 6437   1.699   1.367   0.628 -0.3962  0.4270  0.2853
   32MOL   C176 6438   1.661   1.291   0.757  0.3592 -0.1700  0.0542
   32MOL   H177 6439   1.758   1.502   0.409  0.2082 -1.5409 -0.3558
   32MOL   H178 6440   1.830   1.635   0.494  1.4686  0.5010 -0.9503
   32MOL   H179 6441   1.649   1.326   0.542  0.3550 -0.5167  0.2992
   32MOL   H180 6442   1.553   1.285   0.770  0.3231 -1.6985 -0.8599
   32MOL   H181 6443   1.701   1.352   0.838 -2.1682  0.4532  0.8595
   32MOL   C182 6444   1.712   1.147   0.770  0.0730  0.3860 -0.4461
   32MOL   C183 6445   1.686   1.065   0.642  1.0018  0.5088 -0.5598
   32MOL  Cl184 6446   1.831   0.999   0.569  0.3172  0.3236 -0.4720
   32MOL   C185 6447   1.565   1.027   0.603 -0.1282  0.6094  0.4567
   32MOL   C186 6448   1.534   0.949   0.472  0.7737 -0.3720  0.1841
   32MOL   H187 6449   1.820   1.151   0.781 -0.0983 -0.1494  1.6999
   32MOL   H188 6450   1.681   1.089   0.857 -1.1616  2.4151  0.4972
   32MOL   H189 6451   1.488   1.061   0.670  0.3070 -0.7264  1.6573
   32MOL   H190 6452   1.621   0.920   0.413  0.5720  1.0381 -0.8336
   32MOL   H191 6453   1.479   0.858   0.495 -0.6653  0.2386 -0.7669
   32MOL   C192 6454   1.433   1.026   0.392  0.2411 -0.2480  0.0733
   32MOL   C193 6455   1.496   1.157   0.341  0.2295  0.6483 -0.1515
   32MOL  Cl194 6456   1.598   1.138   0.203 -0.2646 -0.1321  0.3388
   32MOL   C195 6457   1.466   1.278   0.382 -0.0734 -0.2664 -0.0325
   32MOL   C196 6458   1.365   1.313   0.497  0.1805 -0.0309 -0.3168
   32MOL   H197 6459   1.347   1.052   0.453  0.8794  0.4186  0.7116
   32MOL   H198 6460   1.394   0.964   0.312  0.7864 -1.5217  0.7849
   32MOL   H199 6461   1.521   1.357   0.332  1.8791 -2.6700 -1.8086
   32MOL   H200 6462   1.273   1.349   0.450  0.8306 -0.6297 -2.1082
   32MOL   H201 6463   1.407   1.394   0.556  0.0497 -0.1580 -0.0482
   32MOL   H202 6464   1.331   1.233   0.563  2.0899 -1.0107 -0.4753
   33MOL     C1 6465   6.251   5.680   1.439  0.2868  0.3312 -0.2398
   33MOL     C2 6466   6.346   5.566   1.472  0.4493  0.0607 -0.1159
   33MOL    Cl3 6467   6.309   5.484   1.616  0.1225  0.0156  0.0152
   33MOL     C4 6468   6.457   5.538   1.406 -0.6078 -0.5111  0.6232
   33MOL     C5 6469   6.507   5.613   1.279  0.3932 -0.2875 -0.2706
   33MOL     H6 6470   6.188   5.709   1.524 -0.1433 -0.7575 -0.1821
   33MOL     H7 6471   6.191   5.650   1.353 -1.9516  0.5698  1.1956
   33MOL     H8 6472   6.519   5.459   1.447 -2.1570 -0.4888  3.1021
   33MOL     H9 6473   6.499   5.546   1.194 -2.2891  0.7668 -0.9187
   33MOL    H10 6474   6.432   5.690   1.261 -1.6369 -1.7561  1.6189
   33MOL    H11 6475   6.305   5.770   1.411  1.2665 -0.0696  0.3484
   33MOL    C12 6476   6.647   5.674   1.294  0.2402 -0.0287 -0.6810
   33MOL    C13 6477   6.701   5.756   1.174 -0.0307 -0.1241 -0.3007
   33MOL   Cl14 6478   6.708   5.923   1.210 -0.0115  0.3142 -0.2845
   33MOL    C15 6479   6.737   5.706   1.054 -0.1915 -0.1067 -0.1747
   33MOL    C16 6480   6.716   5.561   1.014 -0.0862  0.4727  0.0139
   33MOL    H17 6481   6.651   5.726   1.390  2.9669 -1.0230 -0.1928
   33MOL    H18 6482   6.722   5.596   1.307 -0.6997 -0.8369 -0.1136
   33MOL    H19 6483   6.765   5.770   0.972  0.8760 -0.2537  0.0684
   33MOL    H20 6484   6.686   5.495   1.095  0.5537  1.3198  0.9563
   33MOL    H21 6485   6.634   5.559   0.943 -0.3780  1.9611  0.2754
   33MOL    C22 6486   6.851   5.511   0.950  0.2117  0.3040  0.6892
   33MOL    C23 6487   6.833   5.400   0.846 -0.2426  0.4053  0.0881
   33MOL   Cl24 6488   6.782   5.251   0.918  0.4178 -0.1768 -0.0410
   33MOL    C25 6489   6.852   5.414   0.714 -0.1470 -0.3212  0.5548
   33MOL    C26 6490   6.817   5.310   0.607 -0.0620 -0.0743  0.9121
   33MOL    H27 6491   6.902   5.597   0.906 -0.3032  0.4103  0.2887
   33MOL    H28 6492   6.919   5.471   1.024  1.6085  0.9959 -0.2041
   33MOL    H29 6493   6.884   5.506   0.668 -1.1116  0.2568  1.0107
   33MOL    H30 6494   6.910   5.292   0.552  0.5855  1.6370  1.4116
   33MOL    H31 6495   6.806   5.209   0.648 -2.4882  1.1576  3.4166
   33MOL    C32 6496   6.693   5.344   0.527  0.2836 -0.0684 -0.8007
   33MOL    C33 6497   6.671   5.253   0.408  0.1286 -0.2317  0.9007
   33MOL   Cl34 6498   6.722   5.318   0.258  0.3703  0.0834  0.7469
   33MOL    C35 6499   6.597   5.142   0.406  0.0694  0.4046  0.1009
   33MOL    C36 6500   6.557   5.058   0.286 -0.1777  0.5114 -0.3204
   33MOL    H37 6501   6.605   5.337   0.591  2.2245  0.5898  2.0823
   33MOL    H38 6502   6.703   5.446   0.489 -0.3562 -0.5188 -2.2126
   33MOL    H39 6503   6.554   5.112   0.500 -0.5728  1.9334  0.3204
   33MOL    H40 6504   6.507   5.120   0.212  0.0901  1.4511  0.2738
   33MOL    H41 6505   6.646   5.035   0.227 -1.1065 -0.1958 -1.4734
   33MOL    C42 6506   6.492   4.918   0.320 -0.5458 -0.3400  0.1900
   33MOL    C43 6507   6.482   4.830   0.193 -0.1396 -0.3859  0.0526
   33MOL   Cl44 6508   6.601   4.707   0.174  0.0892 -0.4114  0.1470
   33MOL    C45 6509   6.377   4.842   0.107 -0.7971  0.3441  0.2067
   33MOL    C46 6510   6.257   4.935   0.123  0.1536 -0.5081 -0.8531
   33MOL    H47 6511   6.552   4.864   0.393  2.9580 -0.1598 -2.4093
   33MOL    H48 6512   6.395   4.940   0.364 -1.6135 -1.0215 -1.7686
   33MOL    H49 6513   6.377   4.791   0.011  0.8570  0.2097  0.2781
   33MOL    H50 6514   6.169   4.886   0.162  0.2000 -0.5567 -0.8119
   33MOL    H51 6515   6.289   5.018   0.187 -0.6922 -2.5073  2.2902
   33MOL    C52 6516   6.210   4.995   8.413 -0.5789  0.0408 -0.2086
   33MOL    C53 6517   6.315   5.055   8.325 -0.3493 -0.0573 -0.4313
   33MOL   Cl54 6518   6.407   4.945   8.223 -0.2048 -0.1070  0.3656
   33MOL    C55 6519   6.325   5.186   8.305 -0.2430  0.6905  0.1206
   33MOL    C56 6520   6.421   5.254   8.212 -0.2323 -0.1516 -0.1957
   33MOL    H57 6521   6.155   4.921   8.355  0.3331 -0.8626  0.0959
   33MOL    H58 6522   6.132   5.071   0.004 -0.7287 -0.1305 -0.1139
   33MOL    H59 6523   6.265   5.254   8.365 -0.4196 -0.2429  1.0175
   33MOL    H60 6524   6.496   5.312   8.266 -1.5456 -1.0323  2.6452
   33MOL    H61 6525   6.467   5.185   8.142  0.5172 -1.5346  1.6291
   33MOL    C62 6526   6.342   5.355   8.131 -0.5043 -0.7806  0.1787
   33MOL    C63 6527   6.421   5.459   8.062  0.2227 -0.8504  0.4547
   33MOL   Cl64 6528   6.376   5.619   8.080  0.2666  0.1660 -0.0747
   33MOL    C65 6529   6.530   5.427   7.986  0.3223  0.4704  0.0891
   33MOL    C66 6530   6.623   5.523   7.908 -0.3280 -0.4525  0.2787
   33MOL    H67 6531   6.298   5.309   8.042  1.1573 -0.5071 -0.8010
   33MOL    H68 6532   6.263   5.398   8.191 -1.2163 -1.2061 -0.4408
   33MOL    H69 6533   6.560   5.324   7.976  2.1852  0.8057  2.0566
   33MOL    H70 6534   6.599   5.625   7.937  0.6894  0.1383 -0.8831
   33MOL    H71 6535   6.618   5.510   7.800 -1.1551 -1.0370  0.3895
   33MOL    C72 6536   6.766   5.493   7.939 -0.3668  0.4090 -0.5118
   33MOL    C73 6537   6.863   5.583   7.876  0.9874  0.5177 -0.1888
   33MOL   Cl74 6538   6.926   5.516   7.726  0.3273 -0.2196 -0.0118
   33MOL    C75 6539   6.887   5.711   7.923  0.5689 -0.0606  0.7232
   33MOL    C76 6540   6.972   5.818   7.854  0.6156 -0.1257  0.0620
   33MOL    H77 6541   6.797   5.392   7.911  0.1720  0.6698 -0.8818
   33MOL    H78 6542   6.770   5.497   8.048  1.0544  2.3804 -0.5943
   33MOL    H79 6543   6.837   5.737   8.015 -0.4093 -0.9280  0.4489
   33MOL    H80 6544   7.015   5.772   7.765 -0.9455 -1.5624  0.0312
   33MOL    H81 6545   7.062   5.846   7.910  1.4549 -1.8377 -0.4045
   33MOL    C82 6546   6.889   5.946   7.832  0.0878  0.6368 -0.0122
   33MOL    C83 6547   6.953   6.039   7.728 -0.0807  0.4707  0.6397
   33MOL   Cl84 6548   6.962   5.964   7.574  0.2289 -0.3255  0.4784
   33MOL    C85 6549   7.017   6.155   7.756 -0.2290  0.0649 -0.6594
   33MOL    C86 6550   7.076   6.252   7.660 -0.1511  0.2959  0.7796
   33MOL    H87 6551   6.855   6.003   7.918  0.5805 -2.5347  2.3479
   33MOL    H88 6552   6.796   5.914   7.784  0.6238 -0.4748 -0.3419
   33MOL    H89 6553   7.018   6.182   7.861  1.4275  0.6088 -0.7921
   33MOL    H90 6554   7.075   6.212   7.559  2.2177 -0.7133  1.1308
   33MOL    H91 6555   7.021   6.347   7.663  1.8809  1.5154  0.1206
   33MOL    C92 6556   7.222   6.298   7.707  0.6362  0.2759  0.7892
   33MOL    C93 6557   7.329   6.186   7.692 -0.4581 -0.1289  0.1048
   33MOL   Cl94 6558   7.383   6.164   7.534  0.1712  0.0091  0.3361
   33MOL    C95 6559   7.385   6.130   7.801  0.5428 -0.6982 -0.6656
   33MOL    C96 6560   7.354   6.146   7.943 -0.3909 -0.4081  0.4780
   33MOL    H97 6561   7.208   6.350   7.801 -0.2144  0.6921  0.4400
   33MOL    H98 6562   7.255   6.389   7.656  0.5655  0.1591  0.5315
   33MOL    H99 6563   7.470   6.066   7.784  0.0333 -1.2322 -1.2536
   33MOL   H100 6564   7.446   6.151   8.001 -0.1565 -0.0638  0.0872
   33MOL   H101 6565   7.308   6.245   7.952 -1.2605 -0.9123  1.7590
   33MOL   C102 6566   7.267   6.040   8.006  0.1646  0.6418 -0.1177
   33MOL   C103 6567   7.216   6.077   8.147 -0.0888 -0.1704  0.6040
   33MOL  Cl104 6568   7.052   6.124   8.153  0.0852  0.0830 -0.3409
   33MOL   C105 6569   7.290   6.078   8.260 -0.1097  0.9159 -0.3145
   33MOL   C106 6570   7.240   6.109   8.394  0.5217 -0.4107 -0.0883
   33MOL   H107 6571   7.176   6.031   7.946 -0.0135 -1.1698  0.3772
   33MOL   H108 6572   7.307   5.938   8.010 -1.7721 -0.1499 -0.1856
   33MOL   H109 6573   7.393   6.047   8.249 -0.0155  1.8238 -2.1943
   33MOL   H110 6574   7.188   6.205   8.382  2.3207  0.6296  0.2942
   33MOL   H111 6575   7.183   6.026   0.014  1.2629 -0.3536  1.0746
   33MOL   C112 6576   7.356   6.118   0.072  0.0951 -0.0087  0.1896
   33MOL   C113 6577   7.303   6.144   0.211  0.4130 -0.3963  0.0252
   33MOL  Cl114 6578   7.295   6.006   0.310  0.0724  0.4929  0.2126
   33MOL   C115 6579   7.269   6.266   0.267 -0.1337  0.6428  0.4276
   33MOL   C116 6580   7.272   6.394   0.192 -0.4757  0.0128 -0.4824
   33MOL   H117 6581   7.417   6.028   0.066  1.5787  0.8633  1.6894
   33MOL   H118 6582   7.427   6.190   0.029 -0.0926 -0.9212 -1.7037
   33MOL   H119 6583   7.225   6.262   0.365  1.3402  0.2344  1.0766
   33MOL   H120 6584   7.183   6.455   0.211  1.9818  3.8143 -0.6363
   33MOL   H121 6585   7.278   6.383   0.084  0.0551  1.0476 -0.5618
   33MOL   C122 6586   7.386   6.486   0.228 -0.3358 -0.3182 -0.3546
   33MOL   C123 6587   7.399   6.606   0.136  0.1171  0.4302  0.4928
   33MOL  Cl124 6588   7.331   6.742   0.208 -0.0272 -0.3482  0.1255
   33MOL   C125 6589   7.460   6.615   0.016 -0.3990  0.2250  0.4127
   33MOL   C126 6590   7.519   6.500   8.355 -0.2937 -0.1270 -0.2538
   33MOL   H127 6591   7.394   6.512   0.334  3.6565  0.7250 -0.8406
   33MOL   H128 6592   7.477   6.430   0.206 -0.8290 -0.2937 -2.5610
   33MOL   H129 6593   7.466   6.709   8.386 -0.0123 -0.8113 -1.5082
   33MOL   H130 6594   7.496   6.397   8.383  1.4710 -0.8338 -1.3194
   33MOL   H131 6595   7.488   6.510   8.251 -1.4691  3.5956  0.3684
   33MOL   C132 6596   7.675   6.518   8.352  0.0685 -0.3689  0.2432
   33MOL   C133 6597   7.742   6.395   8.302 -0.3822 -0.4163 -0.2571
   33MOL  Cl134 6598   7.672   6.323   8.162  0.6060 -0.1601  0.4687
   33MOL   C135 6599   7.848   6.326   8.342  0.2581 -0.2349 -0.5842
   33MOL   C136 6600   7.935   6.364   0.035 -0.1286 -0.0996 -0.3044
   33MOL   H137 6601   7.712   6.606   8.300  1.5511 -2.3225 -2.1237
   33MOL   H138 6602   7.702   6.539   0.035  1.8055  0.0155 -0.2639
   33MOL   H139 6603   7.874   6.239   8.283 -0.4055 -0.8569  0.0240
   33MOL   H140 6604   8.035   6.319   0.029 -0.6538 -0.8869 -4.6809
   33MOL   H141 6605   7.961   6.469   0.023  0.7040 -0.1966  0.5753
   33MOL   C142 6606   7.876   6.319   0.170  0.1350  0.3929 -0.0512
   33MOL   C143 6607   7.959   6.364   0.295 -0.1923  0.7144  0.3883
   33MOL  Cl144 6608   7.894   6.508   0.351 -0.0252 -0.3008  0.0254
   33MOL   C145 6609   8.060   6.289   0.342 -0.4511 -0.0140 -0.3008
   33MOL   C146 6610   8.155   6.321   0.456 -0.5959 -0.9580  0.4401
   33MOL   H147 6611   7.879   6.210   0.175 -1.6839  0.2467 -1.6243
   33MOL   H148 6612   7.770   6.344   0.169  0.3071  1.1234 -1.9036
   33MOL   H149 6613   8.074   6.198   0.286 -1.1469  0.1825 -0.8006
   33MOL   H150 6614   8.257   6.305   0.420 -1.1862 -0.4536 -1.5132
   33MOL   H151 6615   8.145   6.425   0.484 -1.2912 -0.9375  0.1162
   33MOL   C152 6616   8.119   6.242   0.581  0.1279  0.0309  0.3167
   33MOL   C153 6617   8.231   6.239   0.675  0.5557  0.0488  0.3339
   33MOL  Cl154 6618   8.342   6.112   0.644  0.1482 -0.0874  0.1680
   33MOL   C155 6619   8.254   6.328   0.773 -0.2202 -0.0074 -0.0953
   33MOL   C156 6620   8.358   6.316   0.881  0.5710 -0.0763  0.2490
   33MOL   H157 6621   8.031   6.291   0.622 -1.0204  0.2180 -2.3426
   33MOL   H158 6622   8.088   6.140   0.561 -1.7724  0.5304  0.6857
   33MOL   H159 6623   8.194   6.416   0.794  1.7398  1.0962  1.0326
   33MOL   H160 6624   0.007   6.234   0.861 -0.4963 -1.5793  2.4361
   33MOL   H161 6625   8.299   6.298   0.970  0.5999  1.3024  0.5467
   33MOL   C162 6626   0.009   6.449   0.905 -0.2240 -0.1942  0.6076
   33MOL   C163 6627   0.102   6.441   1.023 -0.6285  0.6631 -0.3271
   33MOL  Cl164 6628   0.032   6.462   1.183  0.2170  0.0553 -0.1158
   33MOL   C165 6629   0.230   6.419   1.008 -0.2357  0.9022  0.4237
   33MOL   C166 6630   0.335   6.398   1.125  0.3646  0.0621 -0.1647
   33MOL   H167 6631   0.068   6.477   0.818 -0.4659  3.1017  1.4374
   33MOL   H168 6632   8.354   6.528   0.912 -2.1566 -2.0105  0.5610
   33MOL   H169 6633   0.270   6.405   0.908 -1.6524  0.3548 -0.0757
   33MOL   H170 6634   0.284   6.412   1.221 -0.1263  1.2469 -0.6016
   33MOL   H171 6635   0.361   6.293   1.113  1.4591  0.2527  0.4649
   33MOL   C172 6636   0.458   6.499   1.121 -0.2109 -0.1978  0.1310
   33MOL   C173 6637   0.566   6.479   1.229  0.0980  0.0680  0.3692
   33MOL  Cl174 6638   0.704   6.572   1.184  0.1408 -0.0463  0.1123
   33MOL   C175 6639   0.552   6.432   1.353 -0.4865 -0.4253 -0.3040
   33MOL   C176 6640   0.666   6.430   1.456  0.1437  0.0118  0.4368
   33MOL   H177 6641   0.421   6.601   1.130  0.6574  0.2641 -1.2445
   33MOL   H178 6642   0.511   6.492   1.026  0.5435  0.9599  0.4523
   33MOL   H179 6643   0.460   6.387   1.387 -2.4328  2.0403 -2.0860
   33MOL   H180 6644   0.619   6.490   1.533 -1.4680  0.9587 -1.2385
   33MOL   H181 6645   0.755   6.487   1.428  0.0504 -0.2332 -0.3845
   33MOL   C182 6646   0.712   6.287   1.483  0.0226 -0.2929 -0.1352
   33MOL   C183 6647   0.828   6.282   1.580 -0.3731 -0.2641 -0.5261
   33MOL  Cl184 6648   0.893   6.118   1.568  0.3384  0.0844 -0.3034
   33MOL   C185 6649   0.881   6.385   1.647  0.5196  0.1652 -0.1340
   33MOL   C186 6650   0.993   6.379   1.745 -0.8949  0.7779  0.5675
   33MOL   H187 6651   0.631   6.216   1.499 -0.6849  0.2380 -1.2850
   33MOL   H188 6652   0.753   6.245   1.391 -0.9639  0.1351 -0.7818
   33MOL   H189 6653   0.848   6.488   1.643  0.4865  0.2148  1.1536
   33MOL   H190 6654   0.955   6.412   1.842 -1.3067 -0.5502  0.8617
   33MOL   H191 6655   1.032   6.281   1.771 -1.4715  0.5028  0.3981
   33MOL   C192 6656   1.098   6.482   1.710 -0.3133  0.1264 -0.2497
   33MOL   C193 6657   1.229   6.473   1.785 -0.9051  0.2358 -0.3135
   33MOL  Cl194 6658   1.208   6.534   1.945  0.3952  0.1223  0.1609
   33MOL   C195 6659   1.343   6.419   1.743 -0.3410  0.5744  0.5699
   33MOL   C196 6660   1.362   6.361   1.611  0.3884  0.8105  0.6133
   33MOL   H197 6661   1.064   6.586   1.720 -0.7527  0.0236 -0.6200
   33MOL   H198 6662   1.118   6.484   1.603 -2.0541  0.7266 -0.5957
   33MOL   H199 6663   1.425   6.411   1.813 -0.8093 -0.6843  0.9887
   33MOL   H200 6664   1.268   6.333   1.564  1.3801  0.3934 -1.1749
   33MOL   H201 6665   1.407   6.261   1.615 -0.9264  0.2394  1.6043
   33MOL   H202 6666   1.423   6.415   1.538 -0.6790  0.2605 -0.6997
   34MOL     C1 6667   0.238   3.222   5.570  0.1359 -0.3037  0.0338
   34MOL     C2 6668   0.190   3.112   5.479 -0.0325  0.2631 -0.0307
   34MOL    Cl3 6669   0.309   2.988   5.471 -0.2811  0.5785 -0.3343
   34MOL     C4 6670   0.076   3.098   5.409 -0.3959 -0.0961 -0.1632
   34MOL     C5 6671   8.385   3.205   5.413  0.0971  0.5596 -0.1205
   34MOL     H6 6672   0.242   3.312   5.509 -1.3956  0.1974  0.6513
   34MOL     H7 6673   0.334   3.208   5.618 -0.9515 -2.2381  1.7449
   34MOL     H8 6674   0.051   3.021   5.338 -1.5478  1.4489 -1.4540
   34MOL     H9 6675   8.409   3.282   5.486  1.7519 -2.3911  2.5615
   34MOL    H10 6676   8.370   3.246   5.313  2.8270 -0.2505 -0.8931
   34MOL    H11 6677   0.159   3.245   5.642 -0.8890 -1.2200 -0.7710
   34MOL    C12 6678   8.245   3.136   5.441 -0.2073  0.1344 -0.2692
   34MOL    C13 6679   8.123   3.225   5.437 -0.4725 -0.4630 -0.0809
   34MOL   Cl14 6680   8.014   3.186   5.303 -0.2506 -0.0418 -0.4914
   34MOL    C15 6681   8.101   3.327   5.520  0.3767 -0.6236  0.2613
   34MOL    C16 6682   8.180   3.377   5.639 -0.4934 -0.6386  0.0884
   34MOL    H17 6683   8.222   3.055   5.372  0.8269 -0.1479 -0.2799
   34MOL    H18 6684   8.260   3.092   5.540  3.3393 -1.0297 -1.2368
   34MOL    H19 6685   8.008   3.378   5.501  0.4350 -0.5113  0.2756
   34MOL    H20 6686   8.131   3.367   5.736  1.6665  0.5245  1.3457
   34MOL    H21 6687   8.258   3.305   5.664  0.1009 -0.5794 -1.5329
   34MOL    C22 6688   8.242   3.521   5.623 -0.6672  0.7042 -0.3128
   34MOL    C23 6689   8.374   3.540   5.687 -0.1881 -0.3661  0.4803
   34MOL   Cl24 6690   0.061   3.593   5.566  0.0341 -0.1971 -0.2165
   34MOL    C25 6691   8.406   3.511   5.811  0.0901 -0.2061 -0.3362
   34MOL    C26 6692   0.125   3.530   5.873  0.2156 -0.2075 -0.1932
   34MOL    H27 6693   8.252   3.546   5.517  0.5544 -0.4701 -0.4854
   34MOL    H28 6694   8.176   3.592   5.672  2.1430  1.6840  2.1623
   34MOL    H29 6695   8.330   3.478   5.880 -0.7029 -0.2691 -1.2360
   34MOL    H30 6696   0.188   3.581   5.800 -0.5608 -0.0884 -0.7790
   34MOL    H31 6697   0.113   3.600   5.956 -0.1682 -0.2383 -0.2213
   34MOL    C32 6698   0.202   3.403   5.921  0.4344  0.1966  0.2573
   34MOL    C33 6699   0.138   3.344   6.041 -0.3017  0.7027  0.0777
   34MOL   Cl34 6700   0.058   3.203   5.981  0.2165 -0.0026 -0.1543
   34MOL    C35 6701   0.157   3.381   6.171 -0.0661 -0.0511 -0.0877
   34MOL    C36 6702   0.107   3.293   6.284 -0.4844  0.4560  0.1297
   34MOL    H37 6703   0.213   3.333   5.839 -0.5125 -0.1292  0.4021
   34MOL    H38 6704   0.308   3.414   5.945  0.6024  0.2498 -0.4823
   34MOL    H39 6705   0.218   3.465   6.202  0.9299 -1.1009  0.8023
   34MOL    H40 6706   0.059   3.354   6.360  1.3945  0.4356  1.3778
   34MOL    H41 6707   0.050   3.216   6.233  3.7780 -1.5169 -1.9406
   34MOL    C42 6708   0.230   3.227   6.364  0.4588 -0.2330  0.6095
   34MOL    C43 6709   0.175   3.117   6.452 -0.4939  0.6502 -0.0779
   34MOL   Cl44 6710   0.175   2.964   6.372 -0.0611 -0.3402 -0.2422
   34MOL    C45 6711   0.135   3.133   6.582 -1.1713  0.2363  0.4825
   34MOL    C46 6712   0.137   3.257   6.674 -0.4553 -0.3534  0.2846
   34MOL    H47 6713   0.302   3.183   6.295 -1.5184  2.8203 -3.6146
   34MOL    H48 6714   0.276   3.309   6.418 -1.8100  0.2011  1.9299
   34MOL    H49 6715   0.094   3.048   6.635 -1.7604  1.3546  1.8356
   34MOL    H50 6716   0.181   3.227   6.769  1.1227  0.4607 -0.1685
   34MOL    H51 6717   0.193   3.344   6.638 -0.9396  0.0289  0.4359
   34MOL    C52 6718   8.416   3.312   6.709 -0.5096  0.3650 -0.1671
   34MOL    C53 6719   8.412   3.370   6.849 -0.1746 -0.8194  0.0075
   34MOL   Cl54 6720   8.269   3.326   6.924  0.1864  0.2064 -0.2237
   34MOL    C55 6721   0.090   3.431   6.919 -0.4046  0.0604  0.5905
   34MOL    C56 6722   0.089   3.473   7.064  0.3540 -0.1727 -0.3870
   34MOL    H57 6723   8.382   3.382   6.633  0.4450 -0.4540 -1.3856
   34MOL    H58 6724   8.344   3.230   6.714 -0.1070  0.1012  1.8182
   34MOL    H59 6725   0.178   3.455   6.861 -0.3457 -2.4052 -0.4266
   34MOL    H60 6726   0.139   3.570   7.065  1.0373 -0.5307  0.3807
   34MOL    H61 6727   8.408   3.508   7.084  0.1938 -1.1192  0.4381
   34MOL    C62 6728   0.159   3.381   7.158  0.0039  0.0290 -0.5840
   34MOL    C63 6729   0.070   3.270   7.220  0.4423 -0.2854  1.0777
   34MOL   Cl64 6730   0.126   3.114   7.169  0.1299  0.2932  0.3053
   34MOL    C65 6731   8.384   3.296   7.299  0.0526 -0.3335  0.7580
   34MOL    C66 6732   8.291   3.193   7.359  0.0655  1.1694 -0.1244
   34MOL    H67 6733   0.254   3.349   7.115  0.4816  1.4371 -0.6293
   34MOL    H68 6734   0.197   3.439   7.242  0.6202 -1.1464 -0.0461
   34MOL    H69 6735   8.369   3.399   7.327  2.7805 -0.0597  1.3778
   34MOL    H70 6736   8.311   3.197   7.466  3.1534 -0.1273 -0.6017
   34MOL    H71 6737   8.334   3.100   7.322 -1.1450 -0.6697  2.8816
   34MOL    C72 6738   8.149   3.201   7.310  0.0498 -0.3942  0.3088
   34MOL    C73 6739   8.067   3.317   7.375 -0.6794  0.1972 -0.3370
   34MOL   Cl74 6740   8.042   3.461   7.283  0.7951  0.2660  0.1984
   34MOL    C75 6741   8.016   3.309   7.500 -0.5339  0.0792  0.2555
   34MOL    C76 6742   7.954   3.422   7.575  0.3722  0.9724  0.2097
   34MOL    H77 6743   8.089   3.111   7.322 -2.4053  1.3947  1.9303
   34MOL    H78 6744   8.144   3.229   7.204  1.4669 -2.1529 -0.2431
   34MOL    H79 6745   8.038   3.218   7.554  1.7571 -0.8918 -2.2254
   34MOL    H80 6746   7.852   3.386   7.582  0.6799  0.0498  0.1219
   34MOL    H81 6747   7.954   3.513   7.514  2.3431  0.9177  0.0964
   34MOL    C82 6748   8.017   3.445   7.714 -0.4338 -0.0083  0.0870
   34MOL    C83 6749   7.989   3.585   7.781  0.2254 -0.0881  0.3256
   34MOL   Cl84 6750   8.077   3.602   7.930  0.0816  0.1352 -0.0070
   34MOL    C85 6751   7.903   3.679   7.728 -0.1710  0.2169  0.1187
   34MOL    C86 6752   7.862   3.808   7.796  0.0553  0.0703  0.0711
   34MOL    H87 6753   8.126   3.445   7.712 -0.4393 -0.0182 -0.2590
   34MOL    H88 6754   7.991   3.362   7.780 -1.2591  1.0286  1.0761
   34MOL    H89 6755   7.850   3.658   7.636 -1.1937 -0.6269  0.8787
   34MOL    H90 6756   7.753   3.809   7.786  0.1130  2.0747 -0.4325
   34MOL    H91 6757   7.879   3.801   7.904  0.5837 -1.1846 -0.0781
   34MOL    C92 6758   7.916   3.938   7.723  0.6979 -0.7887  0.4299
   34MOL    C93 6759   7.875   4.068   7.788  0.3442  0.2801  0.3721
   34MOL   Cl94 6760   7.824   4.056   7.959 -0.1597  0.0390  0.0532
   34MOL    C95 6761   7.883   4.195   7.733 -0.3102  0.1025 -0.4150
   34MOL    C96 6762   7.929   4.230   7.591 -0.5205 -0.3508 -0.2151
   34MOL    H97 6763   7.882   3.932   7.619 -1.1098  0.3657  0.9412
   34MOL    H98 6764   8.025   3.946   7.721  0.6231  0.2684  0.1986
   34MOL    H99 6765   7.859   4.285   7.788  0.5451  0.4120 -0.5377
   34MOL   H100 6766   7.997   4.155   7.552  1.8624  1.5751  0.1080
   34MOL   H101 6767   7.845   4.205   7.527 -1.9295 -1.7203  2.1198
   34MOL   C102 6768   7.983   4.372   7.570  0.8429  0.5436  0.9962
   34MOL   C103 6769   8.083   4.390   7.459  0.0856  0.3722 -0.5611
   34MOL  Cl104 6770   8.190   4.524   7.498  0.0825  0.0655 -0.2234
   34MOL   C105 6771   8.094   4.302   7.358  0.5367 -0.0733 -0.0296
   34MOL   C106 6772   8.207   4.302   7.252  0.4129  0.3188  0.2223
   34MOL   H107 6773   7.906   4.446   7.548  1.4897  0.8654 -0.2271
   34MOL   H108 6774   8.041   4.404   7.657  2.3112 -0.4802  0.4050
   34MOL   H109 6775   8.014   4.230   7.350  0.2631  0.0478  1.3924
   34MOL   H110 6776   8.247   4.402   7.243 -0.6096  0.7766  0.7020
   34MOL   H111 6777   8.291   4.249   7.298  1.7896  2.1241 -0.2014
   34MOL   C112 6778   8.163   4.240   7.117  0.2041  0.1623  0.1027
   34MOL   C113 6779   8.266   4.253   7.010  0.2306 -0.0752 -0.7924
   34MOL  Cl114 6780   8.225   4.384   6.902 -0.1869 -0.0474 -0.1308
   34MOL   C115 6781   8.383   4.187   7.022 -0.7079  0.2831 -0.1298
   34MOL   C116 6782   0.005   4.088   7.129  0.2082 -0.2105 -0.2949
   34MOL   H117 6783   8.129   4.136   7.120  1.2281 -0.1969 -0.5182
   34MOL   H118 6784   8.079   4.293   7.073 -0.2884 -0.6698  0.0298
   34MOL   H119 6785   0.033   4.203   6.943 -1.5350  2.6694 -0.4433
   34MOL   H120 6786   0.049   4.010   7.067  2.3020  0.2896  0.4860
   34MOL   H121 6787   8.346   4.034   7.180 -0.8765  0.6819 -1.0242
   34MOL   C122 6788   0.112   4.136   7.236 -0.1840 -0.2068 -0.0055
   34MOL   C123 6789   0.145   4.026   7.337  0.2423 -0.2788  0.3284
   34MOL  Cl124 6790   0.180   3.870   7.269 -0.4649  0.4223 -0.2991
   34MOL   C125 6791   0.130   4.035   7.471  0.5331  0.0279 -0.1681
   34MOL   C126 6792   0.085   4.156   7.546  0.2658  0.2569 -0.0412
   34MOL   H127 6793   0.206   4.166   7.188  0.4059  1.3675  2.0507
   34MOL   H128 6794   0.079   4.223   7.292 -2.2821 -0.5121 -0.7367
   34MOL   H129 6795   0.150   3.944   7.525  3.0968  0.4468 -0.3740
   34MOL   H130 6796   0.150   4.234   7.506  0.2662  0.0554 -0.4354
   34MOL   H131 6797   8.410   4.195   7.513 -0.4855  0.3411  2.1872
   34MOL   C132 6798   0.095   4.126   7.689 -0.2150  0.8761  0.1762
   34MOL   C133 6799   0.078   4.253   7.775  0.0213  0.2772 -0.0463
   34MOL  Cl134 6800   0.228   4.339   7.773 -0.1496 -0.2340  0.1845
   34MOL   C135 6801   8.398   4.296   7.856  0.0300 -0.2824 -0.5449
   34MOL   C136 6802   8.263   4.237   7.858 -0.4514 -0.3497 -0.1379
   34MOL   H137 6803   0.023   4.049   7.716  0.5819 -0.7249 -2.0481
   34MOL   H138 6804   0.190   4.074   7.701 -1.1452 -1.0775 -0.7281
   34MOL   H139 6805   0.005   4.375   7.924 -0.5036 -0.7271  0.2077
   34MOL   H140 6806   8.192   4.319   7.848  0.2595  0.0316 -2.4190
   34MOL   H141 6807   8.259   4.167   7.775  0.5834 -1.0287  0.3824
   34MOL   C142 6808   8.224   4.169   7.987 -0.5287 -0.1964 -0.0506
   34MOL   C143 6809   8.326   4.063   8.031 -0.0484  0.4795 -0.2051
   34MOL  Cl144 6810   8.267   3.907   7.983  0.1002  0.2913  0.1313
   34MOL   C145 6811   0.022   4.086   8.092 -0.8866  0.1975  0.7536
   34MOL   C146 6812   0.135   3.982   8.121 -0.5503  0.5596  0.3693
   34MOL   H147 6813   8.122   4.130   7.979 -0.6948  0.3237 -0.4820
   34MOL   H148 6814   8.232   4.244   8.066  0.7783  1.0810 -1.3662
   34MOL   H149 6815   0.047   4.184   8.128  1.9584 -0.1571 -0.1379
   34MOL   H150 6816   0.169   3.999   8.223  0.2054 -0.9323  0.3728
   34MOL   H151 6817   0.088   3.884   8.116  0.5688  0.0903 -1.2129
   34MOL   C152 6818   0.258   3.999   8.035 -0.1280 -0.4402  1.0435
   34MOL   C153 6819   0.375   3.910   8.074 -0.5741  0.2528  0.1040
   34MOL  Cl154 6820   0.476   3.996   8.178 -0.4955 -0.1375 -0.2656
   34MOL   C155 6821   0.395   3.777   8.053  0.4874 -0.1042 -0.1895
   34MOL   C156 6822   0.502   3.685   8.112  0.3108 -0.5634 -0.0788
   34MOL   H157 6823   0.247   3.977   7.928  0.2937  1.7290  0.5324
   34MOL   H158 6824   0.296   4.101   8.028  0.7345 -0.7975  0.4045
   34MOL   H159 6825   0.326   3.728   7.985 -1.6261  1.1015  1.0423
   34MOL   H160 6826   0.532   3.722   8.210 -0.9747  2.1058 -0.6542
   34MOL   H161 6827   0.588   3.704   8.048 -0.8547 -0.1628 -1.5483
   34MOL   C162 6828   0.469   3.532   8.108 -0.1304 -0.6883  0.0697
   34MOL   C163 6829   0.589   3.433   8.098  0.6910 -0.0307  0.5571
   34MOL  Cl164 6830   0.560   3.305   7.983  0.2726 -0.0429  0.0982
   34MOL   C165 6831   0.700   3.446   8.177  0.3213 -0.2825  0.9780
   34MOL   C166 6832   0.814   3.345   8.170 -0.1066 -0.0602 -0.4043
   34MOL   H167 6833   0.398   3.520   8.190 -0.4970  1.0251  0.0240
   34MOL   H168 6834   0.413   3.527   8.015 -2.3719  2.3429  1.1590
   34MOL   H169 6835   0.712   3.527   8.248 -0.7560  0.9303 -0.2036
   34MOL   H170 6836   0.773   3.247   8.147 -0.3636 -0.2231  0.6923
   34MOL   H171 6837   0.880   3.368   8.087 -1.4944 -0.1235 -1.5281
   34MOL   C172 6838   0.911   3.345   8.295  0.3204  0.5218  0.8440
   34MOL   C173 6839   1.040   3.267   8.274  0.1701 -0.6282 -0.3169
   34MOL  Cl174 6840   1.170   3.340   8.359  0.2146  0.5329  0.0482
   34MOL   C175 6841   1.043   3.154   8.204  0.5378  0.2923  0.2833
   34MOL   C176 6842   1.170   3.068   8.170  0.1450 -0.0712  0.3372
   34MOL   H177 6843   0.851   3.316   8.381  0.2297  1.6181  1.1586
   34MOL   H178 6844   0.937   3.446   8.325  1.1560 -0.2706  2.9070
   34MOL   H179 6845   0.952   3.117   8.159  2.3273 -2.3322 -1.3199
   34MOL   H180 6846   1.144   2.965   8.196  1.2447 -1.3307 -3.2114
   34MOL   H181 6847   1.248   3.097   8.241 -0.4006 -0.7290  1.2241
   34MOL   C182 6848   1.211   3.081   8.026 -0.2543  0.5976 -0.0178
   34MOL   C183 6849   1.099   3.050   7.927 -1.5156  0.5399 -0.2366
   34MOL  Cl184 6850   1.055   2.883   7.920 -0.4028  0.1851 -0.1904
   34MOL   C185 6851   1.042   3.146   7.852  0.0074 -0.6297  1.0346
   34MOL   C186 6852   0.929   3.130   7.749  0.2152 -0.0371  0.1553
   34MOL   H187 6853   1.257   3.180   8.016 -0.1459  0.5234 -0.2579
   34MOL   H188 6854   1.291   3.008   8.018  1.2650  2.3524 -1.3167
   34MOL   H189 6855   1.077   3.248   7.862 -3.6298  0.8737 -0.8468
   34MOL   H190 6856   0.980   3.164   7.659  1.0514  0.7571  0.9273
   34MOL   H191 6857   0.897   3.026   7.737 -2.3745  0.7742 -0.3171
   34MOL   C192 6858   0.807   3.210   7.786 -0.0561 -0.7580 -0.2143
   34MOL   C193 6859   0.706   3.220   7.671  0.4915  0.2701  0.5280
   34MOL  Cl194 6860   0.762   3.326   7.546  0.0534  0.3250 -0.1030
   34MOL   C195 6861   0.590   3.164   7.656 -1.1524  0.1525  0.2951
   34MOL   C196 6862   0.509   3.076   7.747 -0.2291  0.1098 -0.3388
   34MOL   H197 6863   0.832   3.314   7.808 -1.8440  0.0080 -1.6771
   34MOL   H198 6864   0.757   3.173   7.876 -2.1066  0.5946 -0.7510
   34MOL   H199 6865   0.542   3.182   7.560  0.4449 -1.0718 -0.7556
   34MOL   H200 6866   0.496   2.974   7.711 -2.9495  0.1283  0.4906
   34MOL   H201 6867   0.419   3.132   7.773  0.9007  0.5545  2.8344
   34MOL   H202 6868   0.557   3.067   7.844  0.6037 -0.6120 -0.8186
   35MOL     C1 6869   7.963   7.505   4.929  0.6919 -0.1612 -0.0706
   35MOL     C2 6870   7.915   7.633   4.992  0.0824  0.7288  0.2788
   35MOL    Cl3 6871   7.751   7.613   5.050 -0.3392 -0.2921 -0.1178
   35MOL     C4 6872   7.978   7.748   4.997 -0.0981  0.8135 -0.4247
   35MOL     C5 6873   8.110   7.789   4.938  0.4051  0.3365 -0.5683
   35MOL     H6 6874   8.025   7.439   4.991  0.8806 -1.2282 -1.3676
   35MOL     H7 6875   7.999   7.520   4.827 -1.2066  0.5930 -0.6543
   35MOL     H8 6876   7.932   7.831   5.048 -1.0831 -1.1267  2.0043
   35MOL     H9 6877   8.185   7.819   5.012  0.7957  1.6354 -1.4824
   35MOL    H10 6878   8.161   7.706   4.889 -0.2121  0.3270 -1.1910
   35MOL    H11 6879   7.881   7.434   4.914  2.9101 -3.0938  1.1147
   35MOL    C12 6880   8.087   7.908   4.843 -0.0538  0.1297  0.2693
   35MOL    C13 6881   8.003   7.884   4.722  0.0559 -0.0285  0.0057
   35MOL   Cl14 6882   8.088   7.793   4.601  0.2741  0.0438 -0.1500
   35MOL    C15 6883   7.873   7.914   4.701  0.3428  0.1215  0.1420
   35MOL    C16 6884   7.777   7.974   4.800 -0.6587  0.7593 -0.0330
   35MOL    H17 6885   8.053   7.999   4.892 -2.2920 -0.6649  0.2749
   35MOL    H18 6886   8.185   7.930   4.800 -0.8259  0.2284 -1.4706
   35MOL    H19 6887   7.812   7.886   4.616 -1.0118 -0.0660  1.1530
   35MOL    H20 6888   7.743   7.894   4.866  1.3858  0.3916  0.5998
   35MOL    H21 6889   7.830   8.041   4.869 -1.2538  1.7656 -0.5395
   35MOL    C22 6890   7.665   8.060   4.738  0.1914  0.2581  0.1548
   35MOL    C23 6891   7.558   8.131   4.826 -0.6749 -0.4242 -0.4492
   35MOL   Cl24 6892   7.606   8.290   4.871 -0.0873  0.0208 -0.4270
   35MOL    C25 6893   7.437   8.085   4.846  0.2209 -0.4403 -0.0905
   35MOL    C26 6894   7.328   8.160   4.926 -0.2938  0.2233 -0.3453
   35MOL    H27 6895   7.715   8.126   4.668 -0.7689  1.5992  0.7149
   35MOL    H28 6896   7.609   7.993   4.673  2.4527  0.7084 -2.3419
   35MOL    H29 6897   7.412   7.990   4.801 -1.0043  0.9098 -2.3574
   35MOL    H30 6898   7.278   8.093   4.996 -2.4780  0.0607 -2.0322
   35MOL    H31 6899   7.383   8.229   4.990 -0.4450  1.1122 -1.1741
   35MOL    C32 6900   7.226   8.233   4.846  0.6235  0.3907 -0.1867
   35MOL    C33 6901   7.116   8.309   4.914  0.3303 -1.1505 -0.3141
   35MOL   Cl34 6902   6.991   8.349   4.801 -0.0984  0.2575  0.0649
   35MOL    C35 6903   7.110   8.341   5.049  0.3355  0.8173  0.6586
   35MOL    C36 6904   6.990   8.410   5.106  0.4470  0.0530 -0.1231
   35MOL    H37 6905   7.256   8.306   4.772 -0.2645  1.8255  0.8355
   35MOL    H38 6906   7.177   8.158   4.784 -0.4859  1.1212 -0.2233
   35MOL    H39 6907   7.188   8.314   5.118  0.1987  0.4013  0.6516
   35MOL    H40 6908   6.896   8.394   5.053  0.3962 -0.4190  0.1071
   35MOL    H41 6909   6.976   8.362   5.203 -0.3268 -0.4183 -0.4661
   35MOL    C42 6910   7.023   0.137   5.129  0.3641 -0.1153 -0.3870
   35MOL    C43 6911   6.900   0.210   5.187  0.0273 -0.6452  0.4594
   35MOL   Cl44 6912   6.820   0.302   5.067  0.4554 -0.0396 -0.1523
   35MOL    C45 6913   6.865   0.218   5.313  0.0781  0.6671 -0.9151
   35MOL    C46 6914   6.924   0.136   5.426 -0.4639 -0.2885 -0.0824
   35MOL    H47 6915   7.091   0.160   5.211  0.9166 -0.4839 -0.7360
   35MOL    H48 6916   7.064   0.181   5.038  3.8680 -0.6546  0.8690
   35MOL    H49 6917   6.789   0.292   5.335 -1.2938 -0.6901 -1.0192
   35MOL    H50 6918   6.846   0.077   5.473  0.0280  1.1670  2.7465
   35MOL    H51 6919   6.993   0.064   5.382 -1.4596 -0.8561 -0.7255
   35MOL    C52 6920   6.981   0.223   5.538 -0.3188 -0.1262  0.1683
   35MOL    C53 6921   7.023   0.140   5.656  0.1804 -0.1363 -0.0208
   35MOL   Cl54 6922   7.176   0.054   5.633 -0.1446 -0.0349  0.3542
   35MOL    C55 6923   6.961   0.136   5.777 -0.2850 -0.3468 -0.1473
   35MOL    C56 6924   6.998   0.049   5.897  0.0564  0.3304 -0.5773
   35MOL    H57 6925   7.070   0.261   5.488  0.3985 -1.3495  0.5048
   35MOL    H58 6926   6.932   0.314   5.572  0.7654  0.5083  0.0434
   35MOL    H59 6927   6.872   0.190   5.806  1.3691  0.8197  2.9735
   35MOL    H60 6928   7.101   0.013   5.890 -0.4656 -1.4292  0.5445
   35MOL    H61 6929   7.009   0.124   5.976 -0.2096  0.0465 -0.2755
   35MOL    C62 6930   6.909   8.354   5.921 -0.2408 -0.0071  0.8415
   35MOL    C63 6931   6.870   8.278   5.794  0.5444  0.8837 -0.3963
   35MOL   Cl64 6932   6.705   8.316   5.752  0.0483 -0.0218 -0.1572
   35MOL    C65 6933   6.952   8.189   5.740 -0.4555 -0.5258  1.0173
   35MOL    C66 6934   6.916   8.102   5.620  0.0921  0.5201  0.1697
   35MOL    H67 6935   6.946   8.295   6.005 -0.7205  0.1312  1.1533
   35MOL    H68 6936   6.816   8.382   5.971  0.0216  0.5288  1.0394
   35MOL    H69 6937   7.052   8.178   5.778  0.0095  0.2906  0.0669
   35MOL    H70 6938   6.817   8.107   5.575  0.2204 -2.0805 -0.5151
   35MOL    H71 6939   6.926   7.997   5.647 -1.6412  0.4568  0.6052
   35MOL    C72 6940   7.018   8.114   5.507  0.4731  0.5098  0.2443
   35MOL    C73 6941   6.998   8.040   5.378 -0.0824  1.0430 -0.8783
   35MOL   Cl74 6942   7.123   7.924   5.350  0.0384  0.7655 -0.5857
   35MOL    C75 6943   6.885   8.051   5.308  0.0473  1.0183 -0.6585
   35MOL    C76 6944   6.854   7.960   5.182 -0.2571 -0.6989 -0.3308
   35MOL    H77 6945   7.116   8.094   5.551  0.6110  0.2805 -0.1658
   35MOL    H78 6946   7.025   8.220   5.479 -1.2512  0.1059 -1.8634
   35MOL    H79 6947   6.808   8.119   5.339  0.2738  1.7660 -1.7097
   35MOL    H80 6948   6.952   7.916   5.158 -1.6679 -2.3398 -3.3623
   35MOL    H81 6949   6.833   8.026   5.099 -2.4328 -1.5234 -0.4667
   35MOL    C82 6950   6.740   7.853   5.204  0.0776 -0.1787  0.0473
   35MOL    C83 6951   6.722   7.778   5.075  0.4874 -0.4234 -0.0081
   35MOL   Cl84 6952   6.861   7.709   5.000 -0.0539 -0.3109  0.2575
   35MOL    C85 6953   6.603   7.769   5.017  0.0983 -0.5190 -0.0843
   35MOL    C86 6954   6.568   7.687   4.892 -0.5506 -1.1727  0.1258
   35MOL    H87 6955   6.644   7.881   5.246  1.1493  1.1546  1.6996
   35MOL    H88 6956   6.765   7.788   5.288  3.4291  1.5341  0.4815
   35MOL    H89 6957   6.523   7.823   5.065  1.8871  2.1061  0.0585
   35MOL    H90 6958   6.528   7.752   4.813 -1.0124 -2.1560 -0.4687
   35MOL    H91 6959   6.660   7.648   4.848 -0.5049 -0.2936 -0.5783
   35MOL    C92 6960   6.456   7.584   4.917  0.1405 -0.7037  0.3483
   35MOL    C93 6961   6.463   7.479   4.815  0.0527 -0.2852  0.0626
   35MOL   Cl94 6962   6.409   7.524   4.658  0.2606 -0.0562 -0.0460
   35MOL    C95 6963   6.501   7.349   4.828  0.8229  0.4355 -0.1487
   35MOL    C96 6964   6.548   7.268   4.950 -1.2597  0.5463 -1.0079
   35MOL    H97 6965   6.358   7.630   4.925 -0.0865 -1.3805  1.6997
   35MOL    H98 6966   6.468   7.535   5.014  0.0958 -0.8450  0.2832
   35MOL    H99 6967   6.494   7.289   4.738  2.5399 -1.2013  0.7757
   35MOL   H100 6968   6.563   7.336   5.034  1.0803 -0.2258 -0.7754
   35MOL   H101 6969   6.470   7.196   4.975 -1.9302  1.0747 -1.5541
   35MOL   C102 6970   6.680   7.206   4.916 -0.2510 -0.0591  0.5095
   35MOL   C103 6971   6.753   7.122   5.015  0.9268 -0.2799  0.1465
   35MOL  Cl104 6972   6.648   7.059   5.143 -0.1919 -0.0109  0.3569
   35MOL   C105 6973   6.880   7.081   5.006  0.3541 -0.8969 -0.3007
   35MOL   C106 6974   6.953   6.988   5.101 -0.6342 -0.1151  0.3789
   35MOL   H107 6975   6.679   7.137   4.832  0.3374  0.9946 -0.3812
   35MOL   H108 6976   6.745   7.288   4.885 -2.0784  0.7507 -1.2852
   35MOL   H109 6977   6.941   7.108   4.921 -1.6467  2.6614 -0.7494
   35MOL   H110 6978   6.895   6.982   5.193  0.2255 -0.5391  0.8972
   35MOL   H111 6979   6.944   6.888   5.059  2.0353 -0.2425  0.0288
   35MOL   C112 6980   7.097   7.023   5.126 -0.3263 -0.1486 -0.4060
   35MOL   C113 6981   7.151   6.937   5.238 -0.6781  0.1575 -0.2460
   35MOL  Cl114 6982   7.208   6.781   5.181  0.0242 -0.1068 -0.2154
   35MOL   C115 6983   7.127   6.966   5.371 -0.4755 -0.4656  0.3573
   35MOL   C116 6984   7.058   7.094   5.425  0.1015 -0.1865 -0.1424
   35MOL   H117 6985   7.156   7.008   5.036 -1.4691 -1.7092 -0.9050
   35MOL   H118 6986   7.112   7.130   5.144  1.6629 -0.2427 -1.3628
   35MOL   H119 6987   7.159   6.889   5.440  2.3906  0.1402 -0.2365
   35MOL   H120 6988   6.975   7.057   5.486 -1.2149  1.5831 -0.8172
   35MOL   H121 6989   7.001   7.148   5.349  0.7353 -0.5762 -0.9018
   35MOL   C122 6990   7.147   7.175   5.527 -0.5833  0.4555 -1.0402
   35MOL   C123 6991   7.075   7.294   5.594  0.1475  0.0415 -0.0316
   35MOL  Cl124 6992   7.017   7.252   5.750 -0.1497 -0.0797  0.2590
   35MOL   C125 6993   7.067   7.422   5.552  0.4454 -0.1595  0.4645
   35MOL   C126 6994   7.122   7.483   5.420  0.7635  0.9420  0.3529
   35MOL   H127 6995   7.191   7.123   5.612  2.4092  0.8651 -2.2892
   35MOL   H128 6996   7.235   7.215   5.477  0.4421  1.2938  1.4120
   35MOL   H129 6997   7.022   7.497   5.615 -1.9866 -1.3535  0.1841
   35MOL   H130 6998   7.191   7.560   5.455  2.3255  0.1851 -1.0107
   35MOL   H131 6999   7.165   7.413   5.348 -1.2735  0.1538 -0.1246
   35MOL   C132 7000   7.017   7.558   5.335 -0.2383  0.9419  0.2009
   35MOL   C133 7001   6.927   7.460   5.250  1.0081 -0.1232 -0.1016
   35MOL  Cl134 7002   7.007   7.404   5.105 -0.6355  0.2810  0.2451
   35MOL   C135 7003   6.798   7.431   5.261  0.1482  0.1441  0.4480
   35MOL   C136 7004   6.707   7.466   5.374  0.1690  0.5296  0.1455
   35MOL   H137 7005   6.957   7.629   5.392 -0.1957  0.6430  0.6190
   35MOL   H138 7006   7.068   7.619   5.260  2.4337 -1.3222  0.1057
   35MOL   H139 7007   6.740   7.380   5.186 -1.0727  0.4004  1.2018
   35MOL   H140 7008   6.754   7.529   5.449  0.8770  0.7719 -0.4917
   35MOL   H141 7009   6.627   7.526   5.331  0.7895  1.3900  0.1826
   35MOL   C142 7010   6.665   7.323   5.428 -0.0972  0.4158  0.3435
   35MOL   C143 7011   6.554   7.340   5.526  0.2758  0.8077  0.1207
   35MOL  Cl144 7012   6.408   7.406   5.461 -0.2182  0.1340 -0.3900
   35MOL   C145 7013   6.564   7.301   5.655 -0.1887 -0.3549 -0.5199
   35MOL   C146 7014   6.455   7.308   5.764 -0.5494 -0.2220 -0.3795
   35MOL   H147 7015   6.741   7.262   5.476 -0.1286 -1.8628 -2.4054
   35MOL   H148 7016   6.622   7.262   5.349 -0.3959  2.2963 -0.9897
   35MOL   H149 7017   6.661   7.265   5.685  1.2210  0.4508 -3.8773
   35MOL   H150 7018   6.491   7.361   5.852 -0.4477  0.5450 -0.8725
   35MOL   H151 7019   6.356   7.336   5.729 -0.7421  1.0892  1.1446
   35MOL   C152 7020   6.444   7.170   5.824 -0.1163 -0.1023 -0.2029
   35MOL   C153 7021   6.324   7.163   5.906 -0.4814 -1.1195  0.1406
   35MOL  Cl154 7022   6.366   7.206   6.070 -0.2524 -0.1839 -0.5861
   35MOL   C155 7023   6.203   7.112   5.866 -0.6738 -0.4381 -0.3243
   35MOL   C156 7024   6.086   7.096   5.951 -0.0497 -0.3067  0.4508
   35MOL   H157 7025   6.435   7.096   5.745  0.8417  0.0628 -0.4623
   35MOL   H158 7026   6.538   7.140   5.870  0.3841  0.1772 -1.0414
   35MOL   H159 7027   6.182   7.083   5.764  0.4776 -2.2416 -0.0607
   35MOL   H160 7028   6.106   7.075   6.056 -0.2862 -0.3450  0.4878
   35MOL   H161 7029   6.018   7.020   5.913  2.3602 -0.7017 -3.3379
   35MOL   C162 7030   5.998   7.223   5.960  0.5290 -0.3726  1.1088
   35MOL   C163 7031   5.891   7.230   6.065 -0.7437 -0.1318  0.0872
   35MOL  Cl164 7032   5.909   7.371   6.161 -0.2660  0.0143 -0.1716
   35MOL   C165 7033   5.797   7.134   6.087 -0.1858 -0.4282  0.5399
   35MOL   C166 7034   5.690   7.134   6.196  0.6135 -0.8729 -1.1852
   35MOL   H167 7035   6.054   7.313   5.986 -1.4639  0.2563  3.3413
   35MOL   H168 7036   5.964   7.243   5.858  1.9861  3.3677  1.2581
   35MOL   H169 7037   5.794   7.054   6.014  0.2259  0.4735 -0.4877
   35MOL   H170 7038   5.710   7.047   6.259 -0.5356  1.7214  3.0210
   35MOL   H171 7039   5.692   7.210   6.274  1.9984 -0.5831 -1.4965
   35MOL   C172 7040   5.552   7.143   6.141  0.4720  0.2170 -0.3023
   35MOL   C173 7041   5.514   7.265   6.059 -0.4593 -0.3216 -1.2008
   35MOL  Cl174 7042   5.467   7.236   5.896 -0.0796  0.0981 -0.2510
   35MOL   C175 7043   5.535   7.395   6.101  0.0919  0.3239  0.7743
   35MOL   C176 7044   5.507   7.518   6.014  0.0927  0.5478  0.0336
   35MOL   H177 7045   5.481   7.135   6.223 -0.8024  1.1703 -1.2942
   35MOL   H178 7046   5.537   7.050   6.086 -2.8033 -0.4837  1.6476
   35MOL   H179 7047   5.569   7.412   6.202 -0.3230 -0.6417  1.0843
   35MOL   H180 7048   5.447   7.586   6.075  1.6595  1.4603  0.5660
   35MOL   H181 7049   5.443   7.477   5.935 -0.2114 -0.2180  0.6688
   35MOL   C182 7050   5.650   7.579   5.970  0.3189  0.5045  0.0223
   35MOL   C183 7051   5.634   7.702   5.881  0.5243  0.0405  0.2168
   35MOL  Cl184 7052   5.567   7.659   5.726  0.1375  0.2804 -0.0496
   35MOL   C185 7053   5.670   7.824   5.910  0.2611 -0.6040  0.0477
   35MOL   C186 7054   5.644   7.944   5.827 -0.3781 -0.2109  0.1801
   35MOL   H187 7055   5.690   7.615   6.065 -0.5888 -2.9071  1.7986
   35MOL   H188 7056   5.720   7.502   5.938 -0.9800 -1.1251  1.0161
   35MOL   H189 7057   5.720   7.843   6.004  0.6735  1.7895 -0.6179
   35MOL   H190 7058   5.564   7.912   5.761  1.1532 -1.0996 -1.2907
   35MOL   H191 7059   5.603   8.027   5.884  1.3921  0.5706  0.3667
   35MOL   C192 7060   5.767   7.978   5.741  0.1713 -0.0486  1.0154
   35MOL   C193 7061   5.739   8.096   5.652 -0.3475 -0.3748  0.1392
   35MOL  Cl194 7062   5.811   8.249   5.706 -0.2143  0.1045 -0.2688
   35MOL   C195 7063   5.676   8.097   5.536  0.0860 -0.1175 -0.1600
   35MOL   C196 7064   5.623   7.975   5.470 -0.3060 -0.0315 -0.1484
   35MOL   H197 7065   5.792   7.889   5.682 -2.4927 -1.1836  1.5150
   35MOL   H198 7066   5.861   7.987   5.794  0.7961  1.1891 -0.2710
   35MOL   H199 7067   5.664   8.187   5.478 -1.4690  0.1369  0.5243
   35MOL   H200 7068   5.623   7.887   5.535 -0.2629  0.2327  0.2070
   35MOL   H201 7069   5.683   7.947   5.383  0.0558 -1.4006  0.5321
   35MOL   H202 7070   5.525   7.987   5.423 -0.1096 -1.0224 -0.8362
   36MOL     C1 7071   1.455   5.381   7.128  0.0159  0.7398  0.4155
   36MOL     C2 7072   1.560   5.483   7.102  0.1923 -0.5848 -0.2660
   36MOL    Cl3 7073   1.711   5.416   7.058 -0.2107 -0.2475 -0.2480
   36MOL     C4 7074   1.547   5.613   7.102  0.7062 -0.6039 -0.1744
   36MOL     C5 7075   1.418   5.689   7.140 -0.1421  0.0994  0.3727
   36MOL     H6 7076   1.390   5.414   7.209 -1.9968  0.4002 -1.0021
   36MOL     H7 7077   1.503   5.285   7.148 -0.2233  0.5730  0.1949
   36MOL     H8 7078   1.632   5.676   7.078  0.1673 -0.4344 -1.7248
   36MOL     H9 7079   1.338   5.624   7.175 -0.2192 -0.3153 -0.5468
   36MOL    H10 7080   1.440   5.751   7.227 -1.1302  0.3159  0.4683
   36MOL    H11 7081   1.386   5.382   7.043  1.8125  1.8384 -1.0644
   36MOL    C12 7082   1.361   5.779   7.031  0.1073  0.0935  0.2210
   36MOL    C13 7083   1.262   5.877   7.088  0.2566 -0.3036  0.0183
   36MOL   Cl14 7084   1.135   5.806   7.181  0.0903 -0.1787 -0.4251
   36MOL    C15 7085   1.277   6.010   7.099  0.3663 -0.5139  0.7489
   36MOL    C16 7086   1.389   6.102   7.043 -0.2701  0.3292 -0.8055
   36MOL    H17 7087   1.444   5.832   6.985  0.1413  0.7319  0.9984
   36MOL    H18 7088   1.320   5.731   6.943  0.9880 -1.1456  0.4849
   36MOL    H19 7089   1.197   6.053   7.156  0.6652  0.1173  0.7035
   36MOL    H20 7090   1.455   6.135   7.123  0.1384 -2.2699 -0.0196
   36MOL    H21 7091   1.442   6.043   6.968  2.6858  2.2293 -0.2834
   36MOL    C22 7092   1.327   6.218   6.962 -0.8665 -0.1826  0.7737
   36MOL    C23 7093   1.442   6.287   6.892  0.2684 -0.3884 -0.0476
   36MOL   Cl24 7094   1.514   6.416   6.989 -0.1402  0.0872  0.2020
   36MOL    C25 7095   1.481   6.272   6.760 -0.3772 -0.1989 -0.0497
   36MOL    C26 7096   1.595   6.347   6.687  0.2566  0.4642 -0.1352
   36MOL    H27 7097   1.271   6.173   6.880 -2.2945 -0.1746  1.7270
   36MOL    H28 7098   1.265   6.286   7.020  0.5228 -0.1025  2.1837
   36MOL    H29 7099   1.429   6.196   6.703 -1.1702 -0.1541  0.6114
   36MOL    H30 7100   1.568   6.418   6.609  3.6906  1.2095 -0.7207
   36MOL    H31 7101   1.637   6.410   6.766 -1.9170  0.3706  1.1513
   36MOL    C32 7102   1.704   6.255   6.641 -0.8397  0.0980  0.0287
   36MOL    C33 7103   1.838   6.326   6.626 -0.3025 -0.5709 -0.8070
   36MOL   Cl34 7104   1.847   6.444   6.500 -0.1333 -0.1148  0.2190
   36MOL    C35 7105   1.933   6.307   6.720  0.2899  0.0223  0.3213
   36MOL    C36 7106   2.071   6.366   6.709  0.1721  0.7877 -0.0604
   36MOL    H37 7107   1.701   6.170   6.708 -2.6328 -1.1943 -1.6458
   36MOL    H38 7108   1.676   6.225   6.540  1.4534 -0.1543 -0.5647
   36MOL    H39 7109   1.924   6.229   6.795  1.8005 -1.2729 -0.7947
   36MOL    H40 7110   2.137   6.294   6.661 -0.5071 -1.0489  1.6947
   36MOL    H41 7111   2.089   6.455   6.648  1.9433  1.5882  1.6013
   36MOL    C42 7112   2.139   6.390   6.847  0.5542  0.0433  0.5389
   36MOL    C43 7113   2.285   6.363   6.841  0.4774  0.0217  0.0354
   36MOL   Cl44 7114   2.320   6.207   6.891 -0.2797 -0.1982 -0.0773
   36MOL    C45 7115   2.383   6.458   6.832  0.1201 -0.2962  0.3596
   36MOL    C46 7116   2.353   6.604   6.802 -0.9615  0.0650  0.2527
   36MOL    H47 7117   2.118   6.492   6.879  0.7463  0.1049  0.4685
   36MOL    H48 7118   2.093   6.318   6.915 -2.3077  0.9966 -0.2974
   36MOL    H49 7119   2.487   6.429   6.840  0.0917  0.1191  2.8343
   36MOL    H50 7120   2.254   6.621   6.761 -1.1366 -2.2019 -0.3203
   36MOL    H51 7121   2.355   6.668   6.890 -1.4993  0.2263  0.1481
   36MOL    C52 7122   2.457   6.653   6.693 -0.0615  0.0722 -0.2503
   36MOL    C53 7123   2.440   6.802   6.656  0.0451  0.1071 -0.6674
   36MOL   Cl54 7124   2.305   6.821   6.555  0.1022  0.3182 -0.1256
   36MOL    C55 7125   2.516   6.907   6.692 -0.2017 -0.2492  0.5947
   36MOL    C56 7126   2.493   7.056   6.644 -0.0152 -0.0426 -0.5392
   36MOL    H57 7127   2.553   6.629   6.740  1.4735  0.1739 -3.1780
   36MOL    H58 7128   2.456   6.595   6.600 -0.4514 -1.5079  0.7219
   36MOL    H59 7129   2.599   6.899   6.761  0.5132 -1.1036 -0.3459
   36MOL    H60 7130   2.582   7.075   6.583  0.2071  1.2876  0.1792
   36MOL    H61 7131   2.406   7.063   6.578  0.0830  3.7714 -0.3723
   36MOL    C62 7132   2.479   7.153   6.758 -0.0947  0.0807  0.4785
   36MOL    C63 7133   2.424   7.287   6.722 -0.3326 -0.2591 -0.1531
   36MOL   Cl64 7134   2.270   7.307   6.779  0.1203  0.0008  0.1749
   36MOL    C65 7135   2.491   7.375   6.651  0.0360 -1.0461  0.2329
   36MOL    C66 7136   2.431   7.503   6.600  0.2342 -0.0063  0.7330
   36MOL    H67 7137   2.405   7.110   6.825  0.6027 -1.6085  0.1906
   36MOL    H68 7138   2.578   7.157   6.805  0.9362  1.1068 -1.7334
   36MOL    H69 7139   2.590   7.341   6.625 -0.5395 -3.8280  1.5678
   36MOL    H70 7140   2.479   7.584   6.656 -1.3418  0.4900  1.3936
   36MOL    H71 7141   2.324   7.516   6.613  0.3284  0.3936  1.1290
   36MOL    C72 7142   2.466   7.535   6.457  0.0124 -0.0475 -0.2998
   36MOL    C73 7143   2.410   7.669   6.416  0.0374 -0.0486 -0.5906
   36MOL   Cl74 7144   2.307   7.649   6.273 -0.1620  0.0710  0.2524
   36MOL    C75 7145   2.446   7.791   6.461 -0.0459 -0.6673  0.1934
   36MOL    C76 7146   2.384   7.926   6.416 -0.8792  0.5463 -0.0922
   36MOL    H77 7147   2.429   7.451   6.397 -0.5227  0.6772 -0.9929
   36MOL    H78 7148   2.573   7.541   6.438 -0.3022  0.3009 -2.0129
   36MOL    H79 7149   2.519   7.791   6.541  0.6240 -2.3347 -0.3795
   36MOL    H80 7150   2.329   7.964   6.502  0.1822  0.1659  0.7712
   36MOL    H81 7151   2.306   7.902   6.344 -1.6761 -0.9614  1.2407
   36MOL    C82 7152   2.485   8.016   6.343 -0.0234 -0.8640  0.6753
   36MOL    C83 7153   2.598   8.056   6.432 -0.0121  0.6310 -0.1920
   36MOL   Cl84 7154   2.755   8.029   6.359 -0.1992 -0.0332  0.1949
   36MOL    C85 7155   2.584   8.086   6.560  0.3767 -0.6456 -0.0443
   36MOL    C86 7156   2.693   8.125   6.661  0.8786  0.7058  0.6339
   36MOL    H87 7157   2.425   8.096   6.300 -1.2213 -2.7990 -1.4327
   36MOL    H88 7158   2.524   7.961   6.257  3.1628  1.6516  0.4113
   36MOL    H89 7159   2.485   8.090   6.603  0.2165  0.4545 -0.5089
   36MOL    H90 7160   2.778   8.143   6.596 -1.3495 -0.5870 -2.7714
   36MOL    H91 7161   2.661   8.224   6.694 -1.6673  1.0834 -2.6249
   36MOL    C92 7162   2.711   8.013   6.764 -0.5908  0.8406 -0.1547
   36MOL    C93 7163   2.815   8.046   6.870 -0.5195  0.0631 -0.6627
   36MOL   Cl94 7164   2.975   7.986   6.834  0.0677  0.2966  0.0312
   36MOL    C95 7165   2.789   8.117   6.981 -0.2355 -0.4591  0.2446
   36MOL    C96 7166   2.660   8.186   7.025  0.3645 -0.1137  0.4141
   36MOL    H97 7167   2.736   7.916   6.721  0.5008  1.1874 -0.3353
   36MOL    H98 7168   2.615   7.997   6.812  0.5278 -3.7436  0.8037
   36MOL    H99 7169   2.873   8.137   7.045 -0.2725 -1.0481  0.4775
   36MOL   H100 7170   2.582   8.156   6.954 -0.3478 -0.7285  1.4410
   36MOL   H101 7171   2.621   8.141   7.116 -0.6092 -1.6822 -0.7443
   36MOL   C102 7172   2.664   8.340   7.015 -0.6591 -0.5969  0.3314
   36MOL   C103 7173   2.527   8.399   7.012 -0.1349  0.5884 -0.2601
   36MOL  Cl104 7174   2.449   8.410   7.165 -0.0514  0.3370  0.0920
   36MOL   C105 7175   2.472   0.034   6.910 -0.0137 -0.0876 -0.0945
   36MOL   C106 7176   2.334   0.088   6.899 -0.3698 -1.1791 -0.5059
   36MOL   H107 7177   2.716   8.377   7.104  0.0941  0.2300 -0.4431
   36MOL   H108 7178   2.714   8.377   6.925 -0.9663 -0.7704  0.0883
   36MOL   H109 7179   2.528   0.026   6.817  2.3219 -5.7863  1.6195
   36MOL   H110 7180   2.287   0.026   6.823 -1.6521 -2.6334  1.4340
   36MOL   H111 7181   2.265   0.078   6.982 -0.3034 -0.3544 -0.3447
   36MOL   C112 7182   2.344   0.234   6.851 -0.4278  0.0174  0.4654
   36MOL   C113 7183   2.196   0.279   6.819 -0.2387 -0.2425 -0.5207
   36MOL  Cl114 7184   2.101   0.310   6.961 -0.3430  0.2953  0.0571
   36MOL   C115 7185   2.136   0.282   6.700 -0.0247  0.9574 -0.0641
   36MOL   C116 7186   2.201   0.248   6.573  0.1401 -0.5152 -0.3592
   36MOL   H117 7187   2.378   0.294   6.935  1.2647  1.3456 -1.1012
   36MOL   H118 7188   2.411   0.257   6.768  0.7383 -0.9664  1.1213
   36MOL   H119 7189   2.030   0.302   6.694 -0.5364 -1.2533  0.6955
   36MOL   H120 7190   2.293   0.195   6.597 -0.2290 -0.4866  1.1938
   36MOL   H121 7191   2.223   0.347   6.533  1.9370 -0.5777  0.4148
   36MOL   C122 7192   2.106   0.162   6.484  0.0310 -0.2304 -0.1453
   36MOL   C123 7193   2.170   0.132   6.350  0.2109 -0.3642 -0.6327
   36MOL  Cl124 7194   2.255   8.408   6.354 -0.2029  0.3755  0.1856
   36MOL   C125 7195   2.163   0.202   6.241  0.0269 -0.9059 -0.2623
   36MOL   C126 7196   2.079   0.329   6.212  0.3930  0.2316 -0.4002
   36MOL   H127 7197   2.093   0.068   6.538  2.2221 -0.6712 -0.3518
   36MOL   H128 7198   2.012   0.216   6.469 -0.0146 -0.5945 -1.1711
   36MOL   H129 7199   2.213   0.178   6.148  2.2789  0.3777  0.5664
   36MOL   H130 7200   2.033   0.323   6.113 -1.3408 -1.2687  0.4725
   36MOL   H131 7201   1.997   0.344   6.282  1.0164  1.2333  0.1263
   36MOL   C132 7202   2.175   0.446   6.197  0.1112  0.0385  0.2196
   36MOL   C133 7203   2.109   0.557   6.117  0.4500  0.0629  0.5975
   36MOL  Cl134 7204   2.031   0.672   6.225  0.1450  0.3163 -0.0204
   36MOL   C135 7205   2.122   0.575   5.983  0.1112 -0.6708 -0.3161
   36MOL   C136 7206   2.188   0.479   5.884  0.7121  0.1958 -0.7029
   36MOL   H137 7207   2.200   0.479   6.298  0.9378  0.6765 -0.1886
   36MOL   H138 7208   2.268   0.412   6.152 -1.3652 -2.2685 -1.1693
   36MOL   H139 7209   2.081   0.665   5.940 -0.7438 -1.0370 -0.2803
   36MOL   H140 7210   2.285   0.524   5.862  0.3674  1.0074 -0.5679
   36MOL   H141 7211   2.213   0.388   5.939 -0.5907  0.1773 -0.1357
   36MOL   C142 7212   2.113   0.447   5.752  0.3105  0.4765 -0.3965
   36MOL   C143 7213   2.192   0.351   5.666  0.2351  0.3741 -0.3912
   36MOL  Cl144 7214   2.093   0.225   5.607  0.2438 -0.4169 -0.5314
   36MOL   C145 7215   2.319   0.372   5.632 -0.9642 -0.2157  0.4445
   36MOL   C146 7216   2.396   0.282   5.536 -0.1865  0.2428 -0.4829
   36MOL   H147 7217   2.084   0.544   5.711 -3.7748 -0.2429  0.5251
   36MOL   H148 7218   2.023   0.400   5.791 -0.5844  1.2449 -1.5111
   36MOL   H149 7219   2.382   0.452   5.669 -1.0622 -0.0552  0.2695
   36MOL   H150 7220   2.498   0.282   5.575 -0.8991 -0.3170  1.4435
   36MOL   H151 7221   2.358   0.180   5.525  0.6568 -0.0211 -1.0002
   36MOL   C152 7222   2.412   0.349   5.406 -0.3154 -0.1029 -0.2310
   36MOL   C153 7223   2.534   0.314   5.327 -0.6138 -0.3655  0.1254
   36MOL  Cl154 7224   2.604   0.154   5.355 -0.0928  0.1075  0.6145
   36MOL   C155 7225   2.596   0.407   5.251  0.4149 -0.4692  0.5683
   36MOL   C156 7226   2.717   0.388   5.172 -1.0092  0.0899  0.7380
   36MOL   H157 7227   2.319   0.356   5.350 -0.2218 -0.5318 -0.4380
   36MOL   H158 7228   2.417   0.458   5.416  0.8332 -0.1487 -0.2959
   36MOL   H159 7229   2.545   0.502   5.256 -0.3273 -0.9781  3.4422
   36MOL   H160 7230   2.739   0.284   5.148 -0.3971 -0.3739  3.1338
   36MOL   H161 7231   2.805   0.414   5.231 -0.2590 -2.2810  0.7147
   36MOL   C162 7232   2.710   0.468   5.030  0.0149 -0.1538  0.6945
   36MOL   C163 7233   2.842   0.447   4.954  0.1053 -0.1723  0.3492
   36MOL  Cl164 7234   2.870   0.287   4.904  0.5032 -0.1130 -0.0657
   36MOL   C165 7235   2.930   0.550   4.951 -0.5677 -0.1400  0.9471
   36MOL   C166 7236   3.069   0.535   4.879 -0.6636 -0.3649  0.1689
   36MOL   H167 7237   2.626   0.433   4.970  2.3819 -3.2050 -0.9675
   36MOL   H168 7238   2.701   0.576   5.039 -2.8205 -0.0353 -2.4476
   36MOL   H169 7239   2.911   0.645   4.999 -1.0781  1.5425 -2.4526
   36MOL   H170 7240   3.142   0.542   4.960  0.5123  0.8571 -0.9717
   36MOL   H171 7241   3.078   0.434   4.839  1.0001 -0.1289 -0.0968
   36MOL   C172 7242   3.100   0.639   4.774 -0.5231 -0.2930  0.0169
   36MOL   C173 7243   3.242   0.661   4.739  0.4333  0.3856 -0.8179
   36MOL  Cl174 7244   3.340   0.692   4.876 -0.5011  0.0228 -0.0296
   36MOL   C175 7245   3.294   0.661   4.609  0.1643  0.5513  0.4168
   36MOL   C176 7246   3.433   0.686   4.566 -0.2975 -0.0970  0.2311
   36MOL   H177 7247   3.066   0.728   4.826 -0.8047 -1.5001  1.9251
   36MOL   H178 7248   3.028   0.644   4.692 -2.2880 -1.6155  1.4367
   36MOL   H179 7249   3.230   0.642   4.525 -1.5274  0.0590  1.7831
   36MOL   H180 7250   3.491   0.705   4.656  2.5579 -0.2168 -1.5366
   36MOL   H181 7251   3.443   0.776   4.504  0.4995 -0.0627  0.4008
   36MOL   C182 7252   3.484   0.580   4.473 -0.1723 -0.5715 -0.3662
   36MOL   C183 7253   3.619   0.626   4.404  0.8493 -0.3530 -0.2299
   36MOL  Cl184 7254   3.605   0.604   4.231  0.5646  0.0630  0.2919
   36MOL   C185 7255   3.729   0.656   4.474 -0.6874  0.8392 -0.3069
   36MOL   C186 7256   3.863   0.679   4.410  0.0914 -0.3349  0.2849
   36MOL   H187 7257   3.493   0.479   4.514  1.0585 -0.3507 -0.0849
   36MOL   H188 7258   3.399   0.576   4.405  0.5324  1.6978 -1.4130
   36MOL   H189 7259   3.729   0.660   4.582  1.0029  0.2417 -0.2789
   36MOL   H190 7260   3.915   0.583   4.407  0.0414 -0.3195 -3.1201
   36MOL   H191 7261   3.846   0.700   4.304 -1.5741 -0.3668  0.5290
   36MOL   C192 7262   3.944   0.778   4.502  0.3666 -0.2982  0.0356
   36MOL   C193 7263   4.074   0.812   4.445 -0.2334 -0.4939  0.2826
   36MOL  Cl194 7264   4.215   0.734   4.510 -0.0102 -0.1272  0.0554
   36MOL   C195 7265   4.083   0.903   4.345 -0.5911 -0.4593  0.4525
   36MOL   C196 7266   3.967   0.972   4.277 -0.4119 -0.4501 -0.8774
   36MOL   H197 7267   3.960   0.738   4.601 -0.3968 -1.6130 -0.3713
   36MOL   H198 7268   3.885   0.868   4.519 -0.5121 -1.0131  0.7968
   36MOL   H199 7269   4.180   0.907   4.298 -1.3527 -2.0327 -1.2855
   36MOL   H200 7270   4.011   1.071   4.264  1.8480 -0.6701  4.0666
   36MOL   H201 7271   3.879   0.987   4.339  0.6065 -1.0280  0.7334
   36MOL   H202 7272   3.940   0.925   4.182  2.9258 -0.9734 -1.6441
   37MOL     C1 7273   2.255   7.778   3.217 -0.4245  0.0595 -0.1737
   37MOL     C2 7274   2.298   7.917   3.263  0.3301 -0.5888 -0.1055
   37MOL    Cl3 7275   2.211   7.976   3.399  0.0036  0.1315 -0.1958
   37MOL     C4 7276   2.385   7.999   3.204  0.5053  0.6205 -0.0628
   37MOL     C5 7277   2.459   7.973   3.073 -0.2474  0.0564 -0.7991
   37MOL     H6 7278   2.340   7.711   3.232  2.1008  3.0206 -0.5345
   37MOL     H7 7279   2.231   7.768   3.111  1.1981  0.1334 -0.5710
   37MOL     H8 7280   2.410   8.097   3.242 -0.8194  1.6400 -1.7790
   37MOL     H9 7281   2.565   7.972   3.095 -0.3622 -0.8393 -0.2823
   37MOL    H10 7282   2.432   7.872   3.043  0.2638 -0.2683 -0.1865
   37MOL    H11 7283   2.174   7.745   3.281  0.5539 -0.3484  0.8821
   37MOL    C12 7284   2.416   8.077   2.972  0.2650 -0.5050  0.5444
   37MOL    C13 7285   2.514   8.087   2.855 -0.4319 -0.1588  0.2975
   37MOL   Cl14 7286   2.516   7.936   2.766 -0.0455 -0.1068 -0.2076
   37MOL    C15 7287   2.608   8.184   2.834  0.3164  0.1418 -0.6209
   37MOL    C16 7288   2.623   8.319   2.904  0.1629 -0.4341  0.5297
   37MOL    H17 7289   2.317   8.046   2.939  0.8817 -0.5049 -1.3375
   37MOL    H18 7290   2.416   8.177   3.014  1.1452  0.0290 -0.7379
   37MOL    H19 7291   2.678   8.171   2.752 -0.1057  1.2653 -1.1597
   37MOL    H20 7292   2.549   8.335   2.982 -0.4324 -3.0761  0.5519
   37MOL    H21 7293   2.722   8.313   2.949  0.0572  0.4579  0.8801
   37MOL    C22 7294   2.619   0.010   2.794 -0.2288  0.0074  0.7545
   37MOL    C23 7295   2.649   0.152   2.850 -0.1441  0.1989  0.1126
   37MOL   Cl24 7296   2.495   0.240   2.861  0.0881 -0.1265 -0.5585
   37MOL    C25 7297   2.775   0.195   2.873 -0.1212 -0.4238 -0.1015
   37MOL    C26 7298   2.813   0.329   2.913  0.1916  0.3557  0.5402
   37MOL    H27 7299   2.677   8.410   2.704  1.4544  0.7222  1.6540
   37MOL    H28 7300   2.515   0.013   2.762 -0.8539  0.5568  2.8104
   37MOL    H29 7301   2.854   0.125   2.851  0.9251 -0.1356  2.5935
   37MOL    H30 7302   2.723   0.389   2.919  0.7861  1.3216 -0.1010
   37MOL    H31 7303   2.843   0.322   3.018 -0.7623 -0.0800  0.7851
   37MOL    C32 7304   2.918   0.400   2.832  0.7208  0.5279 -0.3865
   37MOL    C33 7305   2.860   0.463   2.702 -0.0455  0.8019 -0.6121
   37MOL   Cl34 7306   2.795   0.619   2.733 -0.2117  0.0348 -0.1806
   37MOL    C35 7307   2.852   0.400   2.584  0.0130  0.7888 -0.1755
   37MOL    C36 7308   2.790   0.452   2.465  0.2261  0.2260 -0.0757
   37MOL    H37 7309   2.954   0.477   2.901 -0.8595  1.9202 -1.0964
   37MOL    H38 7310   3.002   0.335   2.805  0.7268  0.2770  0.2219
   37MOL    H39 7311   2.885   0.297   2.575 -0.6690  0.2033  3.1015
   37MOL    H40 7312   2.688   0.415   2.450  0.8809 -1.3091 -0.7913
   37MOL    H41 7313   2.777   0.560   2.467  1.0908  0.3128  1.4859
   37MOL    C42 7314   2.855   0.415   2.324  0.7738 -0.6227 -0.5596
   37MOL    C43 7315   2.781   0.489   2.208 -0.2938 -0.0014  0.0100
   37MOL   Cl44 7316   2.676   0.376   2.125 -0.2778  0.1330  0.1039
   37MOL    C45 7317   2.786   0.618   2.165 -0.6098 -0.5497  0.0405
   37MOL    C46 7318   2.867   0.723   2.248 -0.1073 -0.2669  0.2714
   37MOL    H47 7319   2.962   0.438   2.326  0.5050  0.5593  1.3584
   37MOL    H48 7320   2.849   0.308   2.306 -0.8979 -0.5514 -0.4885
   37MOL    H49 7321   2.731   0.646   2.076 -0.5130  0.4868  0.2955
   37MOL    H50 7322   2.913   0.682   2.338 -0.3870  2.4946  1.7250
   37MOL    H51 7323   2.961   0.747   2.198 -1.2189  0.3587 -1.5796
   37MOL    C52 7324   2.782   0.851   2.293  0.2513 -0.3389 -0.1346
   37MOL    C53 7325   2.848   0.947   2.389 -0.6526 -0.2452 -0.6818
   37MOL   Cl54 7326   2.747   0.984   2.519 -0.0239 -0.0364  0.4935
   37MOL    C55 7327   2.977   0.986   2.386 -0.5656  0.3985 -0.6055
   37MOL    C56 7328   3.039   1.071   2.495 -0.6281  0.7288 -0.0125
   37MOL    H57 7329   2.758   0.907   2.203 -0.0819  1.7286  1.2289
   37MOL    H58 7330   2.693   0.806   2.338 -0.3684 -0.7020 -1.6547
   37MOL    H59 7331   3.053   0.957   2.315  2.3100  0.1662  2.4498
   37MOL    H60 7332   3.122   1.127   2.451 -0.8250  0.1556 -1.1239
   37MOL    H61 7333   2.969   1.146   2.533 -1.8570 -0.2385 -0.3335
   37MOL    C62 7334   3.087   0.998   2.618 -0.2656 -0.0689  0.2411
   37MOL    C63 7335   3.181   1.082   2.709  0.1402 -0.2477 -0.0203
   37MOL   Cl64 7336   3.346   1.045   2.688  0.0662 -0.0776 -0.0471
   37MOL    C65 7337   3.130   1.177   2.789  0.4070 -0.3920  0.3704
   37MOL    C66 7338   3.210   1.264   2.883  0.1441 -1.2523 -0.4817
   37MOL    H67 7339   2.997   0.966   2.671 -0.1663  0.3933  0.6961
   37MOL    H68 7340   3.139   0.908   2.588 -2.1625 -1.2392  0.3409
   37MOL    H69 7341   3.024   1.198   2.782  0.5312  0.1107  0.0154
   37MOL    H70 7342   3.307   1.219   2.902  0.3317  0.3878  2.8545
   37MOL    H71 7343   3.166   1.274   2.983  0.0371  0.3506 -0.6805
   37MOL    C72 7344   3.210   1.407   2.827  0.4266 -0.7429 -0.0093
   37MOL    C73 7345   3.280   1.502   2.918 -0.0088  0.0713  0.4076
   37MOL   Cl74 7346   3.178   1.625   2.973  0.1065 -0.2651 -0.1454
   37MOL    C75 7347   3.414   1.508   2.925 -0.0316  0.2171  0.2366
   37MOL    C76 7348   3.497   1.613   3.005  0.0242 -0.5655 -0.9359
   37MOL    H77 7349   3.103   1.425   2.816  0.3241 -1.1620  0.3085
   37MOL    H78 7350   3.255   1.395   2.728  0.8863 -2.1206  0.3490
   37MOL    H79 7351   3.471   1.433   2.872 -1.5759 -0.2443 -0.8270
   37MOL    H80 7352   3.560   1.563   3.080 -0.1033  2.0224  0.9757
   37MOL    H81 7353   3.431   1.683   3.057  0.8416 -0.8771  0.5629
   37MOL    C82 7354   3.601   1.685   2.914  0.0666  0.6333  0.0731
   37MOL    C83 7355   3.691   1.782   2.989  0.6559 -0.0967 -0.0642
   37MOL   Cl84 7356   3.816   1.699   3.082 -0.0608  0.7322  0.1919
   37MOL    C85 7357   3.690   1.915   2.982 -0.0772 -0.7370  0.0683
   37MOL    C86 7358   3.778   2.006   3.057  0.1423  0.2166 -0.2996
   37MOL    H87 7359   3.544   1.719   2.827 -1.0096 -1.3579 -0.0413
   37MOL    H88 7360   3.667   1.613   2.865  0.9904  0.5030  1.4900
   37MOL    H89 7361   3.615   1.955   2.915  0.0868  0.0483  0.3467
   37MOL    H90 7362   3.814   1.945   3.140 -0.7648 -1.1780 -0.9255
   37MOL    H91 7363   3.855   2.038   2.986 -0.4686 -1.1118 -1.5841
   37MOL    C92 7364   3.710   2.123   3.123 -0.0412 -0.0458  0.0075
   37MOL    C93 7365   3.801   2.222   3.188 -0.6463 -0.3991  0.1259
   37MOL   Cl94 7366   3.894   2.143   3.308 -0.0465  0.3358  0.0933
   37MOL    C95 7367   3.792   2.359   3.180 -0.0670  0.6325 -0.1322
   37MOL    C96 7368   3.700   2.431   3.088 -0.1626 -0.1856 -0.2491
   37MOL    H97 7369   3.642   2.081   3.197  2.3952 -1.9989  1.2382
   37MOL    H98 7370   3.649   2.166   3.044 -1.6057  3.9800  3.2119
   37MOL    H99 7371   3.854   2.419   3.245 -0.6147 -0.5395  1.5062
   37MOL   H100 7372   3.740   2.446   2.987 -2.6607 -0.7232 -1.3671
   37MOL   H101 7373   3.612   2.372   3.065  0.2137 -1.1939  0.9051
   37MOL   C102 7374   3.662   2.567   3.148  0.7993 -0.0297  0.1991
   37MOL   C103 7375   3.542   2.627   3.071 -0.5030  0.4569 -1.1817
   37MOL  Cl104 7376   3.598   2.733   2.944  0.2959  0.1049 -0.3404
   37MOL   C105 7377   3.413   2.600   3.098  0.2151 -0.0254  0.0609
   37MOL   C106 7378   3.287   2.635   3.024 -0.0262 -0.0054 -0.7272
   37MOL   H107 7379   3.634   2.574   3.254  1.5807  0.6375  0.3696
   37MOL   H108 7380   3.741   2.641   3.130 -1.7647  2.5252 -0.9870
   37MOL   H109 7381   3.413   2.539   3.186  0.2555  1.1540  0.8887
   37MOL   H110 7382   3.232   2.700   3.092  0.5834  2.2139 -2.3128
   37MOL   H111 7383   3.315   2.704   2.944  0.8239  0.0972 -0.3411
   37MOL   C112 7384   3.203   2.509   2.991 -0.1930 -0.4570 -0.4958
   37MOL   C113 7385   3.055   2.544   3.008 -0.1400 -0.3191  0.5217
   37MOL  Cl114 7386   2.985   2.592   2.850 -0.1163 -0.2289 -0.4829
   37MOL   C115 7387   2.994   2.555   3.124 -0.5015  0.4026  0.4165
   37MOL   C116 7388   3.050   2.531   3.262 -0.7040 -0.2612 -0.1982
   37MOL   H117 7389   3.221   2.480   2.887 -0.9112 -0.3922 -0.6406
   37MOL   H118 7390   3.223   2.426   3.059 -1.7905  0.8399  1.6314
   37MOL   H119 7391   2.893   2.592   3.127 -0.5275  0.2507  1.5054
   37MOL   H120 7392   3.157   2.511   3.264 -0.0635  2.8420 -1.4824
   37MOL   H121 7393   2.994   2.447   3.304 -1.1849 -0.1462 -0.6087
   37MOL   C122 7394   3.027   2.666   3.341  0.5601  0.0000  0.5073
   37MOL   C123 7395   3.113   2.689   3.464 -0.2658  1.0040 -0.0228
   37MOL  Cl124 7396   3.227   2.818   3.446 -0.1728  0.4951 -0.0523
   37MOL   C125 7397   3.115   2.610   3.577 -0.1404  0.1669 -0.6340
   37MOL   C126 7398   3.011   2.498   3.602  0.6582 -0.1541  0.0531
   37MOL   H127 7399   3.042   2.747   3.271 -0.5205  0.1119  0.4064
   37MOL   H128 7400   2.923   2.673   3.373 -0.3419 -0.1547 -2.2476
   37MOL   H129 7401   3.184   2.625   3.659 -0.2750 -0.3687 -0.4159
   37MOL   H130 7402   2.970   2.519   3.701  0.2641  1.0527 -0.3530
   37MOL   H131 7403   2.919   2.519   3.547  0.7733  0.9837  0.2700
   37MOL   C132 7404   3.050   2.351   3.586  0.5320 -0.5221 -0.1562
   37MOL   C133 7405   2.929   2.262   3.582 -0.0168 -0.1324 -0.8321
   37MOL  Cl134 7406   2.848   2.259   3.730  0.2249 -0.1742 -0.0731
   37MOL   C135 7407   2.886   2.173   3.486 -0.0315 -0.2451 -0.1425
   37MOL   C136 7408   2.957   2.127   3.362  0.6299  0.1655 -0.3429
   37MOL   H137 7409   3.100   2.342   3.490 -0.5290 -1.3863 -0.6330
   37MOL   H138 7410   3.118   2.310   3.660  2.0058 -2.7814 -2.6947
   37MOL   H139 7411   2.798   2.114   3.508 -0.9875  0.3513 -2.1971
   37MOL   H140 7412   3.059   2.164   3.358  0.1704  1.2961 -1.8908
   37MOL   H141 7413   2.964   2.019   3.372  0.1228  0.1822  0.2766
   37MOL   C142 7414   2.879   2.149   3.230  0.2771  0.0198  0.0953
   37MOL   C143 7415   2.947   2.107   3.105  0.0059 -0.1061  0.2365
   37MOL  Cl144 7416   2.841   2.024   2.993  0.1489 -0.0599 -0.2485
   37MOL   C145 7417   3.074   2.143   3.073  0.2986 -0.1455  0.2073
   37MOL   C146 7418   3.153   2.119   2.949  0.0284  0.0498  0.1691
   37MOL   H147 7419   2.848   2.253   3.218 -0.3495 -0.2514 -0.7176
   37MOL   H148 7420   2.788   2.089   3.226 -0.2875  0.7796  1.1614
   37MOL   H149 7421   3.130   2.206   3.141  1.2825  0.0316 -0.7577
   37MOL   H150 7422   3.103   2.050   2.882  2.6630 -1.0839 -0.6930
   37MOL   H151 7423   3.154   2.213   2.895  0.1580  0.8818  1.5847
   37MOL   C152 7424   3.302   2.082   2.962 -0.2348  0.3606  0.0787
   37MOL   C153 7425   3.378   2.085   2.823  0.0303  0.3039  0.0184
   37MOL  Cl154 7426   3.346   1.931   2.740  0.0282  0.2808 -0.1863
   37MOL   C155 7427   3.455   2.188   2.776  0.9369 -0.5063 -0.0817
   37MOL   C156 7428   3.522   2.197   2.638 -0.0681 -0.1187 -0.0292
   37MOL   H157 7429   3.350   2.149   3.034  3.2612 -2.3574  0.3904
   37MOL   H158 7430   3.310   1.983   3.006 -1.0735  0.7176  1.0611
   37MOL   H159 7431   3.467   2.276   2.838 -1.8298  0.0504 -0.2851
   37MOL   H160 7432   3.466   2.275   2.587 -1.4589  0.0156  1.6501
   37MOL   H161 7433   3.517   2.107   2.577  1.2686 -1.4011  1.7113
   37MOL   C162 7434   3.666   2.254   2.647  0.8944  0.6315 -0.1872
   37MOL   C163 7435   3.735   2.295   2.514  0.1663  0.3336  0.0210
   37MOL  Cl164 7436   3.651   2.258   2.375 -0.2694 -0.2093  0.1090
   37MOL   C165 7437   3.862   2.337   2.512  0.2152  0.3634 -0.0679
   37MOL   C166 7438   3.951   2.361   2.387  0.4942 -0.5404  0.4981
   37MOL   H167 7439   3.668   2.342   2.711  2.0949  0.3969  0.1024
   37MOL   H168 7440   3.737   2.187   2.694  2.0974 -0.0726 -2.8891
   37MOL   H169 7441   3.912   2.344   2.607  0.4400 -1.4308 -0.0469
   37MOL   H170 7442   3.885   2.349   2.301 -0.3529  1.7370  0.7932
   37MOL   H171 7443   3.982   2.465   2.385  0.7768 -0.6305 -0.7156
   37MOL   C172 7444   4.076   2.269   2.389 -0.5576 -0.2040  0.1768
   37MOL   C173 7445   4.191   2.299   2.290 -0.5176  0.3517 -0.1706
   37MOL  Cl174 7446   4.302   2.167   2.293  0.0955 -0.5187  0.2112
   37MOL   C175 7447   4.207   2.419   2.224  0.3430 -0.2190  0.0825
   37MOL   C176 7448   4.316   2.456   2.132 -0.8655  0.0569  0.5640
   37MOL   H177 7449   4.044   2.165   2.379 -2.1331  0.3230 -0.3877
   37MOL   H178 7450   4.106   2.285   2.493 -0.5941 -0.5815  0.2473
   37MOL   H179 7451   4.131   2.493   2.244 -0.8249 -1.6680  1.1571
   37MOL   H180 7452   4.277   2.513   2.048  0.7044  0.1680 -0.1130
   37MOL   H181 7453   4.371   2.364   2.112  0.6141  1.0347  0.0654
   37MOL   C182 7454   4.422   2.547   2.205  0.2357  0.0136  0.1830
   37MOL   C183 7455   4.524   2.591   2.105  0.3876  0.5309  0.3751
   37MOL  Cl184 7456   4.483   2.733   2.012 -0.8392  0.2005 -0.1161
   37MOL   C185 7457   4.639   2.525   2.089 -0.2033 -0.3962  0.1318
   37MOL   C186 7458   4.751   2.564   1.987  0.4975 -0.4912 -0.2398
   37MOL   H187 7459   4.380   2.635   2.253  1.8115  0.3237  1.0029
   37MOL   H188 7460   4.459   2.489   2.289 -0.5339  1.4758  1.5442
   37MOL   H189 7461   4.657   2.442   2.156  1.4089 -1.8012 -1.9849
   37MOL   H190 7462   4.760   2.477   1.922 -0.7085 -1.3063  0.6510
   37MOL   H191 7463   4.727   2.638   1.911 -1.3053  0.5125  1.2566
   37MOL   C192 7464   4.883   2.615   2.057  0.2531  0.8026  0.2688
   37MOL   C193 7465   5.005   2.606   1.961  0.7386 -0.6709 -0.6647
   37MOL  Cl194 7466   5.047   2.758   1.907  0.2323  0.0084 -0.0917
   37MOL   C195 7467   5.066   2.496   1.919  0.2236  0.1914  0.2148
   37MOL   C196 7468   5.028   2.346   1.954 -0.4809  0.1660 -0.0342
   37MOL   H197 7469   4.899   2.563   2.151 -1.0716  1.0695  0.6502
   37MOL   H198 7470   4.865   2.720   2.081 -3.1489  0.5022 -0.5745
   37MOL   H199 7471   5.147   2.505   1.848  1.7730 -1.3906  1.7000
   37MOL   H200 7472   4.991   2.363   2.055 -0.4993 -1.9906  0.3426
   37MOL   H201 7473   5.102   2.266   1.949 -1.9481 -1.1206 -1.5540
   37MOL   H202 7474   4.941   2.320   1.894  1.4375 -2.0168 -1.9442
   38MOL     C1 7475   6.951   7.354   7.454  0.7054 -0.2351 -0.8829
   38MOL     C2 7476   6.805   7.359   7.500  0.2389 -0.2640  0.1063
   38MOL    Cl3 7477   6.792   7.274   7.648  0.3325  0.2728  0.0937
   38MOL     C4 7478   6.703   7.407   7.425  0.5691  0.0461  0.1105
   38MOL     C5 7479   6.725   7.483   7.296 -0.7360  0.2381 -0.1226
   38MOL     H6 7480   6.974   7.377   7.350  1.8288 -1.6297 -0.9646
   38MOL     H7 7481   6.978   7.249   7.464  0.1754 -0.1446  1.8828
   38MOL     H8 7482   6.603   7.400   7.463  0.4129  2.2340  0.1677
   38MOL     H9 7483   6.649   7.562   7.290  0.4800  1.4857  0.7482
   38MOL    H10 7484   6.818   7.540   7.301 -1.3055  1.2884 -1.0679
   38MOL    H11 7485   7.017   7.418   7.512  0.1407  1.1727 -1.7563
   38MOL    C12 7486   6.729   7.395   7.169 -0.6762 -0.1338 -0.9486
   38MOL    C13 7487   6.773   7.471   7.040  0.3045 -0.2091  0.3733
   38MOL   Cl14 7488   6.731   7.641   7.037  0.0752 -0.0760 -0.4932
   38MOL    C15 7489   6.818   7.415   6.928  0.1828 -0.6666 -0.4801
   38MOL    C16 7490   6.853   7.271   6.905  0.4675  0.2964 -0.4428
   38MOL    H17 7491   6.800   7.315   7.188 -0.9705 -0.2138 -0.1780
   38MOL    H18 7492   6.630   7.355   7.146 -0.8959 -1.4375  2.0539
   38MOL    H19 7493   6.832   7.484   6.846 -3.2515  1.5362  0.6467
   38MOL    H20 7494   6.951   7.236   6.938 -0.5265 -1.7503  0.4411
   38MOL    H21 7495   6.786   7.203   6.957  1.5167  0.3162  0.9440
   38MOL    C22 7496   6.852   7.248   6.755 -0.2216 -0.2212  0.1131
   38MOL    C23 7497   6.893   7.107   6.717  0.4083  0.7495 -0.6048
   38MOL   Cl24 7498   7.036   7.090   6.626  0.1924 -0.1154  0.5323
   38MOL    C25 7499   6.822   7.003   6.755 -0.8051  0.5804 -0.0300
   38MOL    C26 7500   6.848   6.857   6.737 -0.1851  1.0801  0.3442
   38MOL    H27 7501   6.751   7.266   6.716  1.0327  1.4401 -2.5224
   38MOL    H28 7502   6.911   7.323   6.703 -0.0232 -1.1714 -1.0530
   38MOL    H29 7503   6.730   7.022   6.807 -0.4068  1.5431  0.3193
   38MOL    H30 7504   6.784   6.813   6.660  1.5911 -2.0185  0.5483
   38MOL    H31 7505   6.946   6.842   6.692  0.1646 -1.2255  1.7669
   38MOL    C32 7506   6.840   6.771   6.863  0.5840 -0.0825 -0.3045
   38MOL    C33 7507   6.928   6.815   6.973 -0.6259  0.1636  0.7797
   38MOL   Cl34 7508   6.877   6.731   7.115  0.6171 -0.2974 -0.3038
   38MOL    C35 7509   7.035   6.900   6.969  0.2223 -0.1765 -0.1753
   38MOL    C36 7510   7.136   6.932   7.086  0.5115  0.5596  1.0882
   38MOL    H37 7511   6.738   6.778   6.900 -0.7483 -0.1238 -3.7622
   38MOL    H38 7512   6.863   6.668   6.837  1.3264 -0.3473  1.3359
   38MOL    H39 7513   7.065   6.955   6.881 -0.1318  1.5779  0.7921
   38MOL    H40 7514   7.091   6.899   7.180 -0.1822 -0.2773  0.4786
   38MOL    H41 7515   7.222   6.868   7.069  0.3731  0.7674 -0.4887
   38MOL    C42 7516   7.177   7.081   7.097 -0.2848 -0.1816  0.2869
   38MOL    C43 7517   7.278   7.110   7.208  0.3072  0.3526 -0.0086
   38MOL   Cl44 7518   7.201   7.178   7.341 -0.1334 -0.1207 -0.1203
   38MOL    C45 7519   7.409   7.080   7.208 -0.3422  0.0634 -0.0502
   38MOL    C46 7520   7.489   7.008   7.101  0.0334  0.2130 -0.2780
   38MOL    H47 7521   7.227   7.104   7.003 -0.4460 -0.2786  0.1780
   38MOL    H48 7522   7.092   7.149   7.098  2.4272  3.3574  0.5786
   38MOL    H49 7523   7.469   7.106   7.293 -0.2918  0.6509 -0.2641
   38MOL    H50 7524   7.432   7.000   7.009  1.8989  0.8116 -1.5030
   38MOL    H51 7525   7.568   7.077   7.072 -1.6257  1.4519 -1.9554
   38MOL    C52 7526   7.538   6.869   7.144 -0.5191  0.0759  0.1003
   38MOL    C53 7527   7.603   6.795   7.029 -0.2644 -0.4240 -0.1597
   38MOL   Cl54 7528   7.496   6.721   6.916 -0.1734 -0.4403 -0.4010
   38MOL    C55 7529   7.733   6.773   7.023  0.1586 -0.5401 -0.1974
   38MOL    C56 7530   7.804   6.683   6.928  0.6478  0.9386 -0.3240
   38MOL    H57 7531   7.605   6.879   7.229 -0.8118 -1.9071  0.6084
   38MOL    H58 7532   7.460   6.800   7.179 -0.1287 -1.3280 -1.7013
   38MOL    H59 7533   7.793   6.816   7.103 -1.3064  2.3574 -0.6034
   38MOL    H60 7534   7.805   6.587   6.981 -2.1417  0.6316 -0.7585
   38MOL    H61 7535   7.744   6.669   6.838 -1.3393  1.2643  0.9280
   38MOL    C62 7536   7.946   6.717   6.890 -0.2058 -0.4413 -1.4381
   38MOL    C63 7537   8.038   6.592   6.887 -0.2746 -0.6607  0.1209
   38MOL   Cl64 7538   8.130   6.589   7.033  0.0693  0.2720 -0.1622
   38MOL    C65 7539   8.049   6.508   6.784 -0.2331 -0.0287  0.5071
   38MOL    C66 7540   8.136   6.383   6.786 -0.1109  0.3028  0.1802
   38MOL    H67 7541   7.939   6.745   6.785  1.0970 -0.7862 -1.6302
   38MOL    H68 7542   7.996   6.794   6.949  2.6986 -0.9526 -3.1339
   38MOL    H69 7543   7.989   6.524   6.695  0.6712 -1.1693 -0.3241
   38MOL    H70 7544   8.212   6.391   6.863 -1.6599  1.0083  1.6890
   38MOL    H71 7545   8.187   6.364   6.692  0.3547 -0.1608  0.5230
   38MOL    C72 7546   8.055   6.251   6.824 -0.5966  0.1483  0.6861
   38MOL    C73 7547   8.145   6.122   6.826 -0.7625 -0.0677  0.2845
   38MOL   Cl74 7548   8.160   6.032   6.678 -0.1160 -0.1885 -0.2170
   38MOL    C75 7549   8.191   6.076   6.942 -0.5818  0.0976  0.2046
   38MOL    C76 7550   8.267   5.942   6.965  0.5033 -1.4693 -0.1991
   38MOL    H77 7551   7.980   6.227   6.749  0.7040 -2.3541  0.1260
   38MOL    H78 7552   8.000   6.247   6.917 -0.4232 -0.5020  0.7685
   38MOL    H79 7553   8.162   6.135   7.028 -1.0174 -0.9788  0.8217
   38MOL    H80 7554   8.367   5.969   7.001 -0.0006 -0.0795  0.2025
   38MOL    H81 7555   8.262   5.884   6.873 -1.1470 -0.8188 -0.5422
   38MOL    C82 7556   8.197   5.841   7.061  0.7562 -0.6272 -0.5527
   38MOL    C83 7557   8.288   5.794   7.170  0.8765 -0.1235 -0.2282
   38MOL   Cl84 7558   8.376   5.654   7.133  0.2969 -0.1758 -0.0389
   38MOL    C85 7559   8.313   5.869   7.279  0.1861  0.1139  1.4024
   38MOL    C86 7560   8.414   5.838   7.387 -0.4929  0.9387 -0.8594
   38MOL    H87 7561   8.149   5.762   7.003 -4.3406  0.3039  2.1243
   38MOL    H88 7562   8.109   5.887   7.107 -0.0201 -2.3356 -0.3206
   38MOL    H89 7563   8.257   5.960   7.295 -0.0841  0.3528 -0.6814
   38MOL    H90 7564   8.370   5.884   7.475  2.6754  0.3199  1.1632
   38MOL    H91 7565   8.420   5.729   7.394 -2.4816  0.8082 -1.0600
   38MOL    C92 7566   0.128   5.896   7.356 -0.2076  0.0162 -0.1886
   38MOL    C93 7567   0.224   5.907   7.472 -0.9332  0.5881 -0.4358
   38MOL   Cl94 7568   0.304   6.056   7.486 -0.1549  0.0124 -0.2636
   38MOL    C95 7569   0.259   5.805   7.554 -0.2610 -0.2703  0.4881
   38MOL    C96 7570   0.214   5.663   7.535  0.4742 -0.4589  0.4577
   38MOL    H97 7571   0.110   5.999   7.324  1.0146  1.0105  2.1580
   38MOL    H98 7572   0.171   5.841   7.272 -0.6617 -0.1786 -0.2942
   38MOL    H99 7573   0.322   5.830   7.638 -0.1754 -0.1437  0.3870
   38MOL   H100 7574   0.172   5.645   7.436 -4.2050 -1.0073  2.3731
   38MOL   H101 7575   0.300   5.598   7.547  0.0577 -0.9413  0.8638
   38MOL   C102 7576   0.105   5.624   7.645  0.2626  0.0130 -0.2640
   38MOL   C103 7577   0.047   5.484   7.631  0.1296 -0.6414 -0.1494
   38MOL  Cl104 7578   0.093   5.399   7.494 -0.1027  0.1108  0.1984
   38MOL   C105 7579   8.376   5.435   7.721 -0.1969 -0.2799  0.1207
   38MOL   C106 7580   8.313   5.300   7.705  0.6357  0.8138  0.2554
   38MOL   H107 7581   0.150   5.633   7.743  0.7686 -2.2827 -0.2414
   38MOL   H108 7582   0.027   5.699   7.633 -1.7162 -2.3712 -3.1584
   38MOL   H109 7583   8.350   5.501   7.802 -2.9847 -0.8014 -0.2853
   38MOL   H110 7584   8.344   5.251   7.612  0.3512  1.5707 -0.2496
   38MOL   H111 7585   8.346   5.241   7.790 -2.3939  0.0237  0.9637
   38MOL   C112 7586   8.156   5.304   7.700  0.4814  0.1010 -0.6400
   38MOL   C113 7587   8.092   5.368   7.823  0.3660  0.0784  0.5193
   38MOL  Cl114 7588   8.038   5.525   7.791 -0.4552 -0.3146  0.2226
   38MOL   C115 7589   8.051   5.308   7.936 -0.3788  0.5364 -0.2284
   38MOL   C116 7590   8.076   5.173   7.985 -0.3566  0.5575 -0.3321
   38MOL   H117 7591   8.114   5.370   7.624 -1.1090  1.4378  1.3684
   38MOL   H118 7592   8.113   5.205   7.681 -1.1688  0.4383  1.2521
   38MOL   H119 7593   7.992   5.372   8.000 -1.6530 -0.7605 -0.0834
   38MOL   H120 7594   8.155   5.180   8.061 -0.5405 -2.5589  0.2318
   38MOL   H121 7595   8.119   5.112   7.906  0.1304  1.4234 -0.7416
   38MOL   C122 7596   7.956   5.123   8.060 -0.6403  0.5271 -0.4375
   38MOL   C123 7597   7.980   4.983   8.109  0.1603 -0.3334 -0.8477
   38MOL  Cl124 7598   7.987   4.859   7.980 -0.1924  0.0044 -0.0565
   38MOL   C125 7599   8.021   4.945   8.237 -0.1036 -0.3169 -0.4020
   38MOL   C126 7600   8.048   5.033   8.355  0.2029  0.3280  0.1686
   38MOL   H127 7601   7.919   5.185   8.142  2.0490 -0.5119  1.6453
   38MOL   H128 7602   7.874   5.112   7.989 -0.8011  2.2759 -0.5397
   38MOL   H129 7603   8.025   4.838   8.253 -1.2303  0.0567  2.6982
   38MOL   H130 7604   8.039   5.137   8.323  0.0630  0.7519  1.5563
   38MOL   H131 7605   7.984   5.010   0.020 -2.1970 -0.6622 -1.8170
   38MOL   C132 7606   8.195   5.025   8.411 -0.3456 -0.4312  0.4591
   38MOL   C133 7607   8.255   5.138   0.076  0.0961 -0.0841  0.1435
   38MOL  Cl134 7608   8.271   5.090   0.239 -0.1422  0.1353  0.2633
   38MOL   C135 7609   8.319   5.251   0.034  0.4471 -0.1565  0.4977
   38MOL   C136 7610   8.330   5.303   8.308  0.7011 -0.8611  0.3779
   38MOL   H137 7611   8.209   4.929   0.040  0.5862 -0.1125  0.8195
   38MOL   H138 7612   8.261   5.026   8.324 -0.4687 -1.6144  0.3365
   38MOL   H139 7613   8.370   5.318   0.102  0.2734  1.1219 -0.6140
   38MOL   H140 7614   0.012   5.333   8.286  0.2452  0.2078 -0.3219
   38MOL   H141 7615   8.308   5.220   8.241  1.4344  0.1172 -1.1110
   38MOL   C142 7616   8.228   5.414   8.267  0.4294 -0.8751 -0.1769
   38MOL   C143 7617   8.256   5.550   8.312  1.1166 -0.0234 -0.3643
   38MOL  Cl144 7618   8.154   5.656   8.226 -0.2789 -0.0189 -0.0816
   38MOL   C145 7619   8.341   5.600   8.401 -0.5309 -0.3226  0.6687
   38MOL   C146 7620   8.348   5.741   0.015 -0.5103 -0.3344  0.3818
   38MOL   H147 7621   8.134   5.371   8.302  0.8215 -0.4268  1.4818
   38MOL   H148 7622   8.229   5.419   8.158  0.6538  0.3719 -0.1261
   38MOL   H149 7623   8.416   5.541   0.030 -1.1018  0.4169  2.4629
   38MOL   H150 7624   8.328   5.811   8.355  1.5967 -0.6640 -0.4695
   38MOL   H151 7625   8.267   5.754   0.086 -2.3287 -1.4990 -1.4206
   38MOL   C152 7626   0.053   5.781   0.094 -0.3207 -0.5520  0.5235
   38MOL   C153 7627   0.045   5.926   0.132  0.6118  0.6492  0.1037
   38MOL  Cl154 7628   0.086   5.954   0.290 -0.1588 -0.2008 -0.3066
   38MOL   C155 7629   0.027   6.023   0.037 -0.6136 -0.0241 -0.1762
   38MOL   C156 7630   0.031   6.171   0.069 -0.1232  0.0580 -0.5910
   38MOL   H157 7631   0.067   5.709   0.175  0.5778 -0.0611  0.8165
   38MOL   H158 7632   0.132   5.761   0.022 -0.5132  1.3599 -0.2474
   38MOL   H159 7633   0.011   6.000   8.354  1.7538 -0.1180 -0.5481
   38MOL   H160 7634   0.124   6.217   0.036 -0.2367  1.3132  0.8050
   38MOL   H161 7635   0.033   6.184   0.177  0.3271 -2.2418 -0.2871
   38MOL   C162 7636   8.329   6.262   0.022 -0.5223 -0.3441 -0.4696
   38MOL   C163 7637   8.348   6.413   0.027  0.0506  0.5363  0.0022
   38MOL  Cl164 7638   0.026   6.476   8.321  0.1662  0.0713  0.5347
   38MOL   C165 7639   8.293   6.493   0.122 -1.0238  0.2921  0.5665
   38MOL   C166 7640   8.300   6.650   0.124  0.6692 -0.6585  0.2722
   38MOL   H167 7641   8.306   6.244   8.338  4.1310  3.4570 -2.3091
   38MOL   H168 7642   8.241   6.248   0.086 -0.4587 -0.4962 -0.4150
   38MOL   H169 7643   8.228   6.454   0.198 -0.1182 -0.3152  1.0369
   38MOL   H170 7644   8.377   6.670   0.198 -0.0184  3.8065 -0.1119
   38MOL   H171 7645   8.355   6.686   0.037  1.3269 -3.5384 -0.5804
   38MOL   C172 7646   8.168   6.710   0.154 -0.1896  0.6642  0.0607
   38MOL   C173 7647   8.174   6.846   0.216  0.1895 -0.4823 -0.2501
   38MOL  Cl174 7648   8.240   6.969   0.111  0.0294 -0.0895  0.5822
   38MOL   C175 7649   8.137   6.880   0.339  0.2437 -0.8712 -0.5340
   38MOL   C176 7650   8.138   7.019   0.396  0.4844  0.6928  0.5471
   38MOL   H177 7651   8.106   6.651   0.222 -0.8453  0.5938 -0.5951
   38MOL   H178 7652   8.106   6.719   0.065  2.2412  0.4698 -1.6807
   38MOL   H179 7653   8.100   6.806   0.408  0.6890 -0.0595  0.5783
   38MOL   H180 7654   8.223   7.082   0.369  0.0905 -0.7144 -4.3804
   38MOL   H181 7655   8.150   7.019   0.505 -2.4906 -0.3629  0.9077
   38MOL   C182 7656   8.011   7.103   0.357 -0.2045 -0.9669  0.2291
   38MOL   C183 7657   7.996   7.228   0.443 -0.3757  0.4924  0.5359
   38MOL  Cl184 7658   7.938   7.354   0.344  0.2708  0.0877 -0.2164
   38MOL   C185 7659   8.007   7.243   0.577  0.3116 -0.2458  0.5523
   38MOL   C186 7660   7.993   7.371   0.655  0.1866 -0.1764 -0.0659
   38MOL   H187 7661   8.020   7.128   0.252 -2.3151 -0.0189  0.2393
   38MOL   H188 7662   7.919   7.046   0.370 -1.7196  1.5158  0.6642
   38MOL   H189 7663   8.038   7.164   0.644  1.3902 -0.2074  0.1204
   38MOL   H190 7664   8.071   7.366   0.731  0.2434  0.2404 -0.0941
   38MOL   H191 7665   8.028   7.457   0.597  0.6173 -0.8303 -0.7757
   38MOL   C192 7666   7.862   7.370   0.733 -0.5450 -0.0282  0.8868
   38MOL   C193 7667   7.849   7.504   0.807 -0.0705  0.0577  0.1995
   38MOL  Cl194 7668   7.845   7.477   0.976  0.3431  0.0587  0.0709
   38MOL   C195 7669   7.846   7.626   0.751  0.6778  0.3554  0.3181
   38MOL   C196 7670   7.849   7.659   0.603  0.3200  0.3056 -0.2703
   38MOL   H197 7671   7.860   7.286   0.803  1.4899 -1.2661 -0.4751
   38MOL   H198 7672   7.776   7.360   0.666 -0.5547 -3.3264  1.2972
   38MOL   H199 7673   7.839   7.715   0.812 -0.9801  0.5505 -0.1311
   38MOL   H200 7674   7.756   7.715   0.590  1.6512  2.3128 -1.4906
   38MOL   H201 7675   7.847   7.569   0.542  1.9779  1.0577 -1.4650
   38MOL   H202 7676   7.939   7.715   0.576  0.0253 -0.0899 -2.0948
   39MOL     C1 7677   1.440   3.467   2.504 -0.2956 -0.7736 -0.2741
   39MOL     C2 7678   1.351   3.350   2.516 -0.0176  1.0702  0.4580
   39MOL    Cl3 7679   1.445   3.211   2.548  0.0626 -0.1074  0.3425
   39MOL     C4 7680   1.222   3.346   2.501  0.0927 -1.1490  0.5884
   39MOL     C5 7681   1.131   3.463   2.471 -0.0833 -0.2710 -0.4552
   39MOL     H6 7682   1.503   3.455   2.592 -0.4883  1.4399  0.2131
   39MOL     H7 7683   1.388   3.562   2.521 -1.3850 -1.5700  0.8846
   39MOL     H8 7684   1.174   3.249   2.508 -0.6390 -0.8336  0.0859
   39MOL     H9 7685   1.093   3.495   2.567 -0.1228  1.5150 -1.0467
   39MOL    H10 7686   1.181   3.544   2.418  0.4516 -0.3471 -0.0712
   39MOL    H11 7687   1.506   3.469   2.416 -0.4188  0.1790 -0.3519
   39MOL    C12 7688   1.004   3.419   2.391 -0.3821 -0.1949 -0.0272
   39MOL    C13 7689   0.956   3.531   2.302  1.4685 -0.7225  0.3903
   39MOL   Cl14 7690   1.026   3.519   2.143  0.0998 -0.0499  0.1014
   39MOL    C15 7691   0.868   3.631   2.323  0.0851  0.1960 -0.0192
   39MOL    C16 7692   0.795   3.647   2.457 -0.2965 -0.5101 -0.3265
   39MOL    H17 7693   1.031   3.340   2.321  0.4089 -1.3147  1.5168
   39MOL    H18 7694   0.923   3.375   2.450 -0.7271  0.5831  0.0910
   39MOL    H19 7695   0.847   3.700   2.242  0.2341 -0.5901 -0.7276
   39MOL    H20 7696   0.687   3.645   2.444 -0.3999 -0.8305  0.5806
   39MOL    H21 7697   0.825   3.565   2.521 -1.1997 -2.0215 -1.7930
   39MOL    C22 7698   0.845   3.782   2.512 -0.7222 -0.5405 -0.0479
   39MOL    C23 7699   0.782   3.827   2.644 -0.3242 -0.0164 -0.2927
   39MOL   Cl24 7700   0.802   3.711   2.773  0.5731 -0.1561 -0.0137
   39MOL    C25 7701   0.717   3.942   2.662 -0.3740  0.5247  0.5608
   39MOL    C26 7702   0.645   3.995   2.785  0.9299  0.0839 -0.0589
   39MOL    H27 7703   0.951   3.791   2.534 -0.8735  0.7778  0.1636
   39MOL    H28 7704   0.824   3.862   2.441  1.2945  0.3706  0.3436
   39MOL    H29 7705   0.702   4.011   2.581  1.6611 -0.6076 -0.8371
   39MOL    H30 7706   0.539   3.984   2.761  0.0637  3.3739  1.9544
   39MOL    H31 7707   0.667   3.942   2.878 -1.0315  2.0677  1.5877
   39MOL    C32 7708   0.671   4.147   2.801 -0.1167 -0.3997  0.4324
   39MOL    C33 7709   0.616   4.194   2.935  1.2745  0.1983 -0.0561
   39MOL   Cl34 7710   0.454   4.239   2.909 -0.0298  0.2262  0.3115
   39MOL    C35 7711   0.673   4.181   3.056  0.2301  0.0629 -0.5509
   39MOL    C36 7712   0.617   4.223   3.187 -0.7685 -0.5997 -0.2373
   39MOL    H37 7713   0.776   4.175   2.789 -0.2594  0.8378  1.8226
   39MOL    H38 7714   0.614   4.201   2.726  2.2764 -0.5363 -1.5232
   39MOL    H39 7715   0.771   4.138   3.065  1.1949  2.0023 -1.5464
   39MOL    H40 7716   0.529   4.287   3.175  0.4689  0.8862 -1.5706
   39MOL    H41 7717   0.578   4.140   3.245  0.6687 -1.0399  0.1078
   39MOL    C42 7718   0.726   4.302   3.262 -0.2491  0.8337 -0.2461
   39MOL    C43 7719   0.695   4.334   3.411 -0.3339  0.0144 -0.5589
   39MOL   Cl44 7720   0.756   4.220   3.516  0.1455 -0.0372 -0.6696
   39MOL    C45 7721   0.640   4.452   3.457  0.4438 -0.0502 -0.1808
   39MOL    C46 7722   0.583   4.565   3.373 -1.0013 -0.3345  0.1808
   39MOL    H47 7723   0.811   4.235   3.259  0.2150  1.4644 -1.3215
   39MOL    H48 7724   0.759   4.393   3.211 -1.6321  1.8956  0.6934
   39MOL    H49 7725   0.633   4.471   3.563 -4.3737 -1.9034 -0.0189
   39MOL    H50 7726   0.596   4.530   3.270  1.2215 -1.0042  0.6566
   39MOL    H51 7727   0.476   4.579   3.391 -0.7816  2.7274 -0.6051
   39MOL    C52 7728   0.674   4.689   3.382  0.7691  0.2691  0.3731
   39MOL    C53 7729   0.601   4.815   3.325 -0.4010  0.3913  0.2494
   39MOL   Cl54 7730   0.663   4.847   3.159 -0.1887  0.0121  0.2453
   39MOL    C55 7731   0.501   4.875   3.383  0.2324 -0.1420  0.2961
   39MOL    C56 7732   0.433   4.994   3.320 -0.7111 -0.1607 -0.3952
   39MOL    H57 7733   0.686   4.698   3.489  0.2290  2.3172  0.2841
   39MOL    H58 7734   0.772   4.672   3.336  1.5345 -1.2587  2.5116
   39MOL    H59 7735   0.458   4.842   3.476 -1.7293  1.4578 -0.0096
   39MOL    H60 7736   0.433   5.080   3.387 -2.3421  0.2607 -0.9038
   39MOL    H61 7737   0.488   5.026   3.231 -0.5075 -0.4921 -0.3909
   39MOL    C62 7738   0.282   4.974   3.284  0.0236  0.5810 -0.2241
   39MOL    C63 7739   0.192   4.939   3.396 -0.2164  0.2024 -0.3846
   39MOL   Cl64 7740   0.117   5.077   3.462  0.0443  0.1077 -0.1090
   39MOL    C65 7741   0.160   4.813   3.432 -0.6597 -0.3344  0.2865
   39MOL    C66 7742   0.076   4.777   3.544 -0.0282  0.2563 -0.3519
   39MOL    H67 7743   0.239   5.061   3.234 -0.4834  0.0155 -0.7865
   39MOL    H68 7744   0.281   4.892   3.212 -3.6236  1.4163 -1.2157
   39MOL    H69 7745   0.196   4.738   3.363 -3.1807  0.2868 -1.7823
   39MOL    H70 7746   0.083   4.840   3.633 -0.9153 -1.9009  1.2812
   39MOL    H71 7747   0.115   4.681   3.578 -1.6537 -0.3672 -0.2402
   39MOL    C72 7748   8.352   4.763   3.503 -0.4160  0.4522  0.5306
   39MOL    C73 7749   8.258   4.729   3.625 -0.2071 -0.0972 -0.2791
   39MOL   Cl74 7750   8.213   4.870   3.719 -0.5282 -0.6738 -0.1884
   39MOL    C75 7751   8.210   4.609   3.656  0.3368  0.0767  0.2561
   39MOL    C76 7752   8.133   4.585   3.774  0.2501  0.1286 -0.1903
   39MOL    H77 7753   8.341   4.692   3.421  1.2566  2.0130 -1.0964
   39MOL    H78 7754   8.309   4.858   3.472  0.0813  0.0816 -1.3383
   39MOL    H79 7755   8.218   4.519   3.597  1.2519 -0.1283  0.6758
   39MOL    H80 7756   8.122   4.675   3.835  1.6605 -0.6192  1.2061
   39MOL    H81 7757   8.192   4.508   3.824  0.5582  1.3314  1.3467
   39MOL    C82 7758   7.997   4.517   3.738  0.5677 -0.0907  0.8200
   39MOL    C83 7759   7.915   4.595   3.638  0.6736 -0.5212  0.1659
   39MOL   Cl84 7760   7.797   4.688   3.716  0.4040  0.1197 -0.0258
   39MOL    C85 7761   7.922   4.590   3.505  0.1397 -0.4758  0.0524
   39MOL    C86 7762   7.835   4.670   3.410 -0.3353 -0.3302 -0.5990
   39MOL    H87 7763   7.933   4.491   3.822 -0.5705  1.3184  0.4031
   39MOL    H88 7764   8.017   4.429   3.676 -1.0862  1.1382 -1.5294
   39MOL    H89 7765   8.006   4.531   3.473  1.8308 -0.7747  4.6526
   39MOL    H90 7766   7.774   4.745   3.460 -0.6585 -2.2178  2.0054
   39MOL    H91 7767   7.904   4.717   3.340  0.8778  0.7662  1.2793
   39MOL    C92 7768   7.749   4.584   3.321  0.0237 -0.3197  0.4359
   39MOL    C93 7769   7.667   4.661   3.221 -1.0081  0.7477  0.7078
   39MOL   Cl94 7770   7.744   4.672   3.063 -0.2364  0.5985  0.2794
   39MOL    C95 7771   7.552   4.719   3.252 -0.2963 -0.0473  0.4102
   39MOL    C96 7772   7.476   4.720   3.380 -0.8631  0.2038 -0.7199
   39MOL    H97 7773   7.699   4.518   3.392 -2.1290 -0.7345 -1.4007
   39MOL    H98 7774   7.809   4.512   3.265 -1.0217  0.3248 -1.5803
   39MOL    H99 7775   7.499   4.772   3.174  0.8236 -1.0371 -1.0685
   39MOL   H100 7776   7.374   4.687   3.359 -0.9794 -0.1255  0.3311
   39MOL   H101 7777   7.523   4.644   3.442 -0.0847  2.2152  1.2565
   39MOL   C102 7778   7.464   4.868   3.436  0.1308 -0.5363 -0.0315
   39MOL   C103 7779   7.397   4.865   3.573  0.3486 -0.7024 -0.1952
   39MOL  Cl104 7780   7.225   4.860   3.562 -0.3007  0.0980  0.5466
   39MOL   C105 7781   7.465   4.869   3.689 -0.1034  0.4568  0.1775
   39MOL   C106 7782   7.404   4.860   3.826  0.8990  0.5057  0.1885
   39MOL   H107 7783   7.559   4.922   3.442  0.0083 -0.2812 -0.3320
   39MOL   H108 7784   7.399   4.927   3.371  0.2509  0.8765  1.0937
   39MOL   H109 7785   7.572   4.879   3.689  0.4175 -3.8963  0.1902
   39MOL   H110 7786   7.307   4.810   3.823  1.1601 -0.1306  1.8932
   39MOL   H111 7787   7.459   4.794   3.892  1.4114 -0.3356 -1.0530
   39MOL   C112 7788   7.387   5.003   3.876 -0.3595 -0.3447  0.3335
   39MOL   C113 7789   7.340   5.011   4.015 -0.4251  0.2692 -0.2915
   39MOL  Cl114 7790   7.478   5.047   4.124  0.5515 -0.2754 -0.3820
   39MOL   C115 7791   7.216   5.026   4.057  0.7311 -0.4146  0.0766
   39MOL   C116 7792   7.089   5.029   3.972  0.3305 -0.4599 -0.0719
   39MOL   H117 7793   7.475   5.066   3.864 -0.2171 -0.4345  0.8774
   39MOL   H118 7794   7.310   5.051   3.815  0.9997 -0.9705 -1.9351
   39MOL   H119 7795   7.206   5.037   4.164  1.1324 -2.0704  0.2928
   39MOL   H120 7796   7.115   4.990   3.873  1.6771  2.2011 -0.8001
   39MOL   H121 7797   7.063   5.134   3.965  0.4005 -0.2953  1.8249
   39MOL   C122 7798   6.967   4.955   4.038  0.3023 -0.0329 -0.0716
   39MOL   C123 7799   6.982   4.799   4.040  0.4384  0.3287 -0.3155
   39MOL  Cl124 7800   7.006   4.741   4.196  0.1979  0.2821 -0.3438
   39MOL   C125 7801   6.961   4.713   3.945  0.6223 -0.3172  0.4906
   39MOL   C126 7802   6.929   4.744   3.798  0.2317 -0.5840  0.1135
   39MOL   H127 7803   6.947   4.993   4.138 -0.3463  1.7378 -0.8419
   39MOL   H128 7804   6.874   4.982   3.987 -0.7610 -1.1127  1.2833
   39MOL   H129 7805   6.963   4.608   3.972  2.3090 -1.2786 -3.0787
   39MOL   H130 7806   6.940   4.852   3.793  0.9304 -0.5551  1.8437
   39MOL   H131 7807   7.001   4.696   3.732  0.9042  0.4679  0.0805
   39MOL   C132 7808   6.784   4.698   3.755 -0.0742 -0.2723  0.1981
   39MOL   C133 7809   6.745   4.757   3.628 -0.2815 -0.0306  0.1301
   39MOL  Cl134 7810   6.753   4.646   3.505  0.0095  0.1103 -0.3424
   39MOL   C135 7811   6.694   4.881   3.618  0.1852 -0.9887  0.4457
   39MOL   C136 7812   6.684   4.982   3.726 -0.0213  0.0799 -0.5295
   39MOL   H137 7813   6.777   4.589   3.761  1.9558 -0.4327 -0.0642
   39MOL   H138 7814   6.717   4.740   3.830  1.9495  0.6849  1.5404
   39MOL   H139 7815   6.650   4.906   3.522  0.0181 -0.1668  0.7316
   39MOL   H140 7816   6.581   4.978   3.761  0.4225 -1.3664  0.6594
   39MOL   H141 7817   6.749   4.961   3.811 -0.3289  0.6673 -0.1494
   39MOL   C142 7818   6.723   5.120   3.689  0.3146 -0.2885 -0.2622
   39MOL   C143 7819   6.751   5.214   3.801  0.6173 -1.1426 -0.2688
   39MOL  Cl144 7820   6.910   5.289   3.790 -0.1438  0.3192 -0.1092
   39MOL   C145 7821   6.650   5.250   3.890 -0.2902 -0.2844 -0.2944
   39MOL   C146 7822   6.686   5.334   4.017  0.0035  0.6340 -0.5317
   39MOL   H147 7823   6.646   5.156   3.621  1.6609  4.1282  0.4087
   39MOL   H148 7824   6.806   5.114   3.619  1.3280 -0.0023  0.9032
   39MOL   H149 7825   6.550   5.212   3.880 -0.4091 -0.0559  0.0358
   39MOL   H150 7826   6.759   5.411   3.991  2.4945 -1.1205  1.0616
   39MOL   H151 7827   6.586   5.371   4.041 -0.6591 -2.9931  2.7977
   39MOL   C152 7828   6.727   5.254   4.143  0.3555  0.1151 -0.2699
   39MOL   C153 7829   6.620   5.158   4.198  0.2686 -0.1503  0.7275
   39MOL  Cl154 7830   6.609   5.009   4.111 -0.0413 -0.5622  0.2988
   39MOL   C155 7831   6.576   5.164   4.325 -0.3130 -0.2432  0.9039
   39MOL   C156 7832   6.490   5.069   4.402  0.5169  0.0752 -0.0282
   39MOL   H157 7833   6.817   5.200   4.113 -0.1705 -2.8461  3.1446
   39MOL   H158 7834   6.775   5.301   4.230  0.5130 -2.1541  0.8961
   39MOL   H159 7835   6.613   5.251   4.379  0.2572  0.3240 -0.3800
   39MOL   H160 7836   6.459   4.991   4.332  2.6025 -1.0047  0.2300
   39MOL   H161 7837   6.411   5.130   4.446  0.1753 -0.3515 -0.0352
   39MOL   C162 7838   6.557   4.998   4.525  0.2148 -0.8822  0.4125
   39MOL   C163 7839   6.467   4.956   4.628 -0.0012 -0.6235  0.2573
   39MOL  Cl164 7840   6.466   5.078   4.753 -0.1429 -0.3819  0.0001
   39MOL   C165 7841   6.385   4.846   4.627 -0.5195  0.1237 -0.3065
   39MOL   C166 7842   6.286   4.805   4.737  0.6889 -0.2165  0.4402
   39MOL   H167 7843   6.618   4.912   4.499  2.4142  0.5878  0.5228
   39MOL   H168 7844   6.623   5.077   4.561 -1.0054  0.2327  0.2547
   39MOL   H169 7845   6.381   4.780   4.541 -1.8093 -1.9707  1.3323
   39MOL   H170 7846   6.344   4.803   4.828 -0.7295  1.0471  1.4072
   39MOL   H171 7847   6.224   4.894   4.749  1.9570  0.5043  1.7774
   39MOL   C172 7848   6.206   4.676   4.717 -0.3696  0.0255 -0.6878
   39MOL   C173 7849   6.289   4.546   4.725  0.8351  0.0027 -0.0119
   39MOL  Cl174 7850   6.298   4.493   4.889 -0.0392  0.1329 -0.0687
   39MOL   C175 7851   6.334   4.481   4.618  0.1017  0.6948  0.4801
   39MOL   C176 7852   6.410   4.345   4.607 -0.1875  0.0018  0.6184
   39MOL   H177 7853   6.147   4.683   4.625 -1.2388  0.7659 -0.0808
   39MOL   H178 7854   6.135   4.673   4.799  0.5148 -1.4673  0.0505
   39MOL   H179 7855   6.314   4.522   4.521 -0.3954  1.2353  0.8032
   39MOL   H180 7856   6.342   4.287   4.546 -2.5237  1.4003  1.7774
   39MOL   H181 7857   6.391   4.305   4.707  0.6856  0.1399  0.8396
   39MOL   C182 7858   6.554   4.347   4.556  0.0566  0.0750  0.0553
   39MOL   C183 7859   6.605   4.206   4.525  0.5964 -1.0386  0.1550
   39MOL  Cl184 7860   6.566   4.167   4.360  0.0210 -0.2170  0.2543
   39MOL   C185 7861   6.668   4.121   4.604  0.9031  0.0281 -0.7610
   39MOL   C186 7862   6.731   3.995   4.565  0.1016  0.5954 -0.1309
   39MOL   H187 7863   6.569   4.411   4.470 -0.7700 -0.8104 -0.7577
   39MOL   H188 7864   6.615   4.396   4.632  0.5480 -1.4296  0.6521
   39MOL   H189 7865   6.684   4.150   4.707  1.5386 -0.7618 -0.6385
   39MOL   H190 7866   6.700   3.954   4.469 -0.8644  0.8597  0.0727
   39MOL   H191 7867   6.836   4.019   4.546  0.2895 -0.4149 -0.4509
   39MOL   C192 7868   6.720   3.882   4.675  1.1862  0.1879  0.5930
   39MOL   C193 7869   6.801   3.755   4.628  0.1982  0.0898 -0.3001
   39MOL  Cl194 7870   6.711   3.652   4.529  0.1486 -0.2327 -0.1403
   39MOL   C195 7871   6.927   3.730   4.672 -0.1831  0.1772  0.2045
   39MOL   C196 7872   7.014   3.821   4.754  0.2507 -0.0440  0.4565
   39MOL   H197 7873   6.616   3.851   4.677  0.4384  2.4344 -1.3977
   39MOL   H198 7874   6.756   3.921   4.771 -0.7467  0.2881  1.3035
   39MOL   H199 7875   6.965   3.635   4.640 -1.5845 -0.9291  1.7587
   39MOL   H200 7876   6.960   3.833   4.848  2.1840 -0.8686  1.7014
   39MOL   H201 7877   7.021   3.926   4.724  0.6166  0.8513  3.5279
   39MOL   H202 7878   7.110   3.781   4.787  0.3205 -0.2739 -0.0212
   40MOL     C1 7879   1.916   0.961   1.408 -0.1042 -0.2946  1.3577
   40MOL     C2 7880   1.774   0.905   1.440 -0.4229 -0.0450  0.5289
   40MOL    Cl3 7881   1.732   0.942   1.603  0.4168  0.3446 -0.5745
   40MOL     C4 7882   1.687   0.844   1.357 -0.0780  0.4743  0.6728
   40MOL     C5 7883   1.710   0.812   1.210  0.3784 -0.6498 -0.1585
   40MOL     H6 7884   1.952   1.002   1.502 -0.3497  0.2548  1.2179
   40MOL     H7 7885   1.912   1.048   1.342  0.6281 -1.8223 -0.7420
   40MOL     H8 7886   1.592   0.816   1.399  0.5189 -1.0113  1.0544
   40MOL     H9 7887   1.757   0.903   1.175 -0.6762 -0.6174 -1.5505
   40MOL    H10 7888   1.785   0.733   1.211  3.7734  2.4775  0.2508
   40MOL    H11 7889   1.984   0.882   1.376 -1.7147  0.0128 -3.2733
   40MOL    C12 7890   1.580   0.786   1.132  0.6856 -0.0691  0.0703
   40MOL    C13 7891   1.602   0.713   0.994 -1.0336  0.4737 -0.1424
   40MOL   Cl14 7892   1.631   0.832   0.866 -0.1786 -0.2716  0.0994
   40MOL    C15 7893   1.623   0.581   0.969 -0.8452  0.1043 -0.1122
   40MOL    C16 7894   1.623   0.466   1.066 -1.0212  0.5352  0.2936
   40MOL    H17 7895   1.500   0.738   1.187  0.0129  1.8807  0.8075
   40MOL    H18 7896   1.534   0.884   1.117  1.6182  0.1446 -1.6792
   40MOL    H19 7897   1.644   0.562   0.865  0.1425 -1.0681  0.3026
   40MOL    H20 7898   1.622   0.490   1.172  0.4433 -0.6077  0.5874
   40MOL    H21 7899   1.534   0.405   1.053 -0.3504 -0.1267 -1.4797
   40MOL    C22 7900   1.743   0.377   1.026 -0.0396  0.2248 -0.3343
   40MOL    C23 7901   1.774   0.253   1.108  0.2791 -0.1120  0.5987
   40MOL   Cl24 7902   1.932   0.261   1.184 -0.3650  0.1319  0.1761
   40MOL    C25 7903   1.694   0.143   1.116  0.4046 -0.6177 -0.5051
   40MOL    C26 7904   1.722   0.019   1.204 -0.7428 -0.0764 -0.6250
   40MOL    H27 7905   1.752   0.355   0.919 -2.5692  0.1757 -0.5876
   40MOL    H28 7906   1.839   0.424   1.044 -0.2171  0.0019  1.2233
   40MOL    H29 7907   1.605   0.146   1.056 -1.1733 -2.9045  1.5877
   40MOL    H30 7908   1.813   0.031   1.264 -0.3902  2.4855 -1.5990
   40MOL    H31 7909   1.644   0.002   1.278 -0.0283  2.9967  0.9470
   40MOL    C32 7910   1.749   8.314   1.119 -0.2663  0.1351 -0.3062
   40MOL    C33 7911   1.821   8.202   1.186  0.3493  0.4614 -0.0138
   40MOL   Cl34 7912   1.983   8.186   1.132 -0.1776 -0.0774 -0.4232
   40MOL    C35 7913   1.757   8.107   1.253 -0.3369 -0.4898 -0.1503
   40MOL    C36 7914   1.821   7.979   1.304  0.2853 -0.9333  0.2580
   40MOL    H37 7915   1.657   8.280   1.071  0.0174 -0.6174 -0.3244
   40MOL    H38 7916   1.814   8.342   1.036  2.5600 -0.6269  1.5761
   40MOL    H39 7917   1.651   8.125   1.266 -0.4713 -1.8736  0.7833
   40MOL    H40 7918   1.928   8.000   1.301  0.1183 -0.3384 -1.7976
   40MOL    H41 7919   1.798   7.958   1.409  0.8421 -0.5771  0.4518
   40MOL    C42 7920   1.788   7.861   1.209 -0.4525  0.0333 -0.0087
   40MOL    C43 7921   1.868   7.736   1.230  0.9906 -0.2252  0.0223
   40MOL   Cl44 7922   1.931   7.732   1.389 -0.0177 -0.1942 -0.0157
   40MOL    C45 7923   1.879   7.634   1.139 -0.4346 -0.3670  0.1792
   40MOL    C46 7924   1.811   7.636   0.997 -0.5874 -0.1606  0.0633
   40MOL    H47 7925   1.682   7.841   1.223 -0.1335 -0.3936  2.0232
   40MOL    H48 7926   1.814   7.905   1.113 -0.2060  1.0581  0.5161
   40MOL    H49 7927   1.935   7.548   1.172 -2.2736 -0.8980  2.0444
   40MOL    H50 7928   1.740   7.553   0.997 -1.0334  0.2214  0.1996
   40MOL    H51 7929   1.752   7.723   0.971 -0.8806 -1.3537 -3.4718
   40MOL    C52 7930   1.920   7.611   0.887  0.1596  0.2635 -0.0510
   40MOL    C53 7931   1.860   7.594   0.747  0.1208  0.1604  0.2421
   40MOL   Cl54 7932   1.920   7.702   0.636  0.1335 -0.0494 -0.1049
   40MOL    C55 7933   1.760   7.511   0.720  0.8005  0.9140  0.6790
   40MOL    C56 7934   1.694   7.497   0.579 -0.1635  0.6326  0.3750
   40MOL    H57 7935   1.973   7.706   0.877 -0.6888  0.7334 -0.0941
   40MOL    H58 7936   1.985   7.529   0.916 -0.9572 -1.6851 -2.8631
   40MOL    H59 7937   1.723   7.443   0.795  0.1056  0.9894  0.4120
   40MOL    H60 7938   1.742   7.558   0.503  1.0837 -1.8414 -0.8770
   40MOL    H61 7939   1.702   7.395   0.542  0.8778  0.8804 -0.1103
   40MOL    C62 7940   1.548   7.541   0.569  0.0685 -0.0684  0.2531
   40MOL    C63 7941   1.484   7.493   0.437  0.3080 -0.7202 -0.6497
   40MOL   Cl64 7942   1.416   7.335   0.453 -0.1475 -0.0179  0.6488
   40MOL    C65 7943   1.475   7.575   0.331  0.9083  0.0244  0.5758
   40MOL    C66 7944   1.416   7.551   0.197 -0.2756  0.2504  0.0039
   40MOL    H67 7945   1.496   7.473   0.637  0.1572  1.8702  2.3053
   40MOL    H68 7946   1.533   7.644   0.599  0.7664  0.6569 -1.7977
   40MOL    H69 7947   1.504   7.677   0.354 -2.8491  1.0895  1.0159
   40MOL    H70 7948   1.315   7.590   0.187 -0.8826 -1.3658 -0.2134
   40MOL    H71 7949   1.415   7.443   0.186  0.4030  0.4312 -2.0857
   40MOL    C72 7950   1.503   7.611   0.083  0.3901  0.0525 -0.1628
   40MOL    C73 7951   1.461   7.589   8.359 -0.0425  0.0084  0.5440
   40MOL   Cl74 7952   1.595   7.594   8.250  0.3370  0.0500 -0.1533
   40MOL    C75 7953   1.335   7.583   8.315 -0.1024  0.0522 -0.2332
   40MOL    C76 7954   1.284   7.561   8.173  0.3693  0.1471 -0.0519
   40MOL    H77 7955   1.608   7.582   0.089  0.3419 -0.2776 -0.8866
   40MOL    H78 7956   1.493   7.719   0.097  2.3358  0.3411 -0.8527
   40MOL    H79 7957   1.261   7.597   8.392  0.0982  1.0328 -0.2243
   40MOL    H80 7958   1.368   7.569   8.105  0.6846  0.1378  0.3370
   40MOL    H81 7959   1.230   7.654   8.158 -3.6295 -2.2663 -1.5762
   40MOL    C82 7960   1.189   7.435   8.158 -0.3032 -0.4701  0.0574
   40MOL    C83 7961   1.190   7.402   8.015 -0.0379 -0.2494 -0.4380
   40MOL   Cl84 7962   1.143   7.537   7.918 -0.1759 -0.3757  0.0795
   40MOL    C85 7963   1.226   7.287   7.960 -0.5837 -0.1192 -0.8126
   40MOL    C86 7964   1.230   7.248   7.815 -0.1036 -0.2702  0.0875
   40MOL    H87 7965   1.089   7.459   8.194 -0.7425 -2.0382 -0.0941
   40MOL    H88 7966   1.249   7.359   8.208 -0.7095 -0.1425  1.0491
   40MOL    H89 7967   1.264   7.202   8.014  0.4709  0.0317 -1.3015
   40MOL    H90 7968   1.148   7.179   7.797 -0.3599  0.3453 -1.2078
   40MOL    H91 7969   1.224   7.328   7.741 -0.5823 -1.3910 -1.1032
   40MOL    C92 7970   1.360   7.174   7.781 -0.4320 -0.1808  0.3497
   40MOL    C93 7971   1.365   7.130   7.634  0.2382  0.1696  0.1583
   40MOL   Cl94 7972   1.288   6.978   7.613 -0.1725 -0.1851 -0.1072
   40MOL    C95 7973   1.423   7.199   7.535 -0.4568  0.0605  0.1832
   40MOL    C96 7974   1.497   7.334   7.559 -0.0527  0.0148 -0.2759
   40MOL    H97 7975   1.387   7.097   7.854 -0.4386  1.4839  2.1414
   40MOL    H98 7976   1.439   7.245   7.804 -0.1462  0.2034 -1.7199
   40MOL    H99 7977   1.423   7.162   7.433 -0.7458  1.7073 -0.4354
   40MOL   H100 7978   1.446   7.397   7.632 -0.4540 -0.0324 -0.5077
   40MOL   H101 7979   1.598   7.318   7.594  0.0545 -0.9700 -1.0258
   40MOL   C102 7980   1.504   7.407   7.423 -0.4502 -0.6671 -1.0103
   40MOL   C103 7981   1.372   7.477   7.408  0.3994  0.0791 -0.2231
   40MOL  Cl104 7982   1.365   7.620   7.494  0.3681 -0.1925  0.1319
   40MOL   C105 7983   1.273   7.442   7.323 -0.4059  0.0851 -0.0199
   40MOL   C106 7984   1.142   7.517   7.308  0.1586  1.0057 -0.2126
   40MOL   H107 7985   1.583   7.482   7.421 -1.4787  0.4673  0.3833
   40MOL   H108 7986   1.525   7.347   7.334 -0.4900  1.6059 -2.6079
   40MOL   H109 7987   1.290   7.352   7.266  2.3241 -0.2336  1.1937
   40MOL   H110 7988   1.161   7.620   7.339  1.7716  0.7423 -0.2400
   40MOL   H111 7989   1.130   7.509   7.200 -2.9566  0.4113  0.1316
   40MOL   C112 7990   1.026   7.462   7.398  0.3768 -0.0398 -1.0333
   40MOL   C113 7991   0.917   7.564   7.410 -0.2693  0.4281  0.5659
   40MOL  Cl114 7992   0.937   7.664   7.555 -0.2872  0.1975  0.4699
   40MOL   C115 7993   0.813   7.589   7.333 -0.3955 -0.0342 -0.1949
   40MOL   C116 7994   0.771   7.519   7.205 -0.1475  0.4825 -0.6766
   40MOL   H117 7995   0.987   7.371   7.352  0.9210 -1.0245  0.4225
   40MOL   H118 7996   1.063   7.420   7.491 -0.8746 -0.3184 -0.6591
   40MOL   H119 7997   0.751   7.667   7.373 -0.0288  0.7717 -1.1664
   40MOL   H120 7998   0.662   7.513   7.210 -0.0689 -0.7614 -0.3811
   40MOL   H121 7999   0.805   7.415   7.203  1.2735  0.8891  1.3873
   40MOL   C122 8000   0.820   7.600   7.087 -0.3624  0.2663  0.2098
   40MOL   C123 8001   0.788   7.533   6.957  0.4308  0.4698 -0.5521
   40MOL  Cl124 8002   0.913   7.424   6.907 -0.2313  0.4544  0.1189
   40MOL   C125 8003   0.672   7.537   6.891 -0.6448  0.1652 -0.0405
   40MOL   C126 8004   0.552   7.616   6.932  0.2332 -0.0646 -0.0952
   40MOL   H127 8005   0.782   7.702   7.088 -2.2515 -0.3490 -2.5543
   40MOL   H128 8006   0.928   7.615   7.087 -0.2262 -0.6962 -1.3539
   40MOL   H129 8007   0.649   7.475   6.806  1.8063 -0.4092 -0.3096
   40MOL   H130 8008   0.558   7.660   7.031  0.7316 -0.0756 -0.1215
   40MOL   H131 8009   0.529   7.693   6.858 -1.4208  0.7822  1.2521
   40MOL   C132 8010   0.429   7.529   6.922  0.3587 -0.0233  0.9381
   40MOL   C133 8011   0.291   7.602   6.924  0.3952 -0.7539 -0.2314
   40MOL  Cl134 8012   0.237   7.631   6.764  0.3507  0.0324 -0.2653
   40MOL   C135 8013   0.230   7.647   7.033 -0.2120 -0.6947  0.0573
   40MOL   C136 8014   0.273   7.658   7.172 -0.2946 -0.1690  0.4496
   40MOL   H137 8015   0.422   7.467   6.833  0.2360 -1.4841  1.9609
   40MOL   H138 8016   0.433   7.451   6.997 -2.1169 -1.8369 -0.7323
   40MOL   H139 8017   0.132   7.690   7.019 -0.1998 -1.1935 -1.6671
   40MOL   H140 8018   0.192   7.624   7.236 -0.7398 -1.5252 -0.8115
   40MOL   H141 8019   0.349   7.584   7.198 -0.0319 -0.3892 -0.9365
   40MOL   C142 8020   0.323   7.800   7.209 -0.6458 -0.4652  0.5952
   40MOL   C143 8021   0.381   7.806   7.350 -0.3730 -0.3825  0.6344
   40MOL  Cl144 8022   0.555   7.839   7.336 -0.1385  0.2291  0.1794
   40MOL   C145 8023   0.312   7.808   7.465  0.4382 -0.4013  0.3052
   40MOL   C146 8024   0.366   7.802   7.610 -0.2392 -0.3686 -0.1206
   40MOL   H147 8025   0.253   7.881   7.190  0.2965  0.2041 -0.0760
   40MOL   H148 8026   0.403   7.830   7.140 -1.5995 -0.6756 -0.6146
   40MOL   H149 8027   0.204   7.810   7.455  0.5895  0.7054 -1.3604
   40MOL   H150 8028   0.472   7.777   7.612 -0.0725  0.2650 -0.6845
   40MOL   H151 8029   0.361   7.902   7.652  3.0932  0.0416 -0.5517
   40MOL   C152 8030   0.285   7.711   7.703 -0.1252 -0.7494 -0.3185
   40MOL   C153 8031   0.327   7.717   7.843  0.3174  0.3955  0.6499
   40MOL  Cl154 8032   0.213   7.808   7.940  0.2771 -0.2251  0.0112
   40MOL   C155 8033   0.451   7.681   7.883  0.1268 -0.4225 -0.0901
   40MOL   C156 8034   0.502   7.697   8.022  0.1966  0.4183 -0.1079
   40MOL   H157 8035   0.180   7.735   7.687  0.3936 -0.0706 -2.9703
   40MOL   H158 8036   0.294   7.606   7.676 -2.0518 -0.8048 -0.7768
   40MOL   H159 8037   0.521   7.631   7.818 -0.1952 -1.5411  0.4009
   40MOL   H160 8038   0.439   7.763   8.082 -0.3150  0.7969 -1.0414
   40MOL   H161 8039   0.587   7.764   8.010 -0.3682  1.1130 -0.2758
   40MOL   C162 8040   0.539   7.566   8.095 -1.0338  0.1322 -0.6949
   40MOL   C163 8041   0.667   7.500   8.052 -0.0729  0.6102  0.1323
   40MOL  Cl164 8042   0.788   7.521   8.178 -0.1163 -0.4411  0.0011
   40MOL   C165 8043   0.684   7.412   7.950 -0.9126 -0.1038 -0.5505
   40MOL   C166 8044   0.808   7.337   7.926  0.0332  0.3194 -0.0505
   40MOL   H167 8045   0.545   7.587   8.202 -0.1679  0.5513 -0.8245
   40MOL   H168 8046   0.463   7.488   8.084 -1.9078  0.6333  1.4801
   40MOL   H169 8047   0.607   7.378   7.883 -1.9908  0.3581  0.4399
   40MOL   H170 8048   0.884   7.365   7.999  0.1386 -0.2271  0.0540
   40MOL   H171 8049   0.801   7.229   7.940 -0.5633  0.2872 -0.5623
   40MOL   C172 8050   0.863   7.365   7.791 -0.1302 -0.0764 -0.1526
   40MOL   C173 8051   0.787   7.307   7.677  0.2173  0.4357  0.2281
   40MOL  Cl174 8052   0.767   7.133   7.678  0.0609  0.2282 -0.1447
   40MOL   C175 8053   0.715   7.383   7.594  0.5686  0.5826  0.3821
   40MOL   C176 8054   0.625   7.328   7.482  0.1387  0.1702  0.1010
   40MOL   H177 8055   0.968   7.337   7.782 -0.2531 -0.0243 -1.7648
   40MOL   H178 8056   0.865   7.473   7.781 -2.5857 -0.1488 -1.6103
   40MOL   H179 8057   0.717   7.489   7.613 -3.2373  0.7086  0.2935
   40MOL   H180 8058   0.590   7.228   7.506  1.6780 -0.1118  1.2354
   40MOL   H181 8059   0.688   7.321   7.394  3.5964  0.2329  2.4715
   40MOL   C182 8060   0.497   7.419   7.454  0.1075 -0.1010  0.0687
   40MOL   C183 8061   0.375   7.365   7.392  0.1205 -0.4567  0.3980
   40MOL  Cl184 8062   0.414   7.302   7.239 -0.0157  0.2932 -0.0470
   40MOL   C185 8063   0.253   7.376   7.438 -0.2493 -0.0014  0.3287
   40MOL   C186 8064   0.128   7.330   7.365  0.8494 -0.0291  0.1403
   40MOL   H187 8065   0.470   7.480   7.540  3.1911  1.7766 -0.1951
   40MOL   H188 8066   0.525   7.501   7.387  0.8560  0.1790  0.7152
   40MOL   H189 8067   0.233   7.407   7.539 -2.0864 -1.8975  0.5630
   40MOL   H190 8068   0.055   7.410   7.373  0.0179 -0.8969  1.4879
   40MOL   H191 8069   0.156   7.317   7.260  1.0666 -1.5176  0.3684
   40MOL   C192 8070   0.069   7.191   7.413  0.2209 -0.1228  0.3840
   40MOL   C193 8071   8.360   7.160   7.342  0.1984  0.5446 -0.4909
   40MOL  Cl194 8072   8.396   7.054   7.207  0.1803 -0.1353 -0.5158
   40MOL   C195 8073   8.234   7.201   7.375 -0.4016 -0.0201  0.1468
   40MOL   C196 8074   8.189   7.299   7.488 -0.1449 -0.2197 -0.2788
   40MOL   H197 8075   0.064   7.207   7.521 -0.0965  0.4346  0.2892
   40MOL   H198 8076   0.141   7.110   7.396  0.6773  0.3960 -0.1982
   40MOL   H199 8077   8.156   7.166   7.309 -0.5958 -0.6098  0.6819
   40MOL   H200 8078   8.118   7.361   7.434  1.9550  2.5176 -0.0072
   40MOL   H201 8079   8.265   7.361   7.537  0.5442 -0.2446 -1.3148
   40MOL   H202 8080   8.137   7.239   7.563 -1.0203  0.8331 -0.0321
   41MOL     C1 8081   1.466   1.667   0.498  0.5074 -0.2100 -0.6392
   41MOL     C2 8082   1.333   1.694   0.563  0.1939 -0.6077  0.3363
   41MOL    Cl3 8083   1.191   1.687   0.451 -0.2580  0.0243  0.0782
   41MOL     C4 8084   1.321   1.722   0.694  0.5237  0.1981  0.7575
   41MOL     C5 8085   1.438   1.739   0.786  0.5030 -0.2071  0.1555
   41MOL     H6 8086   1.544   1.743   0.499  0.5420 -0.2491  1.2146
   41MOL     H7 8087   1.447   1.635   0.396  1.0451  2.2969 -1.5692
   41MOL     H8 8088   1.220   1.734   0.729 -0.4965 -0.5083 -1.8014
   41MOL     H9 8089   1.515   1.663   0.773 -1.0907 -1.2673 -3.7492
   41MOL    H10 8090   1.479   1.831   0.745 -0.1222 -0.2714 -0.6196
   41MOL    H11 8091   1.507   1.578   0.546  1.7579  1.5871  1.7374
   41MOL    C12 8092   1.402   1.748   0.942  0.3820  0.2080  0.1698
   41MOL    C13 8093   1.317   1.867   0.976  0.1296  0.0755 -1.0134
   41MOL   Cl14 8094   1.399   2.013   0.947  0.0295 -0.2139 -0.3088
   41MOL    C15 8095   1.190   1.866   1.023  0.6771 -0.3580 -0.2658
   41MOL    C16 8096   1.102   1.739   1.047 -0.5688  0.4649 -0.4641
   41MOL    H17 8097   1.355   1.654   0.970 -0.9487  0.9155  0.3337
   41MOL    H18 8098   1.491   1.744   1.005 -0.1286 -0.7881  0.8316
   41MOL    H19 8099   1.147   1.964   1.040 -1.9509 -1.3416 -0.9706
   41MOL    H20 8100   1.162   1.651   1.066  0.9686  1.7314  0.7192
   41MOL    H21 8101   1.057   1.760   1.144  1.4758 -1.3493  0.9059
   41MOL    C22 8102   1.007   1.711   0.941  0.1998 -0.4239  0.1615
   41MOL    C23 8103   0.941   1.834   0.872  0.1920  0.2227 -0.4096
   41MOL   Cl24 8104   0.945   1.821   0.698  0.1175  0.2367 -0.5911
   41MOL    C25 8105   0.895   1.945   0.936 -0.5474  0.4213 -0.0687
   41MOL    C26 8106   0.832   2.068   0.878 -1.0581  0.1993 -0.7611
   41MOL    H27 8107   1.064   1.661   0.863 -2.9532  0.3068 -2.7504
   41MOL    H28 8108   0.942   1.628   0.970  0.6450 -0.3659  1.3498
   41MOL    H29 8109   0.899   1.947   1.044  0.4652 -1.2546 -0.0646
   41MOL    H30 8110   0.802   2.044   0.776 -0.6973  1.4041 -1.1715
   41MOL    H31 8111   0.733   2.096   0.915 -0.2087  1.5910  0.5176
   41MOL    C32 8112   0.929   2.181   0.872 -0.4164  0.0003 -0.0033
   41MOL    C33 8113   0.877   2.299   0.796 -1.0121 -0.1540  0.3253
   41MOL   Cl34 8114   0.873   2.276   0.623  0.1660 -0.0693 -0.1605
   41MOL    C35 8115   0.816   2.400   0.864 -0.0485  0.4913 -0.0282
   41MOL    C36 8116   0.760   2.522   0.798 -0.1101 -0.2191  0.3659
   41MOL    H37 8117   0.957   2.212   0.972  1.7798  2.3112 -1.2761
   41MOL    H38 8118   1.023   2.146   0.831  0.5347  0.7100  1.5424
   41MOL    H39 8119   0.802   2.399   0.971  0.8314  0.4426  0.0873
   41MOL    H40 8120   0.723   2.494   0.699 -1.3458 -0.5766  0.9209
   41MOL    H41 8121   0.674   2.539   0.863 -0.2323 -1.1341  0.4417
   41MOL    C42 8122   0.852   2.645   0.806 -0.5707  0.2596  0.3868
   41MOL    C43 8123   0.778   2.771   0.767 -0.2848 -0.0500 -0.0049
   41MOL   Cl44 8124   0.764   2.781   0.601  0.0331 -0.1107 -0.2151
   41MOL    C45 8125   0.725   2.872   0.837 -0.5487  0.5835  0.1975
   41MOL    C46 8126   0.722   2.879   0.985 -0.4181 -0.4683  0.5046
   41MOL    H47 8127   0.881   2.664   0.909  0.6237 -1.0740  0.3121
   41MOL    H48 8128   0.946   2.620   0.756 -1.3269  1.6027 -1.7823
   41MOL    H49 8129   0.676   2.957   0.792  0.1065  1.2778  0.7560
   41MOL    H50 8130   0.726   2.777   1.023  0.3724 -0.6138  0.0436
   41MOL    H51 8131   0.816   2.931   1.002 -0.7726  0.2722  0.2314
   41MOL    C52 8132   0.598   2.955   1.040  0.0888  0.2939 -0.2371
   41MOL    C53 8133   0.599   2.991   1.179  0.5455 -0.5471 -0.1098
   41MOL   Cl54 8134   0.628   3.161   1.202  0.1443  0.2302  0.1411
   41MOL    C55 8135   0.548   2.909   1.273  0.0593 -0.1410 -0.7280
   41MOL    C56 8136   0.513   2.944   1.420  0.1313 -0.2410 -0.3625
   41MOL    H57 8137   0.587   3.050   0.986 -0.9337  0.9367  1.0506
   41MOL    H58 8138   0.504   2.904   1.017 -0.8466  2.4831 -1.5267
   41MOL    H59 8139   0.523   2.807   1.247 -1.1903 -0.2958  1.0421
   41MOL    H60 8140   0.531   3.051   1.430  1.1164 -0.5901  1.8832
   41MOL    H61 8141   0.408   2.917   1.431  0.2809 -1.8145 -2.2885
   41MOL    C62 8142   0.598   2.871   1.528  0.1767 -0.4817 -0.4485
   41MOL    C63 8143   0.573   2.929   1.672  0.3314 -0.2215  0.0127
   41MOL   Cl64 8144   0.531   2.803   1.789 -0.4742 -0.3104  0.4537
   41MOL    C65 8145   0.588   3.057   1.717  0.1775 -0.1637  0.2806
   41MOL    C66 8146   0.575   3.096   1.858  0.1558 -0.0058 -0.6399
   41MOL    H67 8147   0.576   2.764   1.520 -2.9972  0.1507 -0.5851
   41MOL    H68 8148   0.704   2.885   1.509  0.0422 -1.3716 -1.9290
   41MOL    H69 8149   0.620   3.141   1.656  1.2338 -0.3054  0.6228
   41MOL    H70 8150   0.492   3.043   1.904  0.2477  1.4840  1.3442
   41MOL    H71 8151   0.536   3.198   1.863 -3.9766 -1.5926  1.0856
   41MOL    C72 8152   0.703   3.085   1.949  0.2979 -0.0215 -0.2543
   41MOL    C73 8153   0.689   3.154   2.087  0.1600  0.6050  0.2516
   41MOL   Cl74 8154   0.849   3.191   2.157  0.4584 -0.0830 -0.1879
   41MOL    C75 8155   0.574   3.194   2.147  0.0387 -0.2242  0.0279
   41MOL    C76 8156   0.580   3.274   2.273 -0.0974  0.0182 -0.2936
   41MOL    H77 8157   0.784   3.133   1.896 -0.3876 -1.1527 -2.3749
   41MOL    H78 8158   0.741   2.984   1.966 -1.7177 -0.7676 -0.0289
   41MOL    H79 8159   0.473   3.180   2.112 -0.2918  1.4609  0.2716
   41MOL    H80 8160   0.624   3.372   2.253  3.0420 -1.1232  0.8253
   41MOL    H81 8161   0.654   3.237   2.344 -0.9335 -0.7802  0.1666
   41MOL    C82 8162   0.444   3.289   2.346  0.6085 -0.1167 -0.1636
   41MOL    C83 8163   0.440   3.411   2.439  0.2273  0.0134 -0.1178
   41MOL   Cl84 8164   0.536   3.379   2.581 -0.0378 -0.0983 -0.0738
   41MOL    C85 8165   0.377   3.532   2.421 -0.4838  0.3683 -0.0061
   41MOL    C86 8166   0.377   3.649   2.514  1.3563 -0.2634  0.2951
   41MOL    H87 8167   0.442   3.206   2.417 -4.3083  0.4604  0.5503
   41MOL    H88 8168   0.351   3.292   2.289 -0.6494  1.8090  1.8932
   41MOL    H89 8169   0.313   3.530   2.334 -0.5310 -1.0931  0.0432
   41MOL    H90 8170   0.436   3.633   2.604  1.8507  1.1252  0.2226
   41MOL    H91 8171   0.425   3.733   2.464 -2.1351  0.7510 -1.5683
   41MOL    C92 8172   0.227   3.675   2.554 -0.3119 -0.3808 -0.2273
   41MOL    C93 8173   0.200   3.815   2.612  0.4891  0.7755  0.0407
   41MOL   Cl94 8174   0.159   3.937   2.501 -0.1309 -0.0332  0.0765
   41MOL    C95 8175   0.211   3.846   2.738 -0.9075 -0.0507  0.4339
   41MOL    C96 8176   0.252   3.750   2.848 -0.6585 -0.1665  0.1494
   41MOL    H97 8177   0.190   3.598   2.621  0.6220 -1.2637 -0.7288
   41MOL    H98 8178   0.154   3.679   2.473 -1.7410  1.2910  1.1064
   41MOL    H99 8179   0.183   3.947   2.761 -2.5559  0.0715 -1.9838
   41MOL   H100 8180   0.290   3.658   2.804  2.6343  1.8158 -1.4118
   41MOL   H101 8181   0.343   3.794   2.891 -0.6854  1.3221 -1.2805
   41MOL   C102 8182   0.129   3.735   2.941  0.5396  0.4598  0.2266
   41MOL   C103 8183   0.163   3.668   3.071 -0.4786 -0.2469 -0.0387
   41MOL  Cl104 8184   0.035   3.669   3.185 -0.3122 -0.0419  0.5557
   41MOL   C105 8185   0.280   3.614   3.102 -0.0775  0.0984 -0.3495
   41MOL   C106 8186   0.315   3.551   3.241 -0.2411  0.9107  0.1220
   41MOL   H107 8187   0.090   3.830   2.978 -0.0874  0.0057  0.7281
   41MOL   H108 8188   0.056   3.667   2.896 -2.2978  1.7287  2.7360
   41MOL   H109 8189   0.365   3.613   3.035 -0.9144 -1.8229 -1.3998
   41MOL   H110 8190   0.224   3.537   3.300  0.0829 -3.6516 -0.2907
   41MOL   H111 8191   0.378   3.462   3.245  1.3899  2.0438  0.2456
   41MOL   C112 8192   0.401   3.659   3.312  0.3357 -0.1156  0.2969
   41MOL   C113 8193   0.501   3.602   3.415 -0.1780 -0.3215 -0.4357
   41MOL  Cl114 8194   0.418   3.559   3.560 -0.3360 -0.0537  0.0120
   41MOL   C115 8195   0.625   3.554   3.380  0.6596 -0.6080  0.6371
   41MOL   C116 8196   0.682   3.548   3.237 -1.0643 -0.1488  0.0406
   41MOL   H117 8197   0.460   3.718   3.241  0.4351  0.0148  0.4852
   41MOL   H118 8198   0.329   3.725   3.361 -1.2047 -0.2920 -1.6699
   41MOL   H119 8199   0.691   3.518   3.458  1.6962  1.8083  0.9475
   41MOL   H120 8200   0.779   3.598   3.241  0.2602 -2.4658 -1.5986
   41MOL   H121 8201   0.627   3.611   3.166  1.0971  1.1198 -0.5675
   41MOL   C122 8202   0.699   3.404   3.198  0.1940  0.3893  0.5733
   41MOL   C123 8203   0.695   3.390   3.046 -0.4270 -0.6834 -0.1548
   41MOL  Cl124 8204   0.537   3.367   2.981  0.1173  0.2327  0.2249
   41MOL   C125 8205   0.812   3.388   2.970  0.0536 -0.3271 -0.6416
   41MOL   C126 8206   0.957   3.395   3.010  0.5872 -0.1935  0.1188
   41MOL   H127 8207   0.791   3.367   3.244 -0.6101  0.4163  2.2625
   41MOL   H128 8208   0.618   3.344   3.241 -0.8143  1.0970 -0.3063
   41MOL   H129 8209   0.795   3.380   2.864 -0.7514  2.9327 -0.8153
   41MOL   H130 8210   0.962   3.390   3.119  1.8756  1.5940  0.1614
   41MOL   H131 8211   0.995   3.299   2.974  0.4336 -0.6625  1.1788
   41MOL   C132 8212   1.048   3.489   2.936 -0.2226 -0.1205 -0.2198
   41MOL   C133 8213   1.187   3.454   2.957  0.5862 -0.6616 -0.0846
   41MOL  Cl134 8214   1.252   3.367   2.828  0.0737 -0.3802  0.0372
   41MOL   C135 8215   1.266   3.485   3.068  0.7656  0.2630 -0.0867
   41MOL   C136 8216   1.226   3.571   3.188 -0.2753  0.9082 -0.0999
   41MOL   H137 8217   1.033   3.488   2.828 -0.1580  0.4174 -0.2352
   41MOL   H138 8218   1.044   3.595   2.959 -3.3868  0.1503 -1.7617
   41MOL   H139 8219   1.367   3.448   3.075  0.5088 -0.6365 -1.0035
   41MOL   H140 8220   1.295   3.655   3.189  0.2467  0.5218 -1.8529
   41MOL   H141 8221   1.128   3.620   3.185 -0.7587  0.0287  0.9786
   41MOL   C142 8222   1.232   3.486   3.315  0.3156 -0.2276 -0.1790
   41MOL   C143 8223   1.197   3.575   3.437 -1.2638 -0.5266  0.3359
   41MOL  Cl144 8224   1.317   3.697   3.467 -0.2570 -0.3136 -0.3517
   41MOL   C145 8225   1.077   3.569   3.501  0.8906  0.2676  0.9099
   41MOL   C146 8226   1.038   3.656   3.621 -0.6734  0.0183  0.0997
   41MOL   H147 8227   1.328   3.437   3.330 -0.3796 -1.2345  1.1120
   41MOL   H148 8228   1.159   3.405   3.312 -0.9965  0.7668  3.0201
   41MOL   H149 8229   1.009   3.489   3.474  0.1702  0.9401  0.7156
   41MOL   H150 8230   1.019   3.590   3.705 -1.1867  0.7339  0.5522
   41MOL   H151 8231   1.121   3.721   3.649 -0.0224 -0.1968 -1.2861
   41MOL   C152 8232   0.909   3.735   3.589  0.1869 -0.0489 -0.3569
   41MOL   C153 8233   0.863   3.822   3.707 -0.1733  0.4852  0.1689
   41MOL  Cl154 8234   0.927   3.982   3.704 -0.0948 -0.7083 -0.2559
   41MOL   C155 8235   0.766   3.780   3.792  0.0041 -0.0562 -0.2902
   41MOL   C156 8236   0.702   3.865   3.896  0.1114  0.3131  0.0134
   41MOL   H157 8237   0.932   3.808   3.510  0.5799 -0.1433 -0.3285
   41MOL   H158 8238   0.838   3.661   3.551  1.6196 -1.0500 -1.1290
   41MOL   H159 8239   0.733   3.678   3.778  1.8176 -0.5619 -1.0363
   41MOL   H160 8240   0.744   3.965   3.904  3.7497 -1.0081 -1.4129
   41MOL   H161 8241   0.718   3.825   3.996  2.1634 -2.6163 -1.4252
   41MOL   C162 8242   0.550   3.885   3.869 -0.1472 -0.1567  0.3151
   41MOL   C163 8243   0.526   3.982   3.757 -0.0117 -1.0989  0.6847
   41MOL  Cl164 8244   0.546   4.147   3.795  0.1601  0.0426  0.2051
   41MOL   C165 8245   0.493   3.948   3.632  0.5570  0.2288 -0.1133
   41MOL   C166 8246   0.468   4.043   3.514 -0.4178 -0.3622  0.0277
   41MOL   H167 8247   0.495   3.792   3.858 -0.3785 -0.0575  0.6211
   41MOL   H168 8248   0.512   3.924   3.964 -0.7183  0.5104 -0.1830
   41MOL   H169 8249   0.479   3.842   3.615 -1.0213  0.7360 -2.3116
   41MOL   H170 8250   0.497   4.147   3.533 -1.5327 -0.4728  2.6395
   41MOL   H171 8251   0.522   4.004   3.428  0.7949  1.8954 -0.2837
   41MOL   C172 8252   0.324   4.048   3.466  0.4608  0.4835 -0.3991
   41MOL   C173 8253   0.305   4.112   3.334  0.6655  0.4360 -0.0871
   41MOL  Cl174 8254   0.334   4.006   3.197 -0.1708 -0.0921  0.2093
   41MOL   C175 8255   0.243   4.233   3.320 -0.2086  0.6234 -0.8886
   41MOL   C176 8256   0.227   4.305   3.185 -0.0442  0.7031 -0.6014
   41MOL   H177 8257   0.273   4.105   3.544  0.4908  1.1288 -0.8487
   41MOL   H178 8258   0.273   3.951   3.465 -0.5045  0.9352  1.6159
   41MOL   H179 8259   0.202   4.287   3.404 -0.9753  1.8673 -2.0424
   41MOL   H180 8260   0.128   4.271   3.152 -0.3327 -3.6576  4.0876
   41MOL   H181 8261   0.296   4.275   3.107 -0.2699 -1.7180  0.0800
   41MOL   C182 8262   0.228   4.460   3.201  0.2551  0.5316  0.4809
   41MOL   C183 8263   0.217   4.533   3.068 -0.4780  0.5617  0.3393
   41MOL  Cl184 8264   0.327   4.660   3.064 -0.0935  0.1580 -0.0086
   41MOL   C185 8265   0.118   4.504   2.978  0.1857 -0.5884 -0.1486
   41MOL   C186 8266   0.084   4.583   2.854  0.2904  0.6692  0.9967
   41MOL   H187 8267   0.152   4.494   3.271  1.1345 -1.0922  2.2554
   41MOL   H188 8268   0.322   4.491   3.245 -0.1876 -0.9513  2.5536
   41MOL   H189 8269   0.052   4.419   2.987 -0.6952  0.0382 -0.5895
   41MOL   H190 8270   8.408   4.630   2.869 -0.3047  0.0863 -0.8851
   41MOL   H191 8271   0.171   4.647   2.840  2.0894 -1.4477  2.1157
   41MOL   C192 8272   0.071   4.495   2.727  0.3335  0.2013  0.1224
   41MOL   C193 8273   0.146   4.363   2.710 -0.5717  0.1922 -0.2163
   41MOL  Cl194 8274   0.041   4.226   2.742  0.3748 -0.2164 -0.2789
   41MOL   C195 8275   0.265   4.344   2.649  0.0528 -0.0182  0.3641
   41MOL   C196 8276   0.369   4.447   2.617 -0.0070 -0.1643 -0.8842
   41MOL   H197 8277   0.100   4.559   2.643  0.4322 -0.3869 -0.2917
   41MOL   H198 8278   8.384   4.483   2.724  0.4979 -1.1776 -1.0849
   41MOL   H199 8279   0.297   4.243   2.627  2.4552  1.2272 -2.3104
   41MOL   H200 8280   0.337   4.551   2.620 -0.0611 -0.1940 -0.1024
   41MOL   H201 8281   0.409   4.443   2.516 -0.7610  0.3052 -1.2008
   41MOL   H202 8282   0.459   4.435   2.677 -0.4163  3.7498  0.6600
   42MOL     C1 8283   3.977   4.847   3.031 -0.4051  0.2778  0.7558
   42MOL     C2 8284   4.035   4.769   2.908 -0.0530  1.1448 -0.0035
   42MOL    Cl3 8285   3.996   4.603   2.909 -0.3294 -0.4114  0.1994
   42MOL     C4 8286   4.116   4.820   2.819 -0.7962 -0.1550  0.6045
   42MOL     C5 8287   4.169   4.963   2.803 -0.2879 -0.0537 -0.4343
   42MOL     H6 8288   4.058   4.896   3.085  3.1537 -1.4362 -2.7644
   42MOL     H7 8289   3.907   4.782   3.082 -2.3313  0.3767 -1.6757
   42MOL     H8 8290   4.144   4.754   2.738 -1.4067  1.2183 -0.7659
   42MOL     H9 8291   4.112   5.025   2.873 -0.4173  1.7208 -2.0675
   42MOL    H10 8292   4.276   4.971   2.825  0.1971 -1.6754 -2.1043
   42MOL    H11 8293   3.904   4.922   2.999  0.2547  0.7243  0.2659
   42MOL    C12 8294   4.131   5.011   2.662  0.1791  0.1160  0.2846
   42MOL    C13 8295   4.171   5.157   2.636  0.4546  0.4854 -0.1199
   42MOL   Cl14 8296   4.292   5.219   2.747 -0.0916  0.5906 -0.2393
   42MOL    C15 8297   4.108   5.241   2.552 -0.5616  0.2367  0.4018
   42MOL    C16 8298   3.988   5.208   2.464 -0.1889 -0.8547  0.2860
   42MOL    H17 8299   4.189   4.967   2.581 -1.1429  0.6258 -0.9492
   42MOL    H18 8300   4.025   4.995   2.644  0.5636 -2.6110  0.2474
   42MOL    H19 8301   4.145   5.342   2.547  0.1116  0.0385  1.3178
   42MOL    H20 8302   4.018   5.156   2.373  1.8730 -1.6048  1.3653
   42MOL    H21 8303   3.920   5.140   2.515 -1.4193 -0.9419 -1.4118
   42MOL    C22 8304   3.918   5.344   2.426  0.4415  0.2402 -0.0322
   42MOL    C23 8305   3.986   5.397   2.299 -0.1091  0.0804 -0.4143
   42MOL   Cl24 8306   3.895   5.344   2.162 -0.1159 -0.1396 -0.2565
   42MOL    C25 8307   4.088   5.483   2.296 -0.6915 -0.2323 -0.2445
   42MOL    C26 8308   4.146   5.534   2.162 -0.1930  0.2776  0.3232
   42MOL    H27 8309   3.819   5.313   2.393  1.3316 -1.1447 -1.4863
   42MOL    H28 8310   3.912   5.408   2.514 -0.4951  2.7972 -1.9040
   42MOL    H29 8311   4.133   5.512   2.390 -2.7773 -0.2018  0.7672
   42MOL    H30 8312   4.067   5.543   2.087  0.1419 -1.1893 -0.2317
   42MOL    H31 8313   4.187   5.634   2.174  0.2624  0.0521  0.6533
   42MOL    C32 8314   4.260   5.450   2.106 -0.2802 -0.6229  0.5257
   42MOL    C33 8315   4.280   5.483   1.959 -0.6144 -0.6025  0.4522
   42MOL   Cl34 8316   4.440   5.533   1.922 -0.0776  0.0959  0.1868
   42MOL    C35 8317   4.181   5.468   1.871 -0.4647  0.5784 -0.2030
   42MOL    C36 8318   4.190   5.497   1.726 -0.6970 -0.3896  0.4746
   42MOL    H37 8319   4.349   5.465   2.168 -0.8621  0.1538  1.1901
   42MOL    H38 8320   4.246   5.342   2.109 -3.6186 -0.2463  0.9925
   42MOL    H39 8321   4.092   5.427   1.917 -0.1768  1.3431  1.0682
   42MOL    H40 8322   4.288   5.541   1.710 -0.3644 -1.4407 -0.4426
   42MOL    H41 8323   4.190   5.408   1.664 -1.5830  0.1083 -0.2496
   42MOL    C42 8324   4.074   5.580   1.675  0.2691  0.4019  0.0799
   42MOL    C43 8325   4.071   5.587   1.525  0.1916 -0.2413 -0.0112
   42MOL   Cl44 8326   4.125   5.743   1.477 -0.3523  0.4416 -0.3133
   42MOL    C45 8327   4.035   5.488   1.444 -0.6541 -0.2546 -0.5719
   42MOL    C46 8328   3.989   5.345   1.476  0.0643  0.5391  0.5485
   42MOL    H47 8329   3.981   5.542   1.718  1.4937  1.7952  4.1974
   42MOL    H48 8330   4.080   5.674   1.729  1.0879 -0.8583  2.2492
   42MOL    H49 8331   4.037   5.501   1.337 -2.5948 -0.1950 -0.6321
   42MOL    H50 8332   3.988   5.335   1.584 -2.9051  1.0102  0.6078
   42MOL    H51 8333   3.886   5.340   1.439  0.6865  0.5241 -1.2271
   42MOL    C52 8334   4.069   5.235   1.411 -0.3095 -0.7696  0.1017
   42MOL    C53 8335   4.061   5.225   1.257 -0.3275  0.9744 -0.0043
   42MOL   Cl54 8336   3.954   5.101   1.204  0.3969 -0.4350 -0.2420
   42MOL    C55 8337   4.125   5.304   1.164  0.1017 -0.7041 -0.4679
   42MOL    C56 8338   4.125   5.298   1.012 -0.1734  0.1354 -0.0979
   42MOL    H57 8339   4.171   5.247   1.445 -0.3278 -0.7477  0.1481
   42MOL    H58 8340   4.030   5.137   1.438  0.3644 -1.6399 -2.0248
   42MOL    H59 8341   4.188   5.380   1.207 -2.0753  1.3787 -0.8319
   42MOL    H60 8342   4.051   5.222   0.988  1.7276 -1.6143 -0.5762
   42MOL    H61 8343   4.080   5.387   0.969  0.6077  0.4404 -0.2883
   42MOL    C62 8344   4.264   5.257   0.956 -0.7369 -0.3342 -0.0361
   42MOL    C63 8345   4.265   5.239   0.798  0.5946 -0.1005 -0.0847
   42MOL   Cl64 8346   4.228   5.075   0.762  0.0277 -0.2896 -0.0161
   42MOL    C65 8347   4.298   5.327   0.708  0.3900  0.7669 -0.2172
   42MOL    C66 8348   4.307   5.304   0.561  0.7077 -0.1520 -0.2927
   42MOL    H67 8349   4.334   5.334   0.992 -1.1573  0.4608 -0.8989
   42MOL    H68 8350   4.287   5.157   0.993  0.3851 -0.2378 -0.4482
   42MOL    H69 8351   4.320   5.427   0.745 -2.0030  0.9043  0.9747
   42MOL    H70 8352   4.281   5.201   0.535 -0.1347  0.6391 -2.8038
   42MOL    H71 8353   4.407   5.331   0.528  0.5519 -0.8893 -1.4285
   42MOL    C72 8354   4.195   5.379   0.483 -0.4485  0.5827  0.2314
   42MOL    C73 8355   4.222   5.521   0.437  0.0046  0.4495 -0.5346
   42MOL   Cl74 8356   4.358   5.610   0.495 -0.0686  0.3515  0.0953
   42MOL    C75 8357   4.127   5.578   0.362 -0.3609 -0.2607 -0.5691
   42MOL    C76 8358   4.121   5.716   0.312  0.3781  0.1187 -0.3080
   42MOL    H77 8359   4.104   5.386   0.542 -1.7766 -2.1422 -1.3860
   42MOL    H78 8360   4.150   5.319   0.403 -0.4056  0.4945  0.2731
   42MOL    H79 8361   4.043   5.516   0.336  0.7031 -2.1535  0.3358
   42MOL    H80 8362   4.157   5.706   0.209 -0.7112 -3.0356 -0.4331
   42MOL    H81 8363   4.193   5.769   0.374 -1.8562  1.9175  0.7921
   42MOL    C82 8364   3.983   5.786   0.319  0.1521 -0.5443  1.0360
   42MOL    C83 8365   3.953   5.851   0.448 -0.0773 -0.2363  0.5375
   42MOL   Cl84 8366   3.826   5.764   0.529 -0.2131  0.0968  0.0066
   42MOL    C85 8367   4.003   5.968   0.490 -0.1455 -0.4509 -0.1120
   42MOL    C86 8368   3.967   6.045   0.628 -0.0743  1.2208  0.6272
   42MOL    H87 8369   3.896   5.727   0.289 -0.7316  0.6343  1.2536
   42MOL    H88 8370   3.981   5.853   0.233 -3.1278 -0.0437  1.4347
   42MOL    H89 8371   4.068   6.025   0.426  1.8499 -0.7989  1.5686
   42MOL    H90 8372   3.884   6.113   0.614 -0.6586  0.9830  2.8212
   42MOL    H91 8373   3.932   5.981   0.709  2.1873 -2.2853 -1.0556
   42MOL    C92 8374   4.096   6.127   0.669  0.0256  0.1739  0.5071
   42MOL    C93 8375   4.081   6.223   0.790 -0.5140 -0.2500 -0.7604
   42MOL   Cl94 8376   4.113   6.128   0.931 -0.2127 -0.0257  0.1934
   42MOL    C95 8377   4.053   6.352   0.790 -0.2746  0.1342  0.0619
   42MOL    C96 8378   4.015   6.434   0.669 -0.4136  0.4485  0.3805
   42MOL    H97 8379   4.103   6.199   0.587 -1.3567  1.1048  1.1789
   42MOL    H98 8380   4.183   6.063   0.671  1.1061  1.6239  1.2981
   42MOL    H99 8381   4.048   6.412   0.880 -1.1231 -2.3329  1.7029
   42MOL   H100 8382   4.103   6.478   0.622 -1.9185  2.9021 -0.2223
   42MOL   H101 8383   3.983   6.355   0.601  1.1687  1.0307 -1.1014
   42MOL   C102 8384   3.901   6.537   0.690 -0.0477 -0.2662  0.0480
   42MOL   C103 8385   3.916   6.652   0.783  0.0179 -0.3816  1.0158
   42MOL  Cl104 8386   4.069   6.728   0.769 -0.4253  0.0928  0.3095
   42MOL   C105 8387   3.821   6.701   0.866  0.0513 -0.0779 -0.4918
   42MOL   C106 8388   3.829   6.801   0.976  0.6258 -0.0868  0.7234
   42MOL   H107 8389   3.881   6.561   0.585 -1.8461 -1.2218  0.1470
   42MOL   H108 8390   3.819   6.475   0.727  1.5172 -1.8907  0.8653
   42MOL   H109 8391   3.726   6.649   0.861  1.0333 -1.8485 -1.1883
   42MOL   H110 8392   3.762   6.759   1.051  2.8204 -0.6177  2.4487
   42MOL   H111 8393   3.929   6.808   1.019  0.2747 -0.1132  1.5616
   42MOL   C112 8394   3.775   6.937   0.935 -0.2444 -0.5087  0.2839
   42MOL   C113 8395   3.633   6.928   0.887  0.2745  0.4292  0.1294
   42MOL  Cl114 8396   3.527   6.878   1.009  0.2106 -0.0019  0.3839
   42MOL   C115 8397   3.583   6.954   0.762 -1.0629  0.2107 -0.1310
   42MOL   C116 8398   3.666   6.997   0.641 -0.1089  0.0355 -0.3608
   42MOL   H117 8399   3.796   7.008   1.015  1.0659  0.2085 -0.6713
   42MOL   H118 8400   3.846   6.979   0.864 -1.5956  0.4112 -0.5460
   42MOL   H119 8401   3.476   6.950   0.747 -1.4608  2.7896  1.6257
   42MOL   H120 8402   3.616   6.956   0.554 -0.2747 -0.3468 -0.0852
   42MOL   H121 8403   3.751   6.931   0.626 -0.0373 -0.3350  1.5124
   42MOL   C122 8404   3.684   7.149   0.621  0.4865 -0.2367 -0.3092
   42MOL   C123 8405   3.788   7.183   0.512 -0.4840 -0.7108 -0.8713
   42MOL  Cl124 8406   3.712   7.260   0.374  0.1214  0.3635 -0.2656
   42MOL   C125 8407   3.922   7.191   0.524 -0.0448  0.4334  0.3673
   42MOL   C126 8408   4.000   7.159   0.656 -0.0123  0.4933  0.5547
   42MOL   H127 8409   3.590   7.199   0.597  0.9274  0.4733 -0.5848
   42MOL   H128 8410   3.722   7.201   0.709 -0.4466 -1.6019  0.9148
   42MOL   H129 8411   3.983   7.217   0.439  1.4170  0.0826  1.2957
   42MOL   H130 8412   4.001   7.251   0.715  0.4989 -0.1892  1.6308
   42MOL   H131 8413   3.949   7.085   0.719  0.7746 -1.4871 -1.0971
   42MOL   C132 8414   4.146   7.124   0.638 -0.0711 -0.6985 -0.2055
   42MOL   C133 8415   4.222   7.141   0.768 -0.6521  0.6241  1.4911
   42MOL  Cl134 8416   4.258   6.991   0.841  0.4468  0.1776 -0.1659
   42MOL   C135 8417   4.278   7.254   0.815 -0.5561  0.5056  0.1713
   42MOL   C136 8418   4.273   7.391   0.759  0.6294  0.2451 -0.2323
   42MOL   H137 8419   4.147   7.022   0.601  0.4653 -0.9881  0.5843
   42MOL   H138 8420   4.201   7.184   0.566 -0.6388 -0.1486 -0.1814
   42MOL   H139 8421   4.318   7.243   0.915  1.5173  1.3750 -0.5394
   42MOL   H140 8422   4.266   7.403   0.651 -0.7660 -1.1310 -0.3164
   42MOL   H141 8423   4.184   7.439   0.800  0.9815  0.4159  0.3445
   42MOL   C142 8424   4.393   7.483   0.798  0.4799 -0.4062 -0.3772
   42MOL   C143 8425   4.387   7.632   0.739 -0.6146  0.3763  0.1633
   42MOL  Cl144 8426   4.524   7.666   0.635 -0.1000  0.2609 -0.4785
   42MOL   C145 8427   4.298   7.724   0.770  0.0181  0.1449 -0.1364
   42MOL   C146 8428   4.292   7.871   0.717 -0.3563  0.0855 -0.3997
   42MOL   H147 8429   4.480   7.423   0.774 -0.0098 -0.6014 -1.7086
   42MOL   H148 8430   4.392   7.486   0.907  0.8707 -1.8531 -0.3247
   42MOL   H149 8431   4.222   7.693   0.840 -0.0569  0.3119 -0.1446
   42MOL   H150 8432   4.331   7.872   0.615  1.8717 -0.6743  0.4082
   42MOL   H151 8433   4.192   7.911   0.704  0.2288  1.2655 -1.3230
   42MOL   C152 8434   4.363   7.963   0.817  0.2157 -0.6732  0.8058
   42MOL   C153 8435   4.363   8.107   0.777  0.4662 -0.5443 -0.4917
   42MOL  Cl154 8436   4.215   8.184   0.830  0.0657 -0.3019  0.1735
   42MOL   C155 8437   4.441   8.167   0.697 -0.3212 -0.8123 -0.0707
   42MOL   C156 8438   4.425   8.308   0.650  0.3902  0.1529 -0.3744
   42MOL   H157 8439   4.315   7.947   0.914  1.3582 -0.8731  1.3425
   42MOL   H158 8440   4.467   7.933   0.818  0.5906  0.5554 -0.0239
   42MOL   H159 8441   4.528   8.114   0.661 -0.7669  0.0047 -2.4168
   42MOL   H160 8442   4.521   8.359   0.642  0.3505  0.1945 -0.6153
   42MOL   H161 8443   4.361   8.362   0.720 -0.7722 -1.0377 -0.4916
   42MOL   C162 8444   4.358   8.299   0.515 -0.3528 -0.2257  0.0581
   42MOL   C163 8445   4.297   0.006   0.462  1.1328  0.1210 -0.7444
   42MOL  Cl164 8446   4.130   8.399   0.416  0.3343  0.2184 -0.1832
   42MOL   C165 8447   4.353   0.128   0.444 -0.8277  0.6134 -0.2551
   42MOL   C166 8448   4.297   0.254   0.383  0.1818  0.2609 -0.2018
   42MOL   H167 8449   4.425   8.278   0.431 -0.2335  1.3618 -0.2724
   42MOL   H168 8450   4.278   8.226   0.521 -1.4538  0.6811 -2.5615
   42MOL   H169 8451   4.458   0.130   0.469 -0.6316  0.1912 -1.0493
   42MOL   H170 8452   4.337   0.246   0.282  0.1401  1.6241 -0.3296
   42MOL   H171 8453   4.193   0.254   0.351  1.3886 -3.5564 -4.7380
   42MOL   C172 8454   4.339   0.383   0.456  0.5945  0.3608 -0.0324
   42MOL   C173 8455   4.295   0.504   0.380  0.7651 -0.7152  0.2098
   42MOL  Cl174 8456   4.364   0.651   0.448  0.2596 -0.2488 -0.2736
   42MOL   C175 8457   4.226   0.507   0.267  0.1811 -0.1426 -0.1809
   42MOL   C176 8458   4.188   0.625   0.184  0.1546  0.5592 -0.2197
   42MOL   H177 8459   4.447   0.391   0.459  0.6983 -0.0151 -2.1105
   42MOL   H178 8460   4.305   0.398   0.559 -1.1593 -0.7903 -0.4178
   42MOL   H179 8461   4.188   0.415   0.226  1.7484 -0.8466 -0.0781
   42MOL   H180 8462   4.227   0.718   0.226 -1.1373  1.9038 -1.9585
   42MOL   H181 8463   4.080   0.635   0.190  0.1502 -0.3646  1.5472
   42MOL   C182 8464   4.243   0.615   0.048 -0.0987 -0.4251  0.2080
   42MOL   C183 8465   4.168   0.509   8.385  0.2223  0.2647 -0.0802
   42MOL  Cl184 8466   4.269   0.374   8.333 -0.2479  0.2064 -0.1569
   42MOL   C185 8467   4.034   0.509   8.356  0.0946  0.7473 -0.3750
   42MOL   C186 8468   3.945   0.413   8.274 -0.4019  0.6044 -0.4676
   42MOL   H187 8469   4.249   0.713   0.000 -1.2314  0.3136  1.5516
   42MOL   H188 8470   4.346   0.582   0.061 -0.4136 -1.2068  0.7188
   42MOL   H189 8471   3.981   0.594   8.397  0.6415  1.3687 -0.9410
   42MOL   H190 8472   3.910   0.462   8.183 -0.1818 -0.9661 -1.4241
   42MOL   H191 8473   4.003   0.329   8.236 -0.6083  1.1888 -2.1003
   42MOL   C192 8474   3.827   0.372   8.367 -0.3563 -0.1363  0.0843
   42MOL   C193 8475   3.722   0.308   8.280 -0.5916  0.5186 -0.4290
   42MOL  Cl194 8476   3.728   0.135   8.288  0.3224 -0.1815  0.0854
   42MOL   C195 8477   3.641   0.376   8.197 -0.3038 -0.1686  0.4388
   42MOL   C196 8478   3.641   0.525   8.160 -0.4938  0.4478 -0.3768
   42MOL   H197 8479   3.782   0.461   8.409  1.0987  0.4324  0.4687
   42MOL   H198 8480   3.868   0.308   0.025  0.9665  0.9377  0.2757
   42MOL   H199 8481   3.578   0.326   8.125 -0.1725  2.7720 -1.8454
   42MOL   H200 8482   3.700   0.532   8.069  1.0858  2.9776  0.7879
   42MOL   H201 8483   3.671   0.583   8.247 -1.3293 -0.1315  0.3110
   42MOL   H202 8484   3.535   0.547   8.149 -0.7675 -1.3102 -1.4609
   43MOL     C1 8485   7.888   6.926   0.863  0.0684  0.2402 -0.1467
   43MOL     C2 8486   7.877   6.787   0.809  0.5603  0.6142 -0.2394
   43MOL    Cl3 8487   7.923   6.664   0.924  0.1494 -0.4126 -0.0856
   43MOL     C4 8488   7.838   6.753   0.685 -0.5944 -0.0063  0.0077
   43MOL     C5 8489   7.796   6.847   0.578  0.5818  0.1505  0.6510
   43MOL     H6 8490   7.795   6.970   0.900 -0.2844 -0.8247  0.2411
   43MOL     H7 8491   7.915   6.996   0.784 -0.6009  1.1909  0.4480
   43MOL     H8 8492   7.834   6.649   0.656 -2.2420 -0.7466  2.7009
   43MOL     H9 8493   7.790   6.946   0.623 -0.5411  0.8025 -0.8818
   43MOL    H10 8494   7.880   6.846   0.508 -0.8710  0.3793 -1.1462
   43MOL    H11 8495   7.964   6.921   0.941  1.1654  3.3945 -0.9175
   43MOL    C12 8496   7.680   6.794   0.493  0.1470  0.4356  0.3664
   43MOL    C13 8497   7.667   6.875   0.359  0.0418  0.7784 -0.3768
   43MOL   Cl14 8498   7.764   6.821   0.230 -0.3509  0.2511  0.0434
   43MOL    C15 8499   7.591   6.981   0.340 -0.5753 -0.5297  0.0968
   43MOL    C16 8500   7.510   7.049   0.448  0.5256 -0.1620  0.0293
   43MOL    H17 8501   7.699   6.695   0.452  1.1310  0.3214  1.0658
   43MOL    H18 8502   7.593   6.788   0.558 -1.1325  1.1810 -1.2357
   43MOL    H19 8503   7.596   7.021   0.240  1.5438 -1.4822 -0.2180
   43MOL    H20 8504   7.414   7.094   0.422  1.0194  1.0169  0.2212
   43MOL    H21 8505   7.495   6.985   0.535 -1.5689  0.6918  0.3254
   43MOL    C22 8506   7.603   7.158   0.513  0.5062 -0.2167 -0.5287
   43MOL    C23 8507   7.532   7.239   0.623  0.0546  0.3668  0.2583
   43MOL   Cl24 8508   7.445   7.373   0.562  0.4052 -0.0883 -0.0210
   43MOL    C25 8509   7.548   7.205   0.752  0.6834  0.2833 -0.3216
   43MOL    C26 8510   7.497   7.281   0.874  0.7389  0.0269 -0.5312
   43MOL    H27 8511   7.696   7.123   0.557  0.0656 -1.6657 -0.7240
   43MOL    H28 8512   7.620   7.226   0.429 -1.1861  1.0217  0.0998
   43MOL    H29 8513   7.618   7.130   0.785 -0.1279  0.0283  0.8519
   43MOL    H30 8514   7.581   7.344   0.903  0.0850  0.0594  1.3396
   43MOL    H31 8515   7.411   7.344   0.851 -1.1133 -3.3083 -3.1553
   43MOL    C32 8516   7.463   7.195   0.990  0.4360  0.2412 -0.1145
   43MOL    C33 8517   7.338   7.111   0.982  0.1340 -0.2166  0.1314
   43MOL   Cl34 8518   7.377   6.948   0.958 -0.2944  0.2288 -0.1588
   43MOL    C35 8519   7.206   7.150   0.979 -0.6316 -0.1091  0.2215
   43MOL    C36 8520   7.090   7.050   0.967 -0.1413  0.5135 -0.7193
   43MOL    H37 8521   7.550   7.133   1.009 -0.5138 -1.3997 -1.0750
   43MOL    H38 8522   7.452   7.250   1.084 -1.1540 -0.8573  0.3560
   43MOL    H39 8523   7.205   7.257   0.991  2.3346 -0.1700  1.4409
   43MOL    H40 8524   7.110   6.982   0.885  0.6589 -0.9346  0.6342
   43MOL    H41 8525   7.102   6.986   1.055 -0.5845 -0.7407 -1.5640
   43MOL    C42 8526   6.945   7.115   0.940  0.0010  0.4557 -0.5772
   43MOL    C43 8527   6.837   7.010   0.967 -0.4234 -0.2882 -0.0276
   43MOL   Cl44 8528   6.846   6.954   1.123  0.2842 -0.0542 -0.1331
   43MOL    C45 8529   6.741   6.972   0.879  0.1728 -0.7157  0.5341
   43MOL    C46 8530   6.724   7.015   0.736 -0.6450  0.0625  0.1467
   43MOL    H47 8531   6.921   7.204   1.000 -1.6605  0.4034 -1.1320
   43MOL    H48 8532   6.951   7.143   0.835  0.1720 -0.6721 -0.8661
   43MOL    H49 8533   6.663   6.907   0.914 -0.7789  1.2165  2.1652
   43MOL    H50 8534   6.825   7.037   0.702 -1.0816  1.8231 -0.0760
   43MOL    H51 8535   6.676   6.941   0.673 -0.3005  0.7134 -0.8992
   43MOL    C52 8536   6.641   7.141   0.721  0.3731  0.5558 -0.6804
   43MOL    C53 8537   6.502   7.124   0.762  0.6373 -0.5814  0.1451
   43MOL   Cl54 8538   6.471   7.213   0.903 -0.0441  0.4317  0.0625
   43MOL    C55 8539   6.409   7.058   0.693 -0.2859  0.6240  0.1423
   43MOL    C56 8540   6.259   7.036   0.730 -0.1222 -0.4020  0.0847
   43MOL    H57 8541   6.686   7.231   0.762  0.4366  0.3051 -0.1920
   43MOL    H58 8542   6.631   7.166   0.616  1.9325 -0.9305 -1.1951
   43MOL    H59 8543   6.449   7.014   0.602  0.0751 -0.4188  0.8013
   43MOL    H60 8544   6.244   7.104   0.814  0.3197  2.0238 -1.7421
   43MOL    H61 8545   6.197   7.069   0.647  1.5835 -1.1718 -1.5322
   43MOL    C62 8546   6.218   6.891   0.766  0.1982  0.1512  1.5211
   43MOL    C63 8547   6.090   6.878   0.849 -0.8781 -0.2152 -0.6260
   43MOL   Cl64 8548   6.090   6.730   0.929  0.5290 -0.2993 -0.1843
   43MOL    C65 8549   5.993   6.971   0.869  0.1844 -0.6921 -0.0768
   43MOL    C66 8550   5.882   6.953   0.963  0.7349 -0.0249  0.2183
   43MOL    H67 8551   6.221   6.823   0.682  2.1219  1.6317  0.3474
   43MOL    H68 8552   6.294   6.862   0.838 -0.6775 -0.5606  2.1835
   43MOL    H69 8553   5.996   7.067   0.819 -1.5082 -0.3658  0.4298
   43MOL    H70 8554   5.906   7.011   1.052  0.0823 -2.0193  1.7211
   43MOL    H71 8555   5.869   6.850   0.994 -0.8426  0.0528 -0.1618
   43MOL    C72 8556   5.745   6.992   0.910 -0.2647  0.9399  0.4140
   43MOL    C73 8557   5.634   7.021   1.012 -0.0297  0.6630  0.1582
   43MOL   Cl74 8558   5.597   7.195   0.996  0.1088  0.2240  0.0485
   43MOL    C75 8559   5.578   6.937   1.101  0.2694  0.3457  0.1043
   43MOL    C76 8560   5.475   6.975   1.197 -0.4391  0.4349 -0.0096
   43MOL    H77 8561   5.702   6.925   0.836  1.4037 -0.3471  0.5842
   43MOL    H78 8562   5.766   7.081   0.851  0.9840  0.7979  0.6298
   43MOL    H79 8563   5.611   6.834   1.104  0.6058  0.3940 -1.4376
   43MOL    H80 8564   5.377   6.953   1.155 -0.2068  2.4117 -1.6435
   43MOL    H81 8565   5.469   7.082   1.216  1.8094  0.2954  1.8426
   43MOL    C82 8566   5.509   6.911   1.334 -0.1841  0.5376  0.3788
   43MOL    C83 8567   5.422   6.954   1.451 -0.3775 -0.3208 -0.0346
   43MOL   Cl84 8568   5.257   6.981   1.406  0.2347  0.0033  0.1668
   43MOL    C85 8569   5.465   6.964   1.580  0.3165  0.8451 -0.0755
   43MOL    C86 8570   5.385   7.014   1.701 -0.7183 -0.6718  0.5251
   43MOL    H87 8571   5.611   6.923   1.371  0.2169 -3.6816  0.8569
   43MOL    H88 8572   5.488   6.804   1.335  1.4677  0.1956  1.3314
   43MOL    H89 8573   5.568   6.933   1.588  0.1280  0.1038 -0.4841
   43MOL    H90 8574   5.290   6.962   1.714 -0.7714 -0.5803  0.4990
   43MOL    H91 8575   5.443   6.979   1.787  1.6111  0.5520 -0.4946
   43MOL    C92 8576   5.365   7.166   1.693  0.3228  0.3831 -0.0136
   43MOL    C93 8577   5.278   7.227   1.805  0.1369  0.5357  0.4273
   43MOL   Cl94 8578   5.376   7.297   1.920  0.1005 -0.1492 -0.4710
   43MOL    C95 8579   5.147   7.241   1.815  0.4201  0.7625  0.1028
   43MOL    C96 8580   5.048   7.205   1.705 -0.2798  0.0411 -0.1421
   43MOL    H97 8581   5.328   7.193   1.594 -0.5535  1.5673  0.6330
   43MOL    H98 8582   5.467   7.204   1.688  0.1266  1.0949  1.4304
   43MOL    H99 8583   5.102   7.298   1.895 -0.5576  0.7503 -0.4185
   43MOL   H100 8584   4.991   7.292   1.673 -1.1728 -0.4117  0.1837
   43MOL   H101 8585   5.104   7.188   1.613 -1.6857 -1.0722 -0.8013
   43MOL   C102 8586   4.954   7.091   1.745 -0.1159 -0.8950 -0.4363
   43MOL   C103 8587   4.858   7.064   1.626  0.2980  0.0382 -0.9662
   43MOL  Cl104 8588   4.911   6.930   1.536 -0.0854 -0.1652 -0.1221
   43MOL   C105 8589   4.739   7.124   1.614 -0.7342  0.3929  0.0380
   43MOL   C106 8590   4.631   7.104   1.510 -0.6634  0.4217  0.4315
   43MOL   H107 8591   5.012   7.005   1.778  0.2401 -0.7805 -0.7656
   43MOL   H108 8592   4.893   7.121   1.830  1.8108 -0.1038  0.7142
   43MOL   H109 8593   4.717   7.192   1.695 -0.3800  1.2050 -0.5335
   43MOL   H110 8594   4.656   7.030   1.434 -0.2821  0.7543  0.2296
   43MOL   H111 8595   4.549   7.063   1.569 -1.1204  1.4789  0.5405
   43MOL   C112 8596   4.585   7.235   1.444  0.0316 -0.2439 -0.0419
   43MOL   C113 8597   4.462   7.217   1.358  0.7071  0.0630  0.0599
   43MOL  Cl114 8598   4.342   7.143   1.457 -0.0011  0.1463  0.0934
   43MOL   C115 8599   4.445   7.240   1.226 -0.5479  0.2309 -0.0257
   43MOL   C116 8600   4.551   7.311   1.142 -0.0791 -0.4625 -0.2734
   43MOL   H117 8601   4.564   7.305   1.525 -2.3972 -0.5717 -0.3290
   43MOL   H118 8602   4.673   7.277   1.395 -0.0832  1.3323  1.0453
   43MOL   H119 8603   4.350   7.209   1.186 -0.2032 -4.1436  2.2563
   43MOL   H120 8604   4.630   7.360   1.198  0.4921 -1.5354 -0.1397
   43MOL   H121 8605   4.497   7.391   1.090 -2.5366 -0.9287  1.4661
   43MOL   C122 8606   4.607   7.213   1.038 -0.1903 -0.0413 -0.1053
   43MOL   C123 8607   4.673   7.081   1.093 -0.1169 -0.4909  0.3216
   43MOL  Cl124 8608   4.569   6.938   1.070  0.0287 -0.3002 -0.0383
   43MOL   C125 8609   4.797   7.073   1.141  0.1111 -0.5918 -0.1104
   43MOL   C126 8610   4.888   7.194   1.161 -0.3809 -0.1437 -0.0935
   43MOL   H127 8611   4.533   7.187   0.963  2.5428 -0.7069 -2.6617
   43MOL   H128 8612   4.685   7.263   0.981  0.3561  3.2273  3.2466
   43MOL   H129 8613   4.836   6.975   1.163 -0.2134 -0.9710 -1.1898
   43MOL   H130 8614   4.947   7.206   1.070  1.3773 -1.4387  0.8554
   43MOL   H131 8615   4.826   7.284   1.163 -0.3558 -0.1562  2.0161
   43MOL   C132 8616   4.985   7.194   1.278 -0.3231  0.3514  0.6705
   43MOL   C133 8617   5.074   7.312   1.284  0.5409 -0.2921 -0.3545
   43MOL  Cl134 8618   5.028   7.424   1.406 -0.3053  0.2041  0.0388
   43MOL   C135 8619   5.178   7.330   1.203 -0.3935 -0.0981  0.4783
   43MOL   C136 8620   5.209   7.244   1.083 -0.0141 -0.0311  0.9186
   43MOL   H137 8621   4.924   7.195   1.368 -0.9072 -1.3527  0.3216
   43MOL   H138 8622   5.045   7.104   1.261 -1.9412 -0.1993 -2.4137
   43MOL   H139 8623   5.237   7.420   1.197 -2.0316  1.0796  1.6069
   43MOL   H140 8624   5.317   7.226   1.085  0.0313 -0.1070 -1.0057
   43MOL   H141 8625   5.161   7.146   1.080  0.7773 -0.4064  0.1299
   43MOL   C142 8626   5.180   7.315   0.947 -0.5334  0.0588  1.0215
   43MOL   C143 8627   5.162   7.204   0.843  1.2429 -0.4141 -0.4433
   43MOL  Cl144 8628   4.999   7.191   0.791  0.0523 -0.1388  0.3378
   43MOL   C145 8629   5.261   7.136   0.785  0.0596  0.2368 -0.4620
   43MOL   C146 8630   5.250   7.023   0.685 -0.8455  0.2217 -0.1880
   43MOL   H147 8631   5.268   7.362   0.903 -0.8555 -0.1205  0.1770
   43MOL   H148 8632   5.104   7.393   0.951 -0.5025  0.1249  0.2855
   43MOL   H149 8633   5.364   7.162   0.806  0.4282 -1.9167  0.5589
   43MOL   H150 8634   5.145   7.013   0.658 -0.6634 -0.5507 -0.6206
   43MOL   H151 8635   5.312   7.047   0.598 -1.1547 -0.2608 -0.5437
   43MOL   C152 8636   5.293   6.888   0.754 -0.5478 -0.4997  0.0308
   43MOL   C153 8637   5.260   6.768   0.670  0.6137 -0.0380 -0.0456
   43MOL  Cl154 8638   5.394   6.685   0.611 -0.0493  0.0430  0.2923
   43MOL   C155 8639   5.132   6.729   0.647 -0.2756  0.3432  0.7218
   43MOL   C156 8640   5.091   6.603   0.566 -0.4271 -0.4804  0.2259
   43MOL   H157 8641   5.400   6.881   0.774 -0.1178 -4.4892 -3.1067
   43MOL   H158 8642   5.244   6.876   0.851  0.6658 -1.5969  0.5190
   43MOL   H159 8643   5.054   6.787   0.693  0.1628 -0.1966  2.2091
   43MOL   H160 8644   5.172   6.548   0.518  0.1801  1.9954 -1.6647
   43MOL   H161 8645   5.022   6.632   0.486 -1.1823  2.4905  1.8996
   43MOL   C162 8646   5.023   6.505   0.657  0.1933  0.1068  0.2448
   43MOL   C163 8647   5.000   6.367   0.589  0.3210 -0.6833  0.0604
   43MOL  Cl164 8648   5.042   6.246   0.703  0.0366  0.0565  0.0994
   43MOL   C165 8649   4.964   6.343   0.464 -0.0965  0.0238 -0.6680
   43MOL   C166 8650   4.951   6.205   0.408 -0.3318 -0.4528  0.2444
   43MOL   H167 8651   5.101   6.483   0.731  0.8524  0.9240 -0.2028
   43MOL   H168 8652   4.922   6.532   0.689 -0.8580 -3.0121 -0.2163
   43MOL   H169 8653   4.944   6.434   0.408  0.6962  1.9433  2.0729
   43MOL   H170 8654   4.975   6.139   0.492  0.7607  0.4560  0.6544
   43MOL   H171 8655   4.845   6.186   0.397 -0.4133 -1.0523  1.8267
   43MOL   C172 8656   5.037   6.172   0.279 -0.3279 -0.1793 -0.5706
   43MOL   C173 8657   4.997   6.047   0.211  0.6257 -0.2180 -0.8834
   43MOL  Cl174 8658   4.910   6.082   0.072 -0.0183 -0.2633  0.3993
   43MOL   C175 8659   5.009   5.921   0.258 -0.4198 -0.0684  0.4463
   43MOL   C176 8660   4.964   5.789   0.201  0.0974 -0.1201  0.6588
   43MOL   H177 8661   5.144   6.173   0.300  0.1903  4.2686 -2.8585
   43MOL   H178 8662   5.013   6.250   0.207  0.5126  0.7430  0.1352
   43MOL   H179 8663   5.044   5.918   0.360 -1.5682  1.3683  0.9056
   43MOL   H180 8664   5.046   5.719   0.187  0.1583  0.2390 -0.9238
   43MOL   H181 8665   4.925   5.794   0.099  3.8865  1.1779 -0.8142
   43MOL   C182 8666   4.864   5.727   0.291  0.2580 -0.0859 -0.7362
   43MOL   C183 8667   4.804   5.603   0.234 -0.4560 -0.6574  1.2292
   43MOL  Cl184 8668   4.919   5.468   0.213  0.0232 -0.1670  0.2349
   43MOL   C185 8669   4.668   5.590   0.227  0.8786  0.7394  0.0502
   43MOL   C186 8670   4.591   5.464   0.196  0.1086  0.7369  0.0044
   43MOL   H187 8671   4.920   5.691   0.377 -0.2128 -2.3857 -1.3617
   43MOL   H188 8672   4.796   5.797   0.340  1.1186  0.4881 -0.3568
   43MOL   H189 8673   4.611   5.674   0.264 -0.3862  0.1359 -0.5255
   43MOL   H190 8674   4.648   5.371   0.201 -1.0183 -0.1242 -2.5022
   43MOL   H191 8675   4.517   5.463   0.275 -2.1737  1.3916 -2.0767
   43MOL   C192 8676   4.542   5.465   0.053  0.5026 -0.6011 -0.3502
   43MOL   C193 8677   4.437   5.359   0.030 -0.5966 -0.5704 -0.3913
   43MOL  Cl194 8678   4.318   5.357   0.146  0.3805  0.0032 -0.2151
   43MOL   C195 8679   4.428   5.265   8.354 -0.5375  0.1140 -0.5578
   43MOL   C196 8680   4.521   5.247   8.231 -0.7138 -0.5559 -0.2577
   43MOL   H197 8681   4.618   5.450   8.398  0.6300 -0.8305 -0.1774
   43MOL   H198 8682   4.489   5.559   0.035  0.5372 -0.6579 -0.7388
   43MOL   H199 8683   4.343   5.198   8.354 -0.1689 -0.3848  1.2265
   43MOL   H200 8684   4.559   5.145   8.224  1.3473  0.1784 -0.1351
   43MOL   H201 8685   4.605   5.316   8.225 -0.1448 -1.2853 -0.7476
   43MOL   H202 8686   4.453   5.252   8.146  0.0351 -0.6312 -0.8584
   44MOL     C1 8687   6.924   4.541   6.460  0.2223 -0.4187  0.2973
   44MOL     C2 8688   6.979   4.574   6.603  0.1627 -0.0022  0.1408
   44MOL    Cl3 8689   7.084   4.447   6.654 -0.0012 -0.0427 -0.0878
   44MOL     C4 8690   6.960   4.688   6.666 -0.3988  0.0557 -0.2745
   44MOL     C5 8691   6.880   4.804   6.622  0.4384 -0.1443  0.1961
   44MOL     H6 8692   7.006   4.572   6.396 -0.4179 -2.3387 -1.5075
   44MOL     H7 8693   6.824   4.576   6.434  0.3391 -0.2344  0.0960
   44MOL     H8 8694   7.010   4.703   6.760  1.7066  0.2392 -1.4000
   44MOL     H9 8695   6.825   4.781   6.531  0.7473  0.1680 -0.0754
   44MOL    H10 8696   6.807   4.827   6.700  2.2364  0.9319  1.6100
   44MOL    H11 8697   6.916   4.432   6.457 -0.2207 -0.3394 -1.8232
   44MOL    C12 8698   6.957   4.932   6.587 -0.4783 -0.0576 -0.1088
   44MOL    C13 8699   6.875   5.048   6.552  0.1987 -1.1269 -0.3435
   44MOL   Cl14 8700   6.869   5.167   6.671  0.2021  0.2253  0.1154
   44MOL    C15 8701   6.808   5.060   6.442  0.1779 -0.1555  0.0312
   44MOL    C16 8702   6.798   4.968   6.320 -0.0813 -0.5287 -0.3302
   44MOL    H17 8703   7.030   4.949   6.666 -0.3655  1.5743 -0.5305
   44MOL    H18 8704   7.011   4.909   6.495 -0.6442 -3.2151  0.5369
   44MOL    H19 8705   6.749   5.151   6.444  0.7746  0.2229  0.3776
   44MOL    H20 8706   6.825   5.016   6.226  1.2304 -2.2381 -0.8449
   44MOL    H21 8707   6.863   4.881   6.329  0.5478  0.0319  0.4786
   44MOL    C22 8708   6.653   4.918   6.298 -0.3873  0.0498  0.0938
   44MOL    C23 8709   6.636   4.829   6.179  0.7100 -0.1218 -0.9340
   44MOL   Cl24 8710   6.597   4.661   6.226  0.0099 -0.4202  0.4594
   44MOL    C25 8711   6.658   4.864   6.051  0.3600 -0.2222 -0.4364
   44MOL    C26 8712   6.632   4.785   5.928  0.4120 -0.2679  0.4267
   44MOL    H27 8713   6.623   4.872   6.392  0.0820  0.9536  0.6934
   44MOL    H28 8714   6.576   4.995   6.294 -0.0959  0.2855 -0.9749
   44MOL    H29 8715   6.691   4.966   6.036  0.5352 -0.4987 -2.0122
   44MOL    H30 8716   6.717   4.776   5.860  0.2555  0.1036  0.1771
   44MOL    H31 8717   6.590   4.689   5.956 -3.2849  0.9660 -0.5802
   44MOL    C32 8718   6.523   4.857   5.837  1.0592 -0.4573  0.3358
   44MOL    C33 8719   6.488   4.803   5.702 -0.6580  0.1099 -0.9295
   44MOL   Cl34 8720   6.336   4.878   5.644  0.0600 -0.2342  0.1897
   44MOL    C35 8721   6.552   4.709   5.633 -0.1252 -0.1909 -0.4550
   44MOL    C36 8722   6.522   4.659   5.495  1.0138  0.2456 -0.0018
   44MOL    H37 8723   6.427   4.843   5.889  1.7041  1.0488  1.9537
   44MOL    H38 8724   6.530   4.965   5.832  0.2399 -0.4900 -1.7121
   44MOL    H39 8725   6.638   4.658   5.673  0.8171  2.5239  1.1594
   44MOL    H40 8726   6.494   4.746   5.436 -1.5186 -0.4220  0.1638
   44MOL    H41 8727   6.613   4.645   5.437 -0.1455 -0.1781 -1.7564
   44MOL    C42 8728   6.436   4.534   5.486 -0.4077  0.0533  0.3822
   44MOL    C43 8729   6.412   4.491   5.344  0.5177  0.2410  0.1179
   44MOL   Cl44 8730   6.498   4.351   5.302 -0.3406  0.1393 -0.3891
   44MOL    C45 8731   6.330   4.548   5.256 -0.2019 -0.1001 -0.4682
   44MOL    C46 8732   6.247   4.670   5.267 -0.6151  0.5389  0.1532
   44MOL    H47 8733   6.477   4.451   5.543  0.6205  0.3598  0.1031
   44MOL    H48 8734   6.335   4.560   5.516 -0.7568  1.6526 -2.0068
   44MOL    H49 8735   6.322   4.498   5.161  1.9539 -1.1033 -0.1566
   44MOL    H50 8736   6.262   4.718   5.363  0.1919  0.2854  0.1562
   44MOL    H51 8737   6.282   4.733   5.186 -1.2237  1.8046  0.8615
   44MOL    C52 8738   6.092   4.641   5.257  0.0174  0.2130  0.8413
   44MOL    C53 8739   6.027   4.771   5.212  0.2487  0.2049  0.6938
   44MOL   Cl54 8740   5.957   4.752   5.054  0.5046  0.0306  0.0491
   44MOL    C55 8741   6.042   4.892   5.268 -0.4728 -0.3925  0.2355
   44MOL    C56 8742   5.984   5.019   5.206  0.1956  0.7276 -0.0752
   44MOL    H57 8743   6.074   4.565   5.182  2.6516  0.4227 -0.0659
   44MOL    H58 8744   6.052   4.616   5.355  0.8059  2.9007  1.9046
   44MOL    H59 8745   6.100   4.911   5.357 -0.7168  0.0232  0.3047
   44MOL    H60 8746   5.950   4.996   5.105  1.8363 -4.6905  0.4194
   44MOL    H61 8747   5.897   5.057   5.260  2.2514  3.3424  1.5361
   44MOL    C62 8748   6.088   5.126   5.192 -0.5091 -0.5180 -0.1933
   44MOL    C63 8749   6.063   5.202   5.066  0.5048 -0.2310 -0.0098
   44MOL   Cl64 8750   5.963   5.338   5.095 -0.3573  0.3746 -0.2380
   44MOL    C65 8751   6.128   5.185   4.948 -0.2974 -0.3632  0.2053
   44MOL    C66 8752   6.109   5.265   4.826  0.8245 -0.7520  0.0911
   44MOL    H67 8753   6.103   5.185   5.283  0.0279 -0.1550 -0.5142
   44MOL    H68 8754   6.188   5.082   5.192  0.6782  2.0663  0.1939
   44MOL    H69 8755   6.198   5.105   4.930  2.9963  1.9596  2.2023
   44MOL    H70 8756   6.203   5.268   4.771  0.7392 -1.7905 -0.1357
   44MOL    H71 8757   6.064   5.363   4.836 -1.4710 -1.5787 -1.5965
   44MOL    C72 8758   6.008   5.194   4.730 -0.2730  0.0679 -0.2965
   44MOL    C73 8759   5.944   5.288   4.633  0.3530  0.2999  0.2206
   44MOL   Cl74 8760   5.804   5.220   4.549  0.2912  0.0358 -0.1684
   44MOL    C75 8761   6.008   5.389   4.577 -0.0087  0.6743  0.4919
   44MOL    C76 8762   5.969   5.443   4.437 -0.3942 -0.3072 -0.4367
   44MOL    H77 8763   5.938   5.143   4.797  1.0038  0.9990  1.7799
   44MOL    H78 8764   6.051   5.118   4.665  0.4299  1.5009 -1.5283
   44MOL    H79 8765   6.099   5.437   4.612 -0.2843  1.6443 -0.1117
   44MOL    H80 8766   5.862   5.447   4.417 -0.4146  0.9750 -0.1638
   44MOL    H81 8767   6.019   5.384   4.361  1.8136  0.5974  0.2775
   44MOL    C82 8768   6.017   5.588   4.432 -0.2190 -0.0633 -0.2071
   44MOL    C83 8769   5.966   5.671   4.308 -0.6834 -0.3863  0.0155
   44MOL   Cl84 8770   6.005   5.841   4.317  0.1179  0.0514  0.1357
   44MOL    C85 8771   5.896   5.608   4.214 -0.1240 -0.5145 -0.5714
   44MOL    C86 8772   5.855   5.680   4.086 -0.6706  0.3913  0.0003
   44MOL    H87 8773   6.125   5.594   4.422 -0.2978  0.5888 -0.7140
   44MOL    H88 8774   6.011   5.636   4.529 -1.0626 -3.1899  1.3545
   44MOL    H89 8775   5.888   5.500   4.216  1.3645 -0.6765 -2.4429
   44MOL    H90 8776   5.917   5.768   4.069  2.0920 -0.6404  3.9542
   44MOL    H91 8777   5.868   5.612   4.002 -1.0856  2.5581 -1.8565
   44MOL    C92 8778   5.699   5.706   4.079 -0.1012  0.4766 -0.0434
   44MOL    C93 8779   5.653   5.758   3.943  0.2965 -0.2366 -0.2915
   44MOL   Cl94 8780   5.625   5.632   3.830  0.3313 -0.1937 -0.1426
   44MOL    C95 8781   5.642   5.886   3.915  0.3793 -0.1653 -0.3214
   44MOL    C96 8782   5.663   6.001   4.007 -0.1109  0.2020  0.5094
   44MOL    H97 8783   5.671   5.770   4.162 -1.3942 -0.4112  0.2139
   44MOL    H98 8784   5.654   5.608   4.095  1.8493 -0.4802 -0.1776
   44MOL    H99 8785   5.623   5.914   3.812 -2.3821  0.3085  0.3018
   44MOL   H100 8786   5.677   5.975   4.112 -1.1115 -0.1600  0.5547
   44MOL   H101 8787   5.756   6.051   3.981  0.0843 -0.5659 -0.2804
   44MOL   C102 8788   5.542   6.091   4.007 -0.5691  0.3969 -0.1570
   44MOL   C103 8789   5.405   6.042   4.056 -0.7102 -0.3534 -0.0831
   44MOL  Cl104 8790   5.288   6.067   3.932 -0.2578  0.1660 -0.0516
   44MOL   C105 8791   5.377   5.993   4.177  0.4136 -0.1202 -0.1291
   44MOL   C106 8792   5.240   5.961   4.223  0.2624 -0.3325  0.6318
   44MOL   H107 8793   5.565   6.184   4.060  0.2368  1.3689 -2.1209
   44MOL   H108 8794   5.527   6.136   3.909  1.2626  1.0400 -0.1589
   44MOL   H109 8795   5.454   5.981   4.252  0.9852  0.1852 -0.6660
   44MOL   H110 8796   5.223   6.015   4.316  0.3030  1.0132 -0.1379
   44MOL   H111 8797   5.158   5.983   4.155 -0.0120  1.0091  1.3934
   44MOL   C112 8798   5.233   5.809   4.252  0.8411 -0.7744 -0.2951
   44MOL   C113 8799   5.111   5.753   4.320  0.1136  0.4452  0.2958
   44MOL  Cl114 8800   4.986   5.857   4.374  0.0653  0.0686 -0.2049
   44MOL   C115 8801   5.100   5.618   4.329 -0.0289 -0.5200 -0.2278
   44MOL   C116 8802   5.202   5.518   4.282  0.8878 -0.0120 -0.3260
   44MOL   H117 8803   5.228   5.761   4.154  1.0793 -1.3375 -0.0319
   44MOL   H118 8804   5.316   5.779   4.315  0.5751 -0.0765  0.3988
   44MOL   H119 8805   5.014   5.578   4.381  0.9891 -0.8417  1.2334
   44MOL   H120 8806   5.272   5.547   4.203  3.3084 -1.1538  1.3382
   44MOL   H121 8807   5.144   5.438   4.237 -0.6825  0.3075  1.1187
   44MOL   C122 8808   5.279   5.473   4.412 -0.2377  0.1609 -0.3231
   44MOL   C123 8809   5.384   5.371   4.365  0.4060 -0.4959  0.3118
   44MOL  Cl124 8810   5.539   5.436   4.338 -0.0843  0.2746  0.1065
   44MOL   C125 8811   5.358   5.242   4.343  0.2291  1.2540  0.0005
   44MOL   C126 8812   5.225   5.168   4.359  0.2956  0.1132  0.0262
   44MOL   H127 8813   5.327   5.557   4.462  0.4679  0.5290 -1.5958
   44MOL   H128 8814   5.207   5.421   4.475 -0.3621 -0.9287 -1.3524
   44MOL   H129 8815   5.438   5.180   4.308  0.1825  0.4361  1.3122
   44MOL   H130 8816   5.237   5.093   4.438  0.0654 -0.0294 -0.0752
   44MOL   H131 8817   5.152   5.239   4.396 -0.1062 -0.5596  0.5455
   44MOL   C132 8818   5.188   5.080   4.233 -0.0644  0.0546 -0.0388
   44MOL   C133 8819   5.146   5.166   4.114 -0.3984 -0.2758 -0.2822
   44MOL  Cl134 8820   5.274   5.213   4.009  0.1029 -0.4156  0.1490
   44MOL   C135 8821   5.021   5.186   4.069 -0.4985 -0.2799 -0.1107
   44MOL   C136 8822   4.890   5.143   4.134 -0.1393 -0.2749 -0.3783
   44MOL   H137 8823   5.275   5.020   4.207 -0.9944 -1.5174  0.4147
   44MOL   H138 8824   5.111   5.012   4.269 -0.4997  0.1039 -0.8767
   44MOL   H139 8825   5.018   5.240   3.976  0.7891 -2.1252 -1.2531
   44MOL   H140 8826   4.910   5.086   4.225 -1.4046  0.6883  0.5266
   44MOL   H141 8827   4.834   5.234   4.159 -0.0787 -0.2225 -0.4346
   44MOL   C142 8828   4.802   5.057   4.048  0.3857  0.7105  0.9432
   44MOL   C143 8829   4.679   5.019   4.126  1.1318 -0.0477 -0.5578
   44MOL  Cl144 8830   4.571   5.155   4.155  0.1288 -0.1970  0.2552
   44MOL   C145 8831   4.663   4.895   4.169  0.5318  0.2513  0.0294
   44MOL   C146 8832   4.541   4.835   4.242  0.2409  0.0012 -0.2273
   44MOL   H147 8833   4.856   4.965   4.023  0.7119  1.0699  0.3102
   44MOL   H148 8834   4.779   5.113   3.957  0.2303 -0.9783 -0.0714
   44MOL   H149 8835   4.746   4.832   4.142 -0.1881  0.3197 -2.4527
   44MOL   H150 8836   4.554   4.814   4.348 -0.1774 -1.3890 -0.4504
   44MOL   H151 8837   4.457   4.904   4.246 -0.0189 -0.3894  1.7189
   44MOL   C152 8838   4.512   4.707   4.164 -0.3210 -0.0223  0.0646
   44MOL   C153 8839   4.458   4.727   4.024 -0.5425  0.0597  1.0435
   44MOL  Cl154 8840   4.513   4.605   3.922 -0.3873  0.0400 -0.3505
   44MOL   C155 8841   4.368   4.819   3.988  0.1773  0.5123  0.1788
   44MOL   C156 8842   4.295   4.832   3.861 -0.2835  1.2536 -0.1713
   44MOL   H157 8843   4.585   4.627   4.174  1.6411  1.7678  0.3302
   44MOL   H158 8844   4.417   4.668   4.200  0.2054 -2.5419 -1.1741
   44MOL   H159 8845   4.347   4.899   4.057  0.0276  0.6843 -0.0678
   44MOL   H160 8846   4.299   4.741   3.802  1.0498  1.5022 -0.4739
   44MOL   H161 8847   4.352   4.898   3.796  0.2158  1.3999  0.4101
   44MOL   C162 8848   4.149   4.865   3.876 -0.2931  0.3727 -0.2234
   44MOL   C163 8849   4.070   4.860   3.743 -0.0537  0.1328  0.0274
   44MOL  Cl164 8850   4.046   4.696   3.699 -0.2880  0.0952  0.0593
   44MOL   C165 8851   4.012   4.966   3.685  0.0621 -0.6555 -0.4335
   44MOL   C166 8852   3.922   4.969   3.560 -0.1860  0.2716 -0.2901
   44MOL   H167 8853   4.095   4.790   3.933 -0.7905  0.2973 -0.7872
   44MOL   H168 8854   4.147   4.965   3.919 -2.3844  0.3491 -0.2489
   44MOL   H169 8855   4.024   5.060   3.737  0.0930 -1.8959  1.8667
   44MOL   H170 8856   3.886   4.871   3.529  0.0276  0.6645 -1.8236
   44MOL   H171 8857   3.827   5.020   3.577 -0.7612 -1.2210  1.0973
   44MOL   C172 8858   3.997   5.022   3.434  0.7569 -0.4901 -0.8248
   44MOL   C173 8859   4.148   4.990   3.431 -0.0337 -0.0544  0.3341
   44MOL  Cl174 8860   4.183   4.819   3.414  0.0673 -0.1046  0.0636
   44MOL   C175 8861   4.248   5.080   3.446 -0.6710  0.2729 -0.5974
   44MOL   C176 8862   4.392   5.047   3.471  0.0036  0.2002 -0.4689
   44MOL   H177 8863   3.994   5.131   3.424 -1.0212 -0.5566 -1.1181
   44MOL   H178 8864   3.943   4.977   3.350  1.5716 -1.1874 -0.9791
   44MOL   H179 8865   4.223   5.185   3.441  3.4994  1.3992  0.0851
   44MOL   H180 8866   4.454   5.102   3.401 -1.0354 -0.0406 -1.6015
   44MOL   H181 8867   4.411   4.943   3.441 -1.0651 -0.0050 -0.4760
   44MOL   C182 8868   4.442   5.084   3.604  0.7569  0.4060 -0.3422
   44MOL   C183 8869   4.586   5.039   3.621 -0.8504  0.0966  0.1690
   44MOL  Cl184 8870   4.688   5.126   3.510 -0.0767  0.0846  0.0331
   44MOL   C185 8871   4.628   4.934   3.699  0.3189 -0.9881 -0.1543
   44MOL   C186 8872   4.768   4.883   3.696 -0.2682  0.4582 -0.3350
   44MOL   H187 8873   4.436   5.192   3.621  0.0785  0.0673  1.8188
   44MOL   H188 8874   4.373   5.047   3.681  0.9495  0.3155 -0.2139
   44MOL   H189 8875   4.562   4.879   3.765 -1.4808 -0.3578 -1.3978
   44MOL   H190 8876   4.833   4.969   3.677 -1.8001  1.8625  0.7214
   44MOL   H191 8877   4.794   4.838   3.791 -0.8584 -1.5647 -1.1003
   44MOL   C192 8878   4.776   4.772   3.584  0.1264 -0.1075  0.5825
   44MOL   C193 8879   4.724   4.637   3.627  0.8095 -0.1224 -0.1038
   44MOL  Cl194 8880   4.828   4.574   3.753  0.3108  0.7158  0.1699
   44MOL   C195 8881   4.617   4.575   3.576 -0.2463 -0.0551 -0.4499
   44MOL   C196 8882   4.525   4.630   3.468 -0.2483 -1.1970 -0.4502
   44MOL   H197 8883   4.882   4.750   3.565  0.2307 -0.3319  1.4392
   44MOL   H198 8884   4.736   4.794   3.485 -1.0354 -1.7213  0.6887
   44MOL   H199 8885   4.587   4.478   3.614 -0.2280  0.0344 -0.2027
   44MOL   H200 8886   4.543   4.729   3.425 -0.3564  0.4927  3.2294
   44MOL   H201 8887   4.418   4.615   3.482 -0.5906 -0.2039 -1.8149
   44MOL   H202 8888   4.542   4.561   3.386  1.0753 -0.7883 -0.5353
   45MOL     C1 8889   0.852   7.623   1.149  0.0131 -0.2853  0.8787
   45MOL     C2 8890   0.768   7.498   1.159 -0.2090 -0.7703  0.6835
   45MOL    Cl3 8891   0.845   7.364   1.073  0.0466 -0.0789 -0.5036
   45MOL     C4 8892   0.661   7.471   1.235  0.5339  0.7288 -1.1441
   45MOL     C5 8893   0.597   7.575   1.332  0.4483 -0.0112 -0.1550
   45MOL     H6 8894   0.795   7.709   1.186 -3.0858 -1.5909 -0.6683
   45MOL     H7 8895   0.879   7.643   1.045 -1.8302 -0.9565  0.2533
   45MOL     H8 8896   0.611   7.376   1.242  2.0920 -0.0313 -0.2617
   45MOL     H9 8897   0.601   7.540   1.435 -3.4551 -1.4383 -0.4250
   45MOL    H10 8898   0.653   7.669   1.337 -0.3661  0.4772 -0.1348
   45MOL    H11 8899   0.947   7.619   1.201  0.1870 -0.6256  0.5356
   45MOL    C12 8900   0.455   7.615   1.286  0.2231  0.1410 -0.2794
   45MOL    C13 8901   0.385   7.720   1.374  0.2017 -0.2505  0.2596
   45MOL   Cl14 8902   0.396   7.886   1.313  0.5105  0.1948 -0.0235
   45MOL    C15 8903   0.310   7.698   1.482 -0.0231  0.0440  0.0630
   45MOL    C16 8904   0.287   7.555   1.543  0.1549  0.3083  0.1986
   45MOL    H17 8905   0.469   7.643   1.182  2.2575 -0.6625 -0.2476
   45MOL    H18 8906   0.387   7.531   1.274 -0.6033  0.6371  0.7712
   45MOL    H19 8907   0.278   7.786   1.537 -0.1106 -0.7174  1.2503
   45MOL    H20 8908   0.323   7.478   1.475 -2.9208  0.2630 -1.4641
   45MOL    H21 8909   0.332   7.553   1.642  0.1894 -1.3195  0.1737
   45MOL    C22 8910   0.142   7.512   1.558 -0.0007  0.5803  0.1257
   45MOL    C23 8911   0.118   7.395   1.657  0.1718 -0.0873  0.4693
   45MOL   Cl24 8912   0.179   7.437   1.808 -0.3332 -0.0284  0.1056
   45MOL    C25 8913   0.044   7.284   1.637 -0.3599  0.1501  0.3420
   45MOL    C26 8914   0.014   7.179   1.748  0.5344 -0.2611  1.0216
   45MOL    H27 8915   0.084   7.600   1.589 -2.1171 -1.3838  1.9613
   45MOL    H28 8916   0.107   7.483   1.459  0.0629 -1.0382  0.5748
   45MOL    H29 8917   0.002   7.269   1.538  0.8464 -1.0917  0.0047
   45MOL    H30 8918   0.007   7.076   1.714  0.2134 -0.4264  1.5890
   45MOL    H31 8919   0.100   7.186   1.814  0.2639  0.7745  1.2753
   45MOL    C32 8920   8.314   7.222   1.834  0.2475  0.0090  0.3086
   45MOL    C33 8921   8.303   7.147   1.966  0.3201 -0.6243 -0.4262
   45MOL   Cl34 8922   8.202   7.006   1.962  0.0895 -0.0267 -0.1586
   45MOL    C35 8923   8.358   7.190   2.081 -0.0888  0.2566  0.2821
   45MOL    C36 8924   8.350   7.119   2.220  0.4254 -0.3454 -0.3864
   45MOL    H37 8925   8.332   7.328   1.853  0.8017  0.9362 -4.5862
   45MOL    H38 8926   8.220   7.205   1.780  0.2147  0.9483  0.0548
   45MOL    H39 8927   8.416   7.281   2.073  0.9802 -0.3251  1.2872
   45MOL    H40 8928   8.265   7.155   2.278  0.8653 -0.0636  0.0910
   45MOL    H41 8929   8.320   7.015   2.208  0.3918 -0.3844  0.0186
   45MOL    C42 8930   0.059   7.136   2.298  0.0448 -0.9213  0.4482
   45MOL    C43 8931   0.045   7.091   2.444  0.2899 -0.9751 -0.0913
   45MOL   Cl44 8932   0.029   7.212   2.558 -0.2256 -0.0151  0.0300
   45MOL    C45 8933   0.022   6.967   2.477 -0.0810 -0.1724 -0.6963
   45MOL    C46 8934   0.022   6.841   2.397 -0.7258  0.2125 -0.6697
   45MOL    H47 8935   0.132   7.072   2.248 -0.3236 -1.0273  0.0537
   45MOL    H48 8936   0.088   7.241   2.296 -0.7568 -0.7203 -0.7120
   45MOL    H49 8937   8.420   6.962   2.583  1.3976  2.2768 -0.2309
   45MOL    H50 8938   0.065   6.859   2.299 -1.8889  2.4509 -0.7923
   45MOL    H51 8939   0.077   6.768   2.456 -0.0558  1.8136  0.6984
   45MOL    C52 8940   8.299   6.789   2.385 -0.0746 -0.2540 -0.7128
   45MOL    C53 8941   8.289   6.672   2.288 -0.1562 -0.3024 -0.6194
   45MOL   Cl54 8942   8.393   6.542   2.346 -0.5914 -0.3200  0.4303
   45MOL    C55 8943   8.218   6.674   2.179  0.8377  0.5244 -0.3905
   45MOL    C56 8944   8.200   6.544   2.089  0.3218 -0.7425  0.4796
   45MOL    H57 8945   8.259   6.751   2.478 -2.0937 -1.3130 -1.9870
   45MOL    H58 8946   8.246   6.879   2.351  0.3649  0.8859  1.5032
   45MOL    H59 8947   8.155   6.756   2.148  1.5072  0.3852 -2.2161
   45MOL    H60 8948   8.203   6.586   1.988 -0.0328  0.0294  0.7884
   45MOL    H61 8949   8.287   6.479   2.097  0.0254 -1.2266 -0.1916
   45MOL    C62 8950   8.062   6.476   2.106  0.3239  0.5279  0.1187
   45MOL    C63 8951   8.041   6.351   2.021  0.5247  0.3461 -0.3821
   45MOL   Cl64 8952   8.015   6.212   2.117 -0.4232 -0.2379  0.0652
   45MOL    C65 8953   8.057   6.340   1.885 -0.6224  0.2784 -0.1226
   45MOL    C66 8954   8.040   6.204   1.800  0.1464 -0.3688 -0.4078
   45MOL    H67 8955   8.051   6.453   2.212 -1.3040  0.8174  0.0282
   45MOL    H68 8956   7.981   6.544   2.078 -1.9914 -1.3500  1.9796
   45MOL    H69 8957   8.085   6.432   1.835  2.0582  0.9808  2.5566
   45MOL    H70 8958   7.989   6.215   1.704 -0.7021 -1.9466 -0.1640
   45MOL    H71 8959   7.978   6.142   1.865  2.1506 -3.3919 -1.2551
   45MOL    C72 8960   8.171   6.139   1.758 -0.6519 -0.1407  0.0092
   45MOL    C73 8961   8.246   6.083   1.875 -0.7749  0.5497 -0.3131
   45MOL   Cl74 8962   8.179   5.931   1.937 -0.0982 -0.1101 -0.4346
   45MOL    C75 8963   8.352   6.146   1.929 -0.1766  0.0043 -0.0793
   45MOL    C76 8964   0.019   6.093   2.054  0.5326 -0.3931 -0.0476
   45MOL    H77 8965   8.228   6.216   1.707 -2.2507  1.4793  0.6083
   45MOL    H78 8966   8.161   6.058   1.685 -2.8824  1.2284 -1.2668
   45MOL    H79 8967   8.390   6.239   1.887  1.3572 -1.1664 -1.3415
   45MOL    H80 8968   0.121   6.094   2.017  0.0946  0.6450 -1.2544
   45MOL    H81 8969   8.411   5.991   2.079 -0.8403 -0.5799 -2.2418
   45MOL    C82 8970   0.007   6.170   2.183  0.4040 -0.4363 -0.1111
   45MOL    C83 8971   0.065   6.101   2.308 -0.0547 -0.8275  0.2355
   45MOL   Cl84 8972   0.235   6.093   2.294 -0.1264  0.2118  0.4074
   45MOL    C85 8973   8.417   6.045   2.409 -0.0286  0.6576 -0.0773
   45MOL    C86 8974   0.045   5.965   2.527 -0.2809 -0.1636 -0.3420
   45MOL    H87 8975   8.322   6.191   2.199 -0.2571 -2.4372 -1.6226
   45MOL    H88 8976   0.061   6.265   2.178 -1.6107  0.7324 -0.2458
   45MOL    H89 8977   8.309   6.053   2.407 -0.1119 -0.4787 -1.8271
   45MOL    H90 8978   8.391   5.885   2.528  0.4701 -0.8817  1.5354
   45MOL    H91 8979   0.146   5.929   2.505  0.2997  0.5793  1.0749
   45MOL    C92 8980   0.036   6.029   2.664  0.1055  0.1556  0.3766
   45MOL    C93 8981   0.104   5.941   2.769  0.5738  0.4003  0.0968
   45MOL   Cl94 8982   0.259   5.998   2.809 -0.2101 -0.1346  0.2830
   45MOL    C95 8983   0.066   5.823   2.815 -0.5561  0.9699 -0.3209
   45MOL    C96 8984   8.349   5.747   2.796 -0.5482  0.2664 -0.3872
   45MOL    H97 8985   8.352   6.048   2.685 -0.5742  1.0620 -3.5215
   45MOL    H98 8986   0.082   6.128   2.667 -0.3548  0.3280  2.2873
   45MOL    H99 8987   0.139   5.772   2.875 -0.4503  2.5293  0.9319
   45MOL   H100 8988   8.307   5.760   2.896  1.6146 -0.5334  0.6776
   45MOL   H101 8989   8.293   5.811   2.729 -2.5967  0.4905  1.4973
   45MOL   C102 8990   8.360   5.602   2.757  0.1248  0.0914  0.1471
   45MOL   C103 8991   8.223   5.532   2.765  0.2808 -0.5687 -1.0212
   45MOL  Cl104 8992   8.097   5.607   2.672 -0.3649  0.1815 -0.0946
   45MOL   C105 8993   8.206   5.422   2.837 -0.2012 -0.3475  0.2811
   45MOL   C106 8994   8.073   5.348   2.868  0.2540 -0.1748 -0.3898
   45MOL   H107 8995   8.403   5.588   2.658 -0.6892 -1.6019  0.0152
   45MOL   H108 8996   0.015   5.545   2.811  1.3894  2.0912  0.5484
   45MOL   H109 8997   8.284   5.368   2.890  1.5374  2.3456  0.5432
   45MOL   H110 8998   8.046   5.357   2.973  2.3256 -1.7824  0.3106
   45MOL   H111 8999   8.000   5.412   2.818 -1.7399 -2.8971 -1.0915
   45MOL   C112 9000   8.051   5.204   2.819  0.1660 -1.0853 -0.1676
   45MOL   C113 9001   7.927   5.134   2.881  0.9126 -0.3824 -0.2437
   45MOL  Cl114 9002   7.780   5.225   2.855  0.0028  0.4897  0.2466
   45MOL   C115 9003   7.914   5.011   2.936  0.0537 -0.0585  0.2886
   45MOL   C116 9004   8.035   4.921   2.966  0.2868 -0.2756  0.0149
   45MOL   H117 9005   8.040   5.204   2.711 -0.6070  0.9618 -0.0979
   45MOL   H118 9006   8.136   5.137   2.834 -0.5148 -1.7631  0.7147
   45MOL   H119 9007   7.817   4.974   2.968 -0.6527  2.3999  1.1076
   45MOL   H120 9008   8.112   4.935   2.890  0.7714  0.0048  0.5517
   45MOL   H121 9009   8.006   4.817   2.953 -2.0368  0.1875  1.2122
   45MOL   C122 9010   8.108   4.956   3.095 -0.4605 -0.1534  0.7951
   45MOL   C123 9011   8.224   4.862   3.121 -0.0988  0.2187  0.2332
   45MOL  Cl124 9012   8.191   4.705   3.190 -0.0888 -0.2776  0.2106
   45MOL   C125 9013   8.353   4.893   3.093 -0.4941  0.3933 -1.1444
   45MOL   C126 9014   8.407   5.013   3.015 -0.4241 -0.6539 -0.2098
   45MOL   H127 9015   8.140   5.059   3.091  2.3193 -0.9857  0.8964
   45MOL   H128 9016   8.040   4.940   3.180  0.2021 -2.6034  0.9024
   45MOL   H129 9017   0.014   4.831   3.127 -0.0801 -0.0354 -2.8692
   45MOL   H130 9018   8.317   5.042   2.961  0.5385  1.0784 -0.9349
   45MOL   H131 9019   0.020   5.100   3.071 -4.1419 -0.1206  1.3094
   45MOL   C132 9020   0.097   4.950   2.921 -0.0881 -0.3463  0.1289
   45MOL   C133 9021   0.172   5.053   2.832 -0.0310  0.3009 -0.5112
   45MOL  Cl134 9022   0.078   5.197   2.805  0.3905  0.4471 -0.0062
   45MOL   C135 9023   0.278   5.033   2.757 -0.3959  0.3857  0.5442
   45MOL   C136 9024   0.368   4.912   2.763 -0.6714  0.7933  0.1022
   45MOL   H137 9025   0.169   4.896   2.982 -1.0638  0.3560  1.9331
   45MOL   H138 9026   0.062   4.875   2.850  2.1938  1.4649 -3.0143
   45MOL   H139 9027   0.301   5.108   2.683  1.9170 -0.5425  0.2680
   45MOL   H140 9028   0.344   4.861   2.857  2.3571 -0.4863  0.2165
   45MOL   H141 9029   0.339   4.842   2.684 -0.9023 -1.8182  2.4201
   45MOL   C142 9030   0.517   4.960   2.758 -0.2119  0.2407  0.3273
   45MOL   C143 9031   0.623   4.851   2.749  0.5106 -0.3062 -0.1915
   45MOL  Cl144 9032   0.744   4.892   2.631 -0.1315  0.1238  0.0817
   45MOL   C145 9033   0.617   4.729   2.818  0.5027 -0.4555 -0.6349
   45MOL   C146 9034   0.723   4.620   2.796 -0.4880 -0.1081 -0.2780
   45MOL   H147 9035   0.532   5.022   2.846 -0.5890 -1.9276  1.9645
   45MOL   H148 9036   0.531   5.024   2.671 -0.1719  0.9987  0.8883
   45MOL   H149 9037   0.537   4.703   2.885  0.4059  2.1939  0.3400
   45MOL   H150 9038   0.665   4.531   2.776 -1.3471  0.7601 -1.7067
   45MOL   H151 9039   0.784   4.633   2.707  1.2528  0.4871  0.9528
   45MOL   C152 9040   0.810   4.610   2.918  0.2368  0.6030  0.8079
   45MOL   C153 9041   0.934   4.523   2.894 -0.5507  0.0412  0.5107
   45MOL  Cl154 9042   0.943   4.386   2.995 -0.0431 -0.1740 -0.3424
   45MOL   C155 9043   1.033   4.546   2.804  0.0111 -0.5878 -0.4983
   45MOL   C156 9044   1.155   4.459   2.792 -0.0225  0.6278  0.7572
   45MOL   H157 9045   0.833   4.708   2.960  0.1391  1.1571 -0.4082
   45MOL   H158 9046   0.748   4.561   2.994  1.4439  0.7241  1.8752
   45MOL   H159 9047   1.038   4.640   2.750 -2.7422  0.7999  1.5546
   45MOL   H160 9048   1.171   4.446   2.685  0.9694  0.0093  0.9754
   45MOL   H161 9049   1.133   4.366   2.844 -0.0152  0.7035  0.8976
   45MOL   C162 9050   1.273   4.538   2.853  0.4640  0.6031 -0.4943
   45MOL   C163 9051   1.389   4.440   2.865  0.3753 -0.4351 -0.1470
   45MOL  Cl164 9052   1.437   4.429   3.033 -0.2987  0.0579 -0.3556
   45MOL   C165 9053   1.453   4.391   2.758  0.8559  0.2981 -0.3217
   45MOL   C166 9054   1.573   4.303   2.755  0.0543  0.3585  0.1228
   45MOL   H167 9055   1.302   4.627   2.797  0.2474  1.0523  0.1038
   45MOL   H168 9056   1.247   4.571   2.953  1.4967  1.2272 -0.4221
   45MOL   H169 9057   1.410   4.417   2.662  0.9215 -0.9327 -0.6934
   45MOL   H170 9058   1.619   4.296   2.854  0.1292  0.0081  0.0648
   45MOL   H171 9059   1.538   4.204   2.723 -2.0484  1.2724 -0.4872
   45MOL   C172 9060   1.674   4.346   2.644  0.3149  0.5686  0.6018
   45MOL   C173 9061   1.820   4.311   2.654  0.6577 -0.6150  0.0339
   45MOL  Cl174 9062   1.851   4.143   2.673  0.4253 -0.0260  0.0347
   45MOL   C175 9063   1.914   4.406   2.682  0.4344 -0.0676 -0.5184
   45MOL   C176 9064   2.058   4.400   2.721 -0.3454  0.7501 -0.3805
   45MOL   H177 9065   1.677   4.454   2.656  1.5223  0.7592 -1.3515
   45MOL   H178 9066   1.641   4.327   2.542  1.1022  0.7000  0.3221
   45MOL   H179 9067   1.888   4.508   2.661  0.6947 -0.0707 -0.8759
   45MOL   H180 9068   2.122   4.473   2.670 -0.6502  0.6710 -0.8834
   45MOL   H181 9069   2.111   4.309   2.692  0.6215  2.0572 -2.8853
   45MOL   C182 9070   2.080   4.420   2.872 -0.8376 -1.0863  0.2328
   45MOL   C183 9071   2.224   4.430   2.921 -0.8331 -0.2780 -0.0236
   45MOL  Cl184 9072   2.307   4.276   2.932 -0.0373  0.0210 -0.2867
   45MOL   C185 9073   2.282   4.546   2.947 -0.8600 -0.2454 -0.0457
   45MOL   C186 9074   2.430   4.556   3.000  0.2407 -0.1632  0.4329
   45MOL   H187 9075   2.024   4.508   2.904 -1.4332 -0.4571 -2.4891
   45MOL   H188 9076   2.040   4.331   2.923  0.6290 -1.6338  0.4484
   45MOL   H189 9077   2.238   4.644   2.938 -0.8812 -0.3758 -1.5525
   45MOL   H190 9078   2.413   4.584   3.104  1.5938 -2.1442  1.2044
   45MOL   H191 9079   2.475   4.457   3.002 -0.6638 -0.5783  0.3856
   45MOL   C192 9080   2.512   4.664   2.929  0.3878  0.1404 -0.4219
   45MOL   C193 9081   2.655   4.666   2.980 -0.4575  0.6558 -0.2564
   45MOL  Cl194 9082   2.676   4.758   3.123 -0.1481 -0.0366 -0.5721
   45MOL   C195 9083   2.767   4.613   2.924 -0.3026  0.6486  0.5307
   45MOL   C196 9084   2.762   4.526   2.796  0.6509 -0.2464  0.3875
   45MOL   H197 9085   2.463   4.760   2.945 -1.4730 -0.4130 -2.5000
   45MOL   H198 9086   2.503   4.649   2.821 -2.3837  0.0698 -0.2379
   45MOL   H199 9087   2.865   4.620   2.968  1.1632 -2.4837 -1.9524
   45MOL   H200 9088   2.835   4.555   2.721 -0.5919  0.7190 -0.4731
   45MOL   H201 9089   2.671   4.539   2.737  0.5391 -0.8503  0.4207
   45MOL   H202 9090   2.768   4.419   2.815 -0.7057 -0.6332 -1.2030
   46MOL     C1 9091   5.948   0.294   7.847 -0.1038 -0.2364  0.1224
   46MOL     C2 9092   6.038   0.232   7.953  0.1042  0.1016 -0.0926
   46MOL    Cl3 9093   6.113   0.077   7.914  0.3827  0.3054 -0.0168
   46MOL     C4 9094   6.078   0.297   8.063  0.2076  0.2708 -0.0969
   46MOL     C5 9095   6.046   0.439   8.107 -0.5507 -0.2789 -0.2963
   46MOL     H6 9096   5.853   0.327   7.888  0.8359  1.0018  1.3820
   46MOL     H7 9097   5.915   0.217   7.777 -0.6363 -0.7335  0.9164
   46MOL     H8 9098   6.141   0.240   8.128 -0.8436 -1.5082 -0.5999
   46MOL     H9 9099   6.135   0.502   8.096 -2.0542  2.2195  1.3822
   46MOL    H10 9100   5.973   0.477   8.035  2.5969  1.3841 -2.7568
   46MOL    H11 9101   5.995   0.379   7.797 -2.1183 -0.3352 -2.0201
   46MOL    C12 9102   5.986   0.441   8.251 -0.6552 -0.7531  0.5429
   46MOL    C13 9103   5.936   0.574   8.294 -0.3424 -0.6569  0.0592
   46MOL   Cl14 9104   6.033   0.650   8.418 -0.1540  0.2823 -0.5085
   46MOL    C15 9105   5.818   0.632   8.258 -0.0456  0.7576 -0.6160
   46MOL    C16 9106   5.709   0.578   8.167 -0.1723  0.1479 -0.1082
   46MOL    H17 9107   5.902   0.373   8.244 -0.0430 -1.3891 -0.9163
   46MOL    H18 9108   6.057   0.403   8.324 -1.3578  0.0061  1.6414
   46MOL    H19 9109   5.786   0.721   8.311  0.7530  0.1205  0.9793
   46MOL    H20 9110   5.741   0.487   8.116 -2.2203 -0.0949 -1.0278
   46MOL    H21 9111   5.625   0.552   8.232 -0.8097 -0.4034 -1.1404
   46MOL    C22 9112   5.657   0.679   8.065 -0.3104  0.4926  0.9213
   46MOL    C23 9113   5.565   0.616   7.954 -0.5601  0.7600  0.0172
   46MOL   Cl24 9114   5.663   0.534   7.839 -0.1873 -0.6129 -0.4051
   46MOL    C25 9115   5.433   0.630   7.936  0.1362  0.4987 -0.2183
   46MOL    C26 9116   5.348   0.583   7.820 -0.3486  0.4818 -0.0963
   46MOL    H27 9117   5.604   0.760   8.114 -1.5286 -0.5969  1.4361
   46MOL    H28 9118   5.733   0.731   8.008 -1.1402  2.2768  1.4174
   46MOL    H29 9119   5.372   0.678   8.010 -1.1468 -1.2656 -0.0950
   46MOL    H30 9120   5.307   0.671   7.770 -0.7639  0.3381 -0.0132
   46MOL    H31 9121   5.401   0.518   7.752 -2.6501 -1.1037 -0.4515
   46MOL    C32 9122   5.227   0.489   7.871 -0.2043  0.2076 -0.6482
   46MOL    C33 9123   5.136   0.462   7.765 -0.1854  0.1343 -0.2652
   46MOL   Cl34 9124   5.127   0.303   7.705 -0.0036  0.2924 -0.0741
   46MOL    C35 9125   5.052   0.549   7.711 -0.0634 -0.1886  0.5182
   46MOL    C36 9126   4.957   0.539   7.594  0.4071  0.7177  0.3075
   46MOL    H37 9127   5.265   0.400   7.921 -0.3550  0.2216 -0.5069
   46MOL    H38 9128   5.177   0.543   7.952  0.4807  0.3187 -0.2890
   46MOL    H39 9129   5.054   0.648   7.754 -0.1658  0.1114 -0.1619
   46MOL    H40 9130   4.983   0.614   7.518 -0.1918  0.3169 -0.2966
   46MOL    H41 9131   4.964   0.440   7.548 -0.6416 -0.3280  2.3527
   46MOL    C42 9132   4.814   0.562   7.636 -0.3858  0.0301 -0.6600
   46MOL    C43 9133   4.715   0.584   7.521  0.1381  0.3872  0.4696
   46MOL   Cl44 9134   4.685   0.751   7.492  0.2699 -0.2398 -0.0811
   46MOL    C45 9135   4.662   0.490   7.441 -0.3555  0.3301 -0.6473
   46MOL    C46 9136   4.680   0.337   7.458 -0.3027  0.1809  0.1392
   46MOL    H47 9137   4.768   0.475   7.681  2.1368 -0.3310  1.3120
   46MOL    H48 9138   4.802   0.647   7.703 -3.4933 -1.9954  1.5012
   46MOL    H49 9139   4.596   0.528   7.364 -1.1591  0.4316  0.0932
   46MOL    H50 9140   4.709   0.307   7.559  0.0365  1.4628  0.4337
   46MOL    H51 9141   4.574   0.313   7.451 -0.5405  1.1871  0.2382
   46MOL    C52 9142   4.766   0.268   7.350 -1.1477  0.3430  0.4330
   46MOL    C53 9143   4.751   0.118   7.369 -0.1037  0.0263 -0.0440
   46MOL   Cl54 9144   4.841   0.053   7.490  0.0805  0.1531  0.2238
   46MOL    C55 9145   4.661   0.043   7.306 -0.2245 -0.2890 -0.1895
   46MOL    C56 9146   4.613   8.326   7.345 -0.1597  0.2211  0.2159
   46MOL    H57 9147   4.735   0.292   7.249  0.5184 -1.8938 -0.6664
   46MOL    H58 9148   4.868   0.302   7.368 -1.0713  0.0699  0.5139
   46MOL    H59 9149   4.598   0.076   7.225 -0.8162  1.4189  0.9284
   46MOL    H60 9150   4.687   8.249   7.322 -3.5952 -2.9963 -0.6152
   46MOL    H61 9151   4.606   8.322   7.454 -1.7254  0.6420  0.1370
   46MOL    C62 9152   4.473   8.289   7.288  0.0094  0.3702  0.6973
   46MOL    C63 9153   4.434   8.141   7.331 -0.5490  0.1363  0.0315
   46MOL   Cl64 9154   4.371   8.058   7.195 -0.0654  0.2027 -0.1317
   46MOL    C65 9155   4.454   8.083   7.450 -0.1819  0.2245  0.1800
   46MOL    C66 9156   4.411   7.940   7.477 -0.8199  0.7168  0.8052
   46MOL    H67 9157   4.391   8.345   7.332 -1.4557 -0.1129 -1.3198
   46MOL    H68 9158   4.472   8.304   7.180 -3.3438 -1.3694  0.4180
   46MOL    H69 9159   4.497   8.136   7.533 -2.0392  1.4027  0.4305
   46MOL    H70 9160   4.332   7.918   7.405  0.0762  0.0781 -0.0007
   46MOL    H71 9161   4.350   7.929   7.567 -2.0622  0.9017 -0.0068
   46MOL    C72 9162   4.528   7.838   7.486  0.0393 -0.1316 -0.6418
   46MOL    C73 9163   4.474   7.696   7.481  0.2691  0.2539 -0.0506
   46MOL   Cl74 9164   4.414   7.643   7.636 -0.3990 -0.0577 -0.4339
   46MOL    C75 9165   4.488   7.614   7.381 -1.1426 -0.0796 -0.1739
   46MOL    C76 9166   4.443   7.472   7.374 -1.1022 -0.2787  0.2324
   46MOL    H77 9167   4.593   7.849   7.573 -0.0439 -0.5390 -0.5305
   46MOL    H78 9168   4.600   7.843   7.404  0.7912 -1.0052 -0.0440
   46MOL    H79 9169   4.536   7.648   7.290 -0.6448 -0.1267  0.0699
   46MOL    H80 9170   4.372   7.445   7.452 -0.0519 -0.7690  1.0414
   46MOL    H81 9171   4.533   7.410   7.372 -0.8544  0.0812  0.1933
   46MOL    C82 9172   4.366   7.446   7.241 -0.5693  0.3044  0.1428
   46MOL    C83 9173   4.341   7.297   7.239  0.1235 -0.6037  0.0987
   46MOL   Cl84 9174   4.482   7.223   7.167  0.0412 -0.3942  0.0600
   46MOL    C85 9175   4.226   7.246   7.283 -0.0332  0.7112 -0.3121
   46MOL    C86 9176   4.188   7.098   7.279  0.1124 -1.1823 -0.2327
   46MOL    H87 9177   4.425   7.467   7.152  1.3767 -0.1035  1.3093
   46MOL    H88 9178   4.273   7.502   7.241 -0.2984  0.7676  0.5536
   46MOL    H89 9179   4.151   7.314   7.321 -0.7471  0.2362 -0.8396
   46MOL    H90 9180   4.087   7.079   7.243  0.1458 -2.1019  0.1376
   46MOL    H91 9181   4.252   7.038   7.214  2.0855  0.3379  0.2419
   46MOL    C92 9182   4.205   7.045   7.423  0.2472  0.1293 -0.7137
   46MOL    C93 9183   4.164   6.905   7.431  0.1768 -0.0942 -0.4738
   46MOL   Cl94 9184   4.271   6.804   7.336  0.0851  0.1051 -0.0152
   46MOL    C95 9185   4.069   6.839   7.505  0.7588 -0.9391  0.3856
   46MOL    C96 9186   3.978   6.905   7.612 -0.3833 -0.1529 -0.0756
   46MOL    H97 9187   4.145   7.101   7.495 -0.2824 -0.3943 -0.7429
   46MOL    H98 9188   4.310   7.052   7.453  0.3110 -0.8591 -0.7032
   46MOL    H99 9189   4.038   6.738   7.486 -1.3612  0.2049 -2.4480
   46MOL   H100 9190   3.960   6.844   7.701  2.0625  1.1513  1.3903
   46MOL   H101 9191   4.030   6.998   7.636  0.1306 -0.4523 -0.0267
   46MOL   C102 9192   3.843   6.927   7.547 -0.1474  0.0921 -0.1055
   46MOL   C103 9193   3.744   7.017   7.623 -0.4466 -0.0418 -0.0888
   46MOL  Cl104 9194   3.587   6.983   7.571  0.4902  0.3533 -0.0966
   46MOL   C105 9195   3.770   7.106   7.714 -0.6099 -1.0070  0.0889
   46MOL   C106 9196   3.680   7.197   7.789  0.2831  0.3719  0.0218
   46MOL   H107 9197   3.862   6.979   7.453 -1.4559 -1.0723 -1.0386
   46MOL   H108 9198   3.795   6.831   7.528  0.4156 -0.1540 -0.2742
   46MOL   H109 9199   3.873   7.121   7.745 -1.2089  0.7391  1.3124
   46MOL   H110 9200   3.577   7.164   7.771 -0.2361  2.3811 -0.7686
   46MOL   H111 9201   3.709   7.186   7.894 -2.3434  0.4761  0.8099
   46MOL   C112 9202   3.695   7.338   7.736  0.4398 -0.0169  0.7431
   46MOL   C113 9203   3.609   7.435   7.817  0.8516  0.2867 -0.0473
   46MOL  Cl114 9204   3.455   7.470   7.750  0.0397 -0.1396  0.1613
   46MOL   C115 9205   3.639   7.494   7.935  0.2655  0.2396  0.2355
   46MOL   C116 9206   3.768   7.474   8.014 -0.2013 -0.4292  0.5406
   46MOL   H117 9207   3.794   7.382   7.743  0.7033 -0.4597 -0.2025
   46MOL   H118 9208   3.659   7.337   7.633  0.6176 -0.5632  0.6848
   46MOL   H119 9209   3.580   7.572   7.979 -2.6615 -1.6057 -0.2708
   46MOL   H120 9210   3.820   7.383   7.984 -0.7642 -0.6001  0.0544
   46MOL   H121 9211   3.739   7.476   8.119  0.0576 -1.0838  0.6265
   46MOL   C122 9212   3.867   7.588   8.003 -0.3901 -0.0427 -0.4721
   46MOL   C123 9213   3.982   7.565   8.093  0.6312 -0.4066  0.0661
   46MOL  Cl124 9214   3.944   7.599   8.258 -0.2324 -0.0304  0.0390
   46MOL   C125 9215   4.102   7.515   8.064  0.4638 -0.0006 -0.6063
   46MOL   C126 9216   4.170   7.486   7.929  1.3719  0.0913  0.1288
   46MOL   H127 9217   3.908   7.592   7.903  0.3003  2.5267 -0.0985
   46MOL   H128 9218   3.827   7.687   8.026  1.7725  0.7088  0.1310
   46MOL   H129 9219   4.172   7.499   8.145 -0.1129  3.1865  0.6129
   46MOL   H130 9220   4.149   7.572   7.864  0.9005  0.6816  1.0629
   46MOL   H131 9221   4.279   7.490   7.930  1.4917 -1.7446 -1.7912
   46MOL   C132 9222   4.122   7.353   7.873  0.0235 -0.0803  0.2893
   46MOL   C133 9223   4.187   7.322   7.738 -0.3548  0.2135 -1.5550
   46MOL  Cl134 9224   4.077   7.340   7.608 -0.1840 -0.1197 -0.0279
   46MOL   C135 9225   4.310   7.263   7.721  0.2180  0.2995  0.1834
   46MOL   C136 9226   4.406   7.220   7.837  0.1593 -0.2333  0.0749
   46MOL   H137 9227   4.137   7.277   7.950  2.7157 -0.5515 -0.6557
   46MOL   H138 9228   4.013   7.354   7.861 -0.0967 -3.2657  0.6674
   46MOL   H139 9229   4.342   7.239   7.620  1.6878  0.9489  0.4781
   46MOL   H140 9230   4.503   7.268   7.828 -1.0937  2.2391 -0.8058
   46MOL   H141 9231   4.373   7.255   7.935  2.0309  2.0838 -0.1038
   46MOL   C142 9232   4.408   7.071   7.849  0.0796 -0.5623  0.0406
   46MOL   C143 9233   4.461   6.997   7.729  0.4399  0.2168  0.3818
   46MOL  Cl144 9234   4.352   6.864   7.684 -0.0851 -0.0280  0.0159
   46MOL   C145 9235   4.563   7.029   7.652 -0.2037  0.4040 -0.1180
   46MOL   C146 9236   4.620   6.948   7.542  0.0336 -0.1511  0.2433
   46MOL   H147 9237   4.308   7.039   7.878 -0.4165  1.1930  0.3244
   46MOL   H148 9238   4.468   7.056   7.938 -2.4416 -2.8897  1.4316
   46MOL   H149 9239   4.621   7.114   7.685  0.1386 -0.4661  1.5541
   46MOL   H150 9240   4.725   6.941   7.573 -0.4197  0.4218  1.9655
   46MOL   H151 9241   4.586   6.845   7.535  3.2413 -1.1522 -1.4574
   46MOL   C152 9242   4.602   7.020   7.410 -0.1304  0.7663  0.1066
   46MOL   C153 9243   4.723   6.997   7.317 -0.4140  0.0791  0.1151
   46MOL  Cl154 9244   4.841   7.110   7.345 -0.0688  0.1966 -0.1259
   46MOL   C155 9245   4.731   6.901   7.225 -0.0429 -0.6469 -0.4285
   46MOL   C156 9246   4.852   6.860   7.140  0.3157 -0.1991  0.5622
   46MOL   H157 9247   4.515   6.979   7.359  0.9987 -0.6552 -0.7419
   46MOL   H158 9248   4.590   7.128   7.412 -1.6440  0.7027 -2.6036
   46MOL   H159 9249   4.639   6.845   7.216  0.3243 -1.1843 -0.8634
   46MOL   H160 9250   4.939   6.906   7.188  1.6763 -1.3653 -0.7048
   46MOL   H161 9251   4.832   6.891   7.038 -2.2770 -0.3973  0.9847
   46MOL   C162 9252   4.877   6.708   7.154 -0.1516  0.1114  0.5198
   46MOL   C163 9253   4.942   6.661   7.285  0.5094 -0.5558 -0.0886
   46MOL  Cl164 9254   5.084   6.564   7.256 -0.1515  0.3064 -0.2641
   46MOL   C165 9255   4.897   6.685   7.410 -0.4071  0.0513 -0.4345
   46MOL   C166 9256   4.959   6.637   7.542  0.2059 -0.5667 -0.1829
   46MOL   H167 9257   4.783   6.652   7.146  0.5536 -0.9196 -0.7872
   46MOL   H168 9258   4.933   6.676   7.066  1.3688  0.1982  1.4429
   46MOL   H169 9259   4.806   6.742   7.425 -0.1433  0.3689 -0.0339
   46MOL   H170 9260   5.047   6.575   7.524 -0.4527 -1.3210 -0.7957
   46MOL   H171 9261   5.001   6.724   7.593  0.4495  0.2373 -1.7289
   46MOL   C172 9262   4.861   6.577   7.637 -0.3024 -0.9260 -0.3985
   46MOL   C173 9263   4.925   6.549   7.767  0.2758  0.0792 -0.2258
   46MOL  Cl174 9264   4.925   6.376   7.807 -0.1753  0.0828  0.1438
   46MOL   C175 9265   4.981   6.639   7.844 -0.0622  0.0009 -0.7435
   46MOL   C176 9266   5.034   6.608   7.978  0.4482 -0.8398  0.8987
   46MOL   H177 9267   4.804   6.489   7.606  1.9881 -2.1719 -1.2010
   46MOL   H178 9268   4.786   6.656   7.646  0.3556 -0.1173 -1.8150
   46MOL   H179 9269   4.999   6.740   7.809 -0.2430  0.3277  0.0980
   46MOL   H180 9270   5.023   6.503   8.004 -3.1869 -0.5250  0.8914
   46MOL   H181 9271   4.969   6.667   8.043  0.5133  2.0083 -1.5236
   46MOL   C182 9272   5.180   6.651   7.995 -0.8651 -0.6003 -0.1740
   46MOL   C183 9273   5.229   6.602   8.127 -1.2042  0.2010  0.1473
   46MOL  Cl184 9274   5.280   6.434   8.125  0.0581  0.0274  0.1590
   46MOL   C185 9275   5.252   6.676   8.235  0.2438 -0.5333 -0.4211
   46MOL   C186 9276   5.304   6.631   8.366 -0.0899 -0.3603  0.4633
   46MOL   H187 9277   5.234   6.605   7.911  2.4582  2.0420  0.3739
   46MOL   H188 9278   5.204   6.757   7.987 -0.7902 -0.6743 -1.0278
   46MOL   H189 9279   5.229   6.781   8.223 -2.3031 -1.2496 -2.4780
   46MOL   H190 9280   5.326   6.525   8.369  0.7934 -0.3115 -2.9360
   46MOL   H191 9281   5.400   6.683   8.367 -0.4796  0.3893 -0.4634
   46MOL   C192 9282   5.224   6.678   0.068 -0.3965 -0.5963 -0.2801
   46MOL   C193 9283   5.279   6.607   0.191  0.3966 -0.0373 -0.4501
   46MOL  Cl194 9284   5.206   6.455   0.220  0.0181  0.6130  0.0757
   46MOL   C195 9285   5.354   6.670   0.280 -0.3348 -0.4834 -0.1696
   46MOL   C196 9286   5.415   6.805   0.263  0.1516  0.3559  0.2345
   46MOL   H197 9287   5.116   6.664   0.055 -0.6297  0.1130  0.8243
   46MOL   H198 9288   5.238   6.784   0.084  2.1884 -1.0256  0.5928
   46MOL   H199 9289   5.377   6.626   0.376  0.7648 -0.0204 -0.2036
   46MOL   H200 9290   5.370   6.882   0.325 -0.4995  0.3604 -0.2388
   46MOL   H201 9291   5.416   6.850   0.164 -1.0242  1.7393  0.8252
   46MOL   H202 9292   5.521   6.798   0.289  0.6244  2.2046 -1.1096
   47MOL     C1 9293   4.643   0.444   8.327  0.1284 -0.5420 -0.5855
   47MOL     C2 9294   4.603   0.466   0.055 -0.3065 -0.1179  0.2075
   47MOL    Cl3 9295   4.571   0.316   0.130  0.0577 -0.2565 -0.3168
   47MOL     C4 9296   4.608   0.583   0.122  0.2681 -0.3604 -0.0449
   47MOL     C5 9297   4.645   0.722   0.084  0.2310 -0.0459 -0.7939
   47MOL     H6 9298   4.600   0.358   8.276 -0.7462 -1.4735  1.6694
   47MOL     H7 9299   4.752   0.438   8.324  0.1846  0.3524 -0.4268
   47MOL     H8 9300   4.582   0.567   0.226  3.2921 -2.2540  0.4841
   47MOL     H9 9301   4.747   0.748   0.109 -1.0889  3.5655  1.1265
   47MOL    H10 9302   4.655   0.711   8.396 -2.2080 -1.0541 -0.9470
   47MOL    H11 9303   4.610   0.528   8.266  0.3904  0.6469  0.8518
   47MOL    C12 9304   4.542   0.824   0.133  0.2151 -0.1125  0.4661
   47MOL    C13 9305   4.553   0.961   0.070  0.0899  0.2525 -0.6859
   47MOL   Cl14 9306   4.639   1.058   0.180  0.0972 -0.1531  0.4146
   47MOL    C15 9307   4.510   1.002   8.371  1.2995  0.6944 -0.7871
   47MOL    C16 9308   4.434   0.918   8.276 -0.0470 -0.4228 -0.0445
   47MOL    H17 9309   4.435   0.805   0.117 -0.0119  1.0869  0.5646
   47MOL    H18 9310   4.550   0.833   0.241  2.0452 -1.3423  0.4423
   47MOL    H19 9311   4.529   1.103   8.337  2.7430  0.6313 -0.1777
   47MOL    H20 9312   4.439   0.814   8.307  0.9562 -0.8394 -1.5572
   47MOL    H21 9313   4.331   0.953   8.279  0.3773  0.6898  2.5305
   47MOL    C22 9314   4.495   0.918   8.134  0.0035 -0.4326  0.5064
   47MOL    C23 9315   4.446   0.810   8.032 -0.4849  0.4395 -0.2696
   47MOL   Cl24 9316   4.540   0.808   7.887 -0.4291 -0.1279  0.0256
   47MOL    C25 9317   4.336   0.731   8.047 -0.6212 -0.2496 -0.2223
   47MOL    C26 9318   4.279   0.639   7.934 -0.4332 -0.4610 -0.0494
   47MOL    H27 9319   4.473   1.015   8.089 -0.8461 -0.5907  0.5645
   47MOL    H28 9320   4.603   0.904   8.139 -0.0323 -0.6128  0.8315
   47MOL    H29 9321   4.283   0.734   8.141 -0.0841 -0.0496  0.0756
   47MOL    H30 9322   4.172   0.655   7.928 -0.2994 -0.2668 -2.3645
   47MOL    H31 9323   4.309   0.677   7.836  3.2278 -1.4593  0.6060
   47MOL    C32 9324   4.315   0.491   7.958  1.4913  0.2188 -0.1549
   47MOL    C33 9325   4.449   0.437   7.911 -0.5764 -0.8373  0.2333
   47MOL   Cl34 9326   4.506   0.490   7.757  0.0970  0.7301  0.0443
   47MOL    C35 9327   4.532   0.370   7.993 -0.1534 -0.0184  0.1497
   47MOL    C36 9328   4.674   0.326   7.967  0.5277 -0.1102 -0.5953
   47MOL    H37 9329   4.297   0.472   8.064 -0.6954 -1.7231 -0.8139
   47MOL    H38 9330   4.244   0.448   7.887 -2.3385  1.8297  2.5341
   47MOL    H39 9331   4.487   0.337   8.086 -1.4293  0.5513 -0.2422
   47MOL    H40 9332   4.692   0.336   7.860 -1.4219  0.3279 -0.8917
   47MOL    H41 9333   4.737   0.393   8.025 -3.0802  0.8715  2.4003
   47MOL    C42 9334   4.712   0.186   8.022 -0.7380  0.0425 -0.7267
   47MOL    C43 9335   4.850   0.151   7.979 -0.2907  0.7907  0.6434
   47MOL   Cl44 9336   4.838   0.079   7.827  0.2248 -0.0634 -0.0666
   47MOL    C45 9337   4.966   0.193   8.032  0.6686  0.2098 -0.7175
   47MOL    C46 9338   4.981   0.277   8.158  1.0608  0.1611 -0.5876
   47MOL    H47 9339   4.722   0.181   8.130  1.9791 -2.4133 -1.0437
   47MOL    H48 9340   4.646   0.103   7.997 -0.0580 -0.8823  0.5592
   47MOL    H49 9341   5.053   0.165   7.974 -0.1467  0.2417 -1.9658
   47MOL    H50 9342   4.948   0.380   8.144 -0.2659 -0.0303  0.9262
   47MOL    H51 9343   4.909   0.243   8.233  0.0553  0.8214 -1.2446
   47MOL    C52 9344   5.118   0.270   8.221  0.1432  0.7399 -0.0662
   47MOL    C53 9345   5.138   0.364   8.346 -0.7051 -0.1370 -0.1540
   47MOL   Cl54 9346   5.299   0.422   8.374  0.1631  0.0944 -0.1682
   47MOL    C55 9347   5.031   0.406   0.006 -0.0139 -0.1609  0.7864
   47MOL    C56 9348   5.037   0.504   0.113 -0.2019  0.2611  0.0991
   47MOL    H57 9349   5.133   0.166   8.251  0.2061 -0.4740 -3.9948
   47MOL    H58 9350   5.187   0.302   8.144  0.7748 -1.0753 -0.2751
   47MOL    H59 9351   4.931   0.368   8.412  1.2126 -2.8499 -1.1875
   47MOL    H60 9352   5.142   0.524   0.134 -0.7098  0.7414  2.2190
   47MOL    H61 9353   4.977   0.586   0.072  1.9881  0.8894 -2.0134
   47MOL    C62 9354   4.964   0.439   0.237 -0.1746  0.7441 -0.3560
   47MOL    C63 9355   4.967   0.535   0.359  0.3911 -0.0742 -0.0250
   47MOL   Cl64 9356   5.129   0.546   0.421  0.0719  0.0759  0.0157
   47MOL    C65 9357   4.856   0.605   0.410 -0.7698 -0.2651  0.0401
   47MOL    C66 9358   4.872   0.691   0.532 -0.1983 -0.3436  0.3060
   47MOL    H67 9359   4.863   0.402   0.217 -0.7784  2.4564 -0.5746
   47MOL    H68 9360   5.013   0.347   0.268  0.3218  1.6777  1.6866
   47MOL    H69 9361   4.761   0.597   0.359  0.8849 -1.7636 -2.9495
   47MOL    H70 9362   4.961   0.750   0.509  0.3452 -0.8582  1.0492
   47MOL    H71 9363   4.912   0.641   0.621 -0.4886 -1.2278 -0.0587
   47MOL    C72 9364   4.746   0.775   0.554 -0.4234  0.0223 -0.1726
   47MOL    C73 9365   4.772   0.892   0.646  0.0353  0.2336  0.3849
   47MOL   Cl74 9366   4.806   0.832   0.806  0.7164  0.0316  0.0719
   47MOL    C75 9367   4.759   1.018   0.609  0.4563  0.0382 -0.9258
   47MOL    C76 9368   4.801   1.142   0.700 -0.4818  0.5577 -0.6246
   47MOL    H77 9369   4.667   0.709   0.590  0.2889  0.1823  1.7611
   47MOL    H78 9370   4.709   0.810   0.458 -2.8558  0.3274  0.8340
   47MOL    H79 9371   4.721   1.042   0.511 -0.2772  0.3276 -0.5795
   47MOL    H80 9372   4.830   1.104   0.798  1.5520  0.8786 -1.0998
   47MOL    H81 9373   4.707   1.192   0.723  1.0471  2.0043  2.7285
   47MOL    C82 9374   4.907   1.226   0.620  0.1303  0.1865 -0.2421
   47MOL    C83 9375   4.920   1.369   0.666  0.3258 -0.0552  0.2677
   47MOL   Cl84 9376   5.080   1.397   0.740  0.0985  0.5331  0.3515
   47MOL    C85 9377   4.822   1.458   0.648  0.6198 -0.1447 -0.0034
   47MOL    C86 9378   4.827   1.602   0.673 -0.0087 -0.2652  0.9664
   47MOL    H87 9379   4.891   1.237   0.513 -1.3556 -1.3239 -0.2093
   47MOL    H88 9380   5.002   1.174   0.628  0.0016 -0.0270 -0.0865
   47MOL    H89 9381   4.730   1.423   0.605  0.7746 -1.5048  0.7618
   47MOL    H90 9382   4.904   1.625   0.747  0.0753 -0.6696  1.0066
   47MOL    H91 9383   4.871   1.637   0.580  0.1035 -1.0943  0.6987
   47MOL    C92 9384   4.693   1.665   0.699  0.7999  0.0109 -0.2691
   47MOL    C93 9385   4.684   1.818   0.701 -0.1023  0.2132 -0.6840
   47MOL   Cl94 9386   4.771   1.868   0.842  0.2484  0.1130  0.1128
   47MOL    C95 9387   4.624   1.905   0.612 -0.5593 -0.0401 -0.5937
   47MOL    C96 9388   4.561   1.871   0.476 -0.2447 -0.5055 -0.1123
   47MOL    H97 9389   4.635   1.618   0.778 -1.1627  2.3839 -0.2136
   47MOL    H98 9390   4.628   1.631   0.618 -1.5699  0.8813  1.1894
   47MOL    H99 9391   4.619   2.010   0.639  1.0928 -0.1662  0.2505
   47MOL   H100 9392   4.563   1.765   0.449  0.6956 -1.1247  2.1969
   47MOL   H101 9393   4.455   1.893   0.482 -0.9136 -3.0837 -1.4932
   47MOL   C102 9394   4.630   1.953   0.371  0.0247  0.1229  0.5668
   47MOL   C103 9395   4.592   1.918   0.224 -0.4069  0.3801 -0.2105
   47MOL  Cl104 9396   4.733   1.897   0.124 -0.1603 -0.3560 -0.1222
   47MOL   C105 9397   4.465   1.900   0.177 -0.5609  0.1801 -0.6233
   47MOL   C106 9398   4.429   1.845   0.046  0.0530 -0.4069  0.3218
   47MOL   H107 9399   4.607   2.060   0.373  2.2136  0.6363  0.1224
   47MOL   H108 9400   4.737   1.946   0.390 -0.1218 -2.2912  0.6380
   47MOL   H109 9401   4.381   1.902   0.245  0.9108 -1.6381  1.3266
   47MOL   H110 9402   4.337   1.894   0.014  1.6915  1.8860 -1.0821
   47MOL   H111 9403   4.498   1.881   8.390  1.1411 -1.6503  0.7096
   47MOL   C112 9404   4.412   1.690   0.042  0.0260  0.2280 -0.2093
   47MOL   C113 9405   4.363   1.640   8.326  0.7003 -0.2592 -0.6085
   47MOL  Cl114 9406   4.200   1.584   8.327 -0.0410 -0.3096  0.2749
   47MOL   C115 9407   4.442   1.626   8.221  0.1281 -0.2980  1.5552
   47MOL   C116 9408   4.588   1.665   8.213  0.1346 -0.5191 -0.3121
   47MOL   H117 9409   4.512   1.648   0.051 -0.1361 -0.2773 -0.6628
   47MOL   H118 9410   4.348   1.655   0.123 -0.5933 -0.1511 -0.8509
   47MOL   H119 9411   4.401   1.578   8.132  0.8175 -0.4548  1.3219
   47MOL   H120 9412   4.614   1.726   8.300 -1.8375 -1.0313  0.6586
   47MOL   H121 9413   4.603   1.709   8.114  1.5416  2.2882  1.0827
   47MOL   C122 9414   4.684   1.541   8.223  0.2132 -0.5167 -0.3454
   47MOL   C123 9415   4.828   1.568   8.187  0.2066 -0.3777  0.1115
   47MOL  Cl124 9416   4.913   1.639   8.322 -0.4981  0.2105 -0.3427
   47MOL   C125 9417   4.904   1.546   8.073 -0.3217 -0.2359 -0.6457
   47MOL   C126 9418   4.843   1.497   7.944  0.2455  0.2612 -0.3692
   47MOL   H127 9419   4.665   1.508   8.325 -1.8202  0.0943 -0.5131
   47MOL   H128 9420   4.638   1.469   8.156 -0.5227  1.7977 -2.4022
   47MOL   H129 9421   5.008   1.573   8.074 -1.2088  3.4647  0.5889
   47MOL   H130 9422   4.903   1.410   7.918 -2.7565 -2.0673  0.2116
   47MOL   H131 9423   4.735   1.484   7.950  0.3328 -0.1513  0.3983
   47MOL   C132 9424   4.865   1.605   7.821  0.4068 -0.2826 -0.0994
   47MOL   C133 9425   4.801   1.568   7.690  0.2667 -0.1726 -0.2486
   47MOL  Cl134 9426   4.889   1.458   7.591 -0.0192 -0.3396  0.1452
   47MOL   C135 9427   4.680   1.608   7.652 -0.3332  0.7377  0.1791
   47MOL   C136 9428   4.578   1.696   7.728 -0.6703  0.0809  0.9388
   47MOL   H137 9429   4.821   1.703   7.839 -3.8861 -1.9676 -0.5672
   47MOL   H138 9430   4.971   1.618   7.802  0.5682 -0.5222  0.6602
   47MOL   H139 9431   4.633   1.582   7.559 -0.5256 -2.1206  1.0180
   47MOL   H140 9432   4.613   1.709   7.830  2.2874 -3.2161  0.4507
   47MOL   H141 9433   4.576   1.793   7.677  2.0139 -0.0270  0.5192
   47MOL   C142 9434   4.444   1.622   7.741  0.0126 -0.4527  0.0977
   47MOL   C143 9435   4.352   1.632   7.624 -0.2383 -0.2172 -0.0999
   47MOL  Cl144 9436   4.311   1.486   7.550  0.0688 -0.1411 -0.1589
   47MOL   C145 9437   4.316   1.757   7.578 -0.7012 -0.6012  0.0552
   47MOL   C146 9438   4.225   1.793   7.457 -0.5101 -0.0195  0.9039
   47MOL   H147 9439   4.387   1.663   7.824  0.6818  1.2251 -0.2363
   47MOL   H148 9440   4.457   1.519   7.774  0.6787 -0.1596  0.7811
   47MOL   H149 9441   4.360   1.843   7.626  2.2759 -1.1352 -1.5765
   47MOL   H150 9442   4.166   1.704   7.436  1.3139 -1.3096  1.1234
   47MOL   H151 9443   4.146   1.854   7.501 -2.4032  0.2535 -2.6896
   47MOL   C152 9444   4.281   1.869   7.332  0.0022  0.0927  0.2258
   47MOL   C153 9445   4.323   2.011   7.351  0.0125  0.3849  0.0907
   47MOL  Cl154 9446   4.186   2.101   7.402 -0.1542 -0.1757 -0.0034
   47MOL   C155 9447   4.451   2.049   7.351 -0.0579 -0.0617  0.4190
   47MOL   C156 9448   4.512   2.181   7.392 -0.8383 -0.1680  0.1902
   47MOL   H157 9449   4.357   1.811   7.278 -0.6746 -1.1488  0.5939
   47MOL   H158 9450   4.206   1.869   7.253 -0.9783  2.7545  1.1150
   47MOL   H159 9451   4.519   1.971   7.320  0.1408  0.4547 -0.4477
   47MOL   H160 9452   4.583   2.153   7.470 -0.8730  0.0059  0.2840
   47MOL   H161 9453   4.431   2.244   7.426 -0.8085  0.2918 -0.5651
   47MOL   C162 9454   4.585   2.253   7.278 -0.8624 -0.1261  0.2803
   47MOL   C163 9455   4.579   2.405   7.289 -0.9316  0.3088 -0.1632
   47MOL  Cl164 9456   4.738   2.476   7.289 -0.4932 -0.0519  0.1645
   47MOL   C165 9457   4.470   2.486   7.271 -0.1921 -0.1950  0.2567
   47MOL   C166 9458   4.475   2.637   7.280  0.6834 -0.3711 -0.0437
   47MOL   H167 9459   4.688   2.221   7.261 -0.2272  1.9898 -0.0674
   47MOL   H168 9460   4.535   2.213   7.190 -3.4886  2.7802  0.3710
   47MOL   H169 9461   4.379   2.429   7.258 -1.1783  1.6468 -1.1848
   47MOL   H170 9462   4.439   2.671   7.378 -0.3861  1.5178 -1.0700
   47MOL   H171 9463   4.579   2.667   7.271 -0.2910  2.8619 -1.0484
   47MOL   C172 9464   4.396   2.710   7.170  0.1664 -0.1484 -0.8925
   47MOL   C173 9465   4.430   2.862   7.160  0.3833  0.0872 -0.2003
   47MOL  Cl174 9466   4.424   2.923   7.000 -0.1913 -0.0912 -0.0187
   47MOL   C175 9467   4.497   2.933   7.261  0.1005 -0.7946  0.7177
   47MOL   C176 9468   4.543   3.081   7.249 -0.7336  0.5577 -0.8535
   47MOL   H177 9469   4.290   2.689   7.182  0.1232 -0.2811 -1.4777
   47MOL   H178 9470   4.427   2.668   7.074  1.1922 -2.7409  0.5200
   47MOL   H179 9471   4.499   2.889   7.360  0.0145 -0.0345  1.0609
   47MOL   H180 9472   4.546   3.116   7.146  1.0894 -0.1226 -1.0586
   47MOL   H181 9473   4.649   3.087   7.276 -1.3971  0.5302  1.9502
   47MOL   C182 9474   4.458   3.174   7.330 -0.0476  0.2521 -0.0304
   47MOL   C183 9475   4.548   3.290   7.370  0.3125  0.3320  0.7094
   47MOL  Cl184 9476   4.520   3.425   7.268 -0.1967 -0.0152 -0.3895
   47MOL   C185 9477   4.639   3.285   7.472 -0.7777 -0.1836 -0.4815
   47MOL   C186 9478   4.728   3.396   7.506 -0.4339 -0.7181  0.6527
   47MOL   H187 9479   4.369   3.188   7.269 -0.2967 -1.5373 -0.0934
   47MOL   H188 9480   4.426   3.132   7.426 -0.3462 -0.9721 -0.6590
   47MOL   H189 9481   4.653   3.206   7.544 -0.0988  1.6967  1.5027
   47MOL   H190 9482   4.725   3.475   7.431  1.9005 -2.0185 -0.8747
   47MOL   H191 9483   4.701   3.444   7.601  5.6419  0.5516  1.9157
   47MOL   C192 9484   4.875   3.352   7.510 -0.1686  1.0388  0.7549
   47MOL   C193 9485   4.968   3.461   7.551  0.8805 -0.9389  0.0459
   47MOL  Cl194 9486   5.069   3.515   7.421 -0.2329 -0.4434  0.5245
   47MOL   C195 9487   4.976   3.515   7.678  0.2667  0.2696  0.1769
   47MOL   C196 9488   4.913   3.457   7.802 -0.0129 -0.3087  0.4285
   47MOL   H197 9489   4.914   3.317   7.415 -0.4054  1.9085  0.3367
   47MOL   H198 9490   4.884   3.268   7.579  0.3459 -1.1901 -1.9421
   47MOL   H199 9491   5.043   3.595   7.704  1.5954 -0.7285 -0.0912
   47MOL   H200 9492   4.984   3.430   7.880  0.9056  0.7046 -0.0463
   47MOL   H201 9493   4.850   3.368   7.789 -0.6043  0.1839 -0.1173
   47MOL   H202 9494   4.838   3.519   7.851  2.1295  0.6879  2.5141
   48MOL     C1 9495   7.190   5.343   1.648 -0.7803 -0.1281  0.3061
   48MOL     C2 9496   7.078   5.359   1.750 -0.1034 -0.4450  0.5413
   48MOL    Cl3 9497   7.106   5.491   1.860 -0.1519 -0.0386  0.1217
   48MOL     C4 9498   6.988   5.272   1.782  0.5593  0.4538 -0.2684
   48MOL     C5 9499   6.957   5.147   1.703 -0.9787 -0.2180  0.1855
   48MOL     H6 9500   7.234   5.441   1.633 -1.2238 -0.1416 -1.1181
   48MOL     H7 9501   7.136   5.320   1.556  1.7393 -0.8160 -1.0417
   48MOL     H8 9502   6.925   5.284   1.869 -2.3842  1.8782 -2.5270
   48MOL     H9 9503   6.855   5.165   1.669  0.1205 -1.8842 -4.2854
   48MOL    H10 9504   7.019   5.154   1.614 -0.8366  1.0209  0.3664
   48MOL    H11 9505   7.261   5.263   1.669 -1.6501 -0.6963  1.1364
   48MOL    C12 9506   6.974   5.020   1.788 -0.0279  0.2258 -0.6912
   48MOL    C13 9507   6.990   4.894   1.699  0.2897 -0.0519  0.5444
   48MOL   Cl14 9508   6.843   4.796   1.691 -0.2675  0.6489  0.1837
   48MOL    C15 9509   7.103   4.858   1.630  0.3097 -0.6909 -0.0697
   48MOL    C16 9510   7.242   4.932   1.630 -0.4879  0.3286  0.0405
   48MOL    H17 9511   7.057   5.014   1.858 -0.3043 -2.4775 -0.5286
   48MOL    H18 9512   6.883   5.025   1.847 -0.9844 -0.0403 -2.1136
   48MOL    H19 9513   7.105   4.765   1.576  0.3566 -1.8226  1.8190
   48MOL    H20 9514   7.271   4.932   1.525  0.5809 -0.6984  0.3321
   48MOL    H21 9515   7.244   5.034   1.669  0.1916 -0.0256  0.9610
   48MOL    C22 9516   7.344   4.857   1.709 -0.0010 -0.1149 -0.3459
   48MOL    C23 9517   7.477   4.923   1.706 -0.2422 -0.1936  0.3345
   48MOL   Cl24 9518   7.589   4.849   1.594  0.3637 -0.0854  0.3341
   48MOL    C25 9519   7.500   5.039   1.768 -0.2962  0.3430  0.0776
   48MOL    C26 9520   7.615   5.128   1.767 -0.9473 -0.8876 -0.2367
   48MOL    H27 9521   7.312   4.866   1.813  2.9409 -0.8040  0.6678
   48MOL    H28 9522   7.361   4.750   1.692  0.1359 -0.1526  0.0129
   48MOL    H29 9523   7.424   5.077   1.834  0.6693  1.8429  0.3525
   48MOL    H30 9524   7.694   5.093   1.700 -0.5515  0.2786 -0.3986
   48MOL    H31 9525   7.586   5.212   1.704  2.0766 -0.8854 -1.6875
   48MOL    C32 9526   7.668   5.166   1.910  0.8583  0.7882 -1.0919
   48MOL    C33 9527   7.781   5.263   1.919  0.4852 -0.0586  0.3856
   48MOL   Cl34 9528   7.936   5.196   1.951 -0.0231  0.2981 -0.0035
   48MOL    C35 9529   7.749   5.389   1.950 -0.1768  0.0942  1.1124
   48MOL    C36 9530   7.835   5.502   2.000  0.0114  0.2883 -0.0306
   48MOL    H37 9531   7.589   5.211   1.968  0.5408 -0.6115 -0.4090
   48MOL    H38 9532   7.691   5.073   1.962  1.2485  0.9858 -0.9065
   48MOL    H39 9533   7.649   5.427   1.934 -0.1550 -1.2316 -2.5842
   48MOL    H40 9534   7.933   5.459   2.017 -0.4275 -0.8704 -0.4330
   48MOL    H41 9535   7.863   5.583   1.933 -2.5286  2.1364  1.0510
   48MOL    C42 9536   7.782   5.566   2.128 -0.0235 -0.0485  0.0743
   48MOL    C43 9537   7.874   5.666   2.185 -0.1414 -0.2603  0.6070
   48MOL   Cl44 9538   7.819   5.825   2.145  0.0600 -0.1490  0.2577
   48MOL    C45 9539   7.979   5.645   2.263 -0.0730 -0.2201  0.6422
   48MOL    C46 9540   8.021   5.513   2.310 -0.0784  0.2142 -0.5555
   48MOL    H47 9541   7.680   5.603   2.113 -0.0793 -0.1774  0.1292
   48MOL    H48 9542   7.771   5.491   2.206 -1.2926  0.4123  0.3446
   48MOL    H49 9543   8.036   5.728   2.301 -0.3453  0.0153  0.5334
   48MOL    H50 9544   8.019   5.509   2.419  0.2617 -2.6479 -0.6181
   48MOL    H51 9545   7.962   5.429   2.272 -1.0279  1.1086 -1.0855
   48MOL    C52 9546   8.158   5.472   2.256  0.4624  0.3589 -0.3996
   48MOL    C53 9547   8.206   5.339   2.320  0.7927  0.2594 -0.0271
   48MOL   Cl54 9548   8.323   5.381   2.443 -0.1512  0.3744 -0.2327
   48MOL    C55 9549   8.182   5.214   2.271 -0.8815  0.1796  0.5542
   48MOL    C56 9550   8.239   5.083   2.328  0.9059 -0.5045  0.1706
   48MOL    H57 9551   8.143   5.457   2.150  0.5774 -1.1650 -0.2175
   48MOL    H58 9552   8.226   5.554   2.279 -1.2373  1.9926 -1.0601
   48MOL    H59 9553   8.108   5.197   2.194  0.3623  2.7300 -1.2514
   48MOL    H60 9554   8.259   5.026   2.237 -1.0512 -0.7985 -0.1004
   48MOL    H61 9555   8.329   5.090   2.389  1.2933 -2.4685 -0.1389
   48MOL    C62 9556   8.126   5.028   2.421 -0.3646  0.4071  0.8707
   48MOL    C63 9557   8.167   4.921   2.521 -0.5619  0.1271  0.6985
   48MOL   Cl64 9558   8.316   4.955   2.605  0.4563  0.1917  0.2476
   48MOL    C65 9559   8.097   4.811   2.543  0.2112 -0.0269 -0.2472
   48MOL    C66 9560   8.137   4.705   2.640  0.9089  0.2832 -0.3343
   48MOL    H67 9561   8.086   5.114   2.474 -0.7229  1.3110 -0.8276
   48MOL    H68 9562   8.041   4.995   2.362  1.2703  2.2337 -2.6863
   48MOL    H69 9563   8.007   4.791   2.485  0.5428 -2.0027 -0.0987
   48MOL    H70 9564   8.202   4.753   2.712  1.0316 -0.9711  0.4007
   48MOL    H71 9565   8.191   4.635   2.576 -0.9752 -1.7709  0.2694
   48MOL    C72 9566   8.012   4.636   2.703 -0.2338 -0.0079  0.9212
   48MOL    C73 9567   8.058   4.517   2.785  0.1460 -0.2811 -0.6264
   48MOL   Cl74 9568   8.102   4.390   2.690 -0.1694 -0.1490 -0.1731
   48MOL    C75 9569   8.079   4.521   2.918  0.9243  0.3089  0.2723
   48MOL    C76 9570   8.150   4.414   2.997 -0.2403 -0.5957 -0.1031
   48MOL    H77 9571   7.938   4.614   2.627 -2.4718 -0.1260  3.0793
   48MOL    H78 9572   7.946   4.705   2.755 -0.2040 -0.0464  1.0101
   48MOL    H79 9573   8.053   4.606   2.979  0.7369  0.8751 -0.5907
   48MOL    H80 9574   8.234   4.457   3.051 -0.9774  0.4988  0.1854
   48MOL    H81 9575   8.196   4.345   2.925  1.2216 -0.6809  0.9065
   48MOL    C82 9576   8.056   4.355   3.096  0.2558 -0.7313 -0.6123
   48MOL    C83 9577   8.115   4.248   3.180  0.0242 -0.5210 -0.9321
   48MOL   Cl84 9578   8.163   4.315   3.338 -0.1442  0.2946 -0.3036
   48MOL    C85 9579   8.132   4.123   3.142 -0.4371 -0.0186 -0.7999
   48MOL    C86 9580   8.200   4.023   3.234 -0.4277 -0.2297 -0.2241
   48MOL    H87 9581   7.962   4.315   3.058 -0.5475 -2.9168  3.3450
   48MOL    H88 9582   8.027   4.432   3.167 -1.0368 -1.8701  0.1324
   48MOL    H89 9583   8.115   4.101   3.038 -1.7061  1.4313 -0.9169
   48MOL    H90 9584   8.304   4.009   3.207 -0.8973 -1.7115 -1.3209
   48MOL    H91 9585   8.203   4.061   3.336 -1.4631  2.9146 -1.2773
   48MOL    C92 9586   8.151   3.880   3.227  0.3839  0.1821 -0.0920
   48MOL    C93 9587   7.999   3.872   3.238 -0.6791 -0.1875 -0.2675
   48MOL   Cl94 9588   7.936   3.858   3.398  0.4069 -0.5175 -0.0393
   48MOL    C95 9589   7.909   3.868   3.135 -0.6255 -0.2944  0.1523
   48MOL    C96 9590   7.941   3.865   2.986 -0.4193  0.1258 -0.3581
   48MOL    H97 9591   8.190   3.826   3.314  1.3497  0.2100 -0.4990
   48MOL    H98 9592   8.192   3.841   3.134  0.3543  0.3184 -0.1610
   48MOL    H99 9593   7.808   3.853   3.168 -0.5364 -1.0136  0.1090
   48MOL   H100 9594   8.047   3.871   2.961 -0.3687  0.5581 -0.0403
   48MOL   H101 9595   7.910   3.765   2.956  2.1394 -0.6462 -0.5457
   48MOL   C102 9596   7.875   3.988   2.925 -0.3635 -0.7696 -0.0958
   48MOL   C103 9597   7.881   3.992   2.775  0.5777  0.0015  0.7046
   48MOL  Cl104 9598   7.749   3.896   2.712  0.0999 -0.6071 -0.1249
   48MOL   C105 9599   7.960   4.075   2.698 -0.0731 -0.5769 -0.0622
   48MOL   C106 9600   7.954   4.089   2.549  0.3839 -0.4793 -0.1383
   48MOL   H107 9601   7.771   3.997   2.956 -0.0707 -0.5278  0.8400
   48MOL   H108 9602   7.916   4.082   2.963 -3.2220  1.3369 -2.0441
   48MOL   H109 9603   8.036   4.136   2.745 -0.9620  1.1661 -0.8644
   48MOL   H110 9604   7.881   4.025   2.498 -0.3654  1.3776 -1.4212
   48MOL   H111 9605   7.924   4.190   2.523  0.8741  0.2220  1.9343
   48MOL   C112 9606   8.089   4.051   2.494 -0.7569  0.0282  0.2058
   48MOL   C113 9607   8.091   3.923   2.414  0.0204 -0.1310  0.2291
   48MOL  Cl114 9608   8.082   3.792   2.519  0.3320 -0.0405 -0.0637
   48MOL   C115 9609   8.090   3.913   2.280  0.0165 -0.2110  0.4156
   48MOL   C116 9610   8.091   4.035   2.189 -0.2655 -0.6225  0.0754
   48MOL   H117 9611   8.126   4.124   2.423 -0.7203  0.1652  0.3647
   48MOL   H118 9612   8.169   4.045   2.568 -2.0768 -1.3836  1.5512
   48MOL   H119 9613   8.081   3.817   2.231  1.7318  0.0294 -0.4244
   48MOL   H120 9614   8.077   4.129   2.241  1.7821 -0.8512  1.0734
   48MOL   H121 9615   7.999   4.019   2.133 -1.2840 -0.0526  1.5860
   48MOL   C122 9616   8.207   4.025   2.090 -0.2905  0.0945  0.3213
   48MOL   C123 9617   8.345   4.015   2.151 -0.1052  0.3095 -0.2960
   48MOL  Cl124 9618   8.405   3.860   2.135 -0.0178  0.2727 -0.1558
   48MOL   C125 9619   0.010   4.111   2.193  0.6824 -0.3480  0.0660
   48MOL   C126 9620   8.384   4.257   2.185 -0.3657 -0.3108 -0.0373
   48MOL   H127 9621   8.193   3.937   2.027 -0.0334  1.8278 -2.2297
   48MOL   H128 9622   8.206   4.112   2.024 -2.0387  0.4335  0.7711
   48MOL   H129 9623   0.109   4.089   2.229  0.3090  0.6686  1.7789
   48MOL   H130 9624   0.037   4.311   2.125 -0.3301 -0.3952 -0.0703
   48MOL   H131 9625   8.287   4.278   2.140  0.7159  2.4692 -1.1605
   48MOL   C132 9626   8.381   4.335   2.320  0.3885 -0.9642 -0.9083
   48MOL   C133 9627   8.315   4.473   2.313  0.0168  0.5438  0.9096
   48MOL  Cl134 9628   8.143   4.453   2.329 -0.1950  0.1271  0.2986
   48MOL   C135 9629   8.369   4.594   2.310 -0.2665 -0.1030 -0.9453
   48MOL   C136 9630   0.099   4.624   2.301  0.3051  0.9381 -0.2824
   48MOL   H137 9631   8.329   4.285   2.402 -0.7426  0.1817 -0.9213
   48MOL   H138 9632   0.061   4.352   2.358 -0.5880  1.7770  0.5965
   48MOL   H139 9633   8.304   4.680   2.311  0.6390  0.5950  0.8368
   48MOL   H140 9634   0.149   4.570   2.381  0.0584 -0.3342 -0.9780
   48MOL   H141 9635   0.147   4.578   2.215  1.5010  0.7851  0.4479
   48MOL   C142 9636   0.128   4.774   2.321  0.6221  0.3370 -1.0734
   48MOL   C143 9637   0.281   4.811   2.349  0.2645 -0.3680 -1.0581
   48MOL  Cl144 9638   0.291   4.978   2.399  0.1209  0.1330 -0.3223
   48MOL   C145 9639   0.381   4.719   2.333  0.0013  0.3131 -0.3461
   48MOL   C146 9640   0.531   4.744   2.360  0.3381  0.1132  0.2608
   48MOL   H147 9641   0.067   4.817   2.400  1.2452  0.8557 -0.8677
   48MOL   H148 9642   0.094   4.825   2.231  1.5565  1.3411 -0.8763
   48MOL   H149 9643   0.362   4.618   2.300  1.0113  0.2471 -0.7437
   48MOL   H150 9644   0.550   4.849   2.337  1.7724  0.0949  1.2484
   48MOL   H151 9645   0.545   4.730   2.467 -2.4319  0.2186  0.6822
   48MOL   C152 9646   0.623   4.656   2.284  0.3221  0.8274 -0.1471
   48MOL   C153 9647   0.621   4.682   2.137 -0.2411 -0.2565 -0.3483
   48MOL  Cl154 9648   0.598   4.545   2.047  0.3480 -0.0199 -0.5322
   48MOL   C155 9649   0.640   4.800   2.082  0.1335 -0.6307  0.0553
   48MOL   C156 9650   0.646   4.828   1.930  0.8093 -0.1804  0.0075
   48MOL   H157 9651   0.727   4.678   2.308  0.0463  1.4855  0.4498
   48MOL   H158 9652   0.603   4.552   2.313  1.4416  1.1090  1.7143
   48MOL   H159 9653   0.648   4.892   2.138 -1.7973  0.1592 -0.9409
   48MOL   H160 9654   0.642   4.732   1.878 -0.9926 -0.7076  1.0614
   48MOL   H161 9655   0.749   4.860   1.915  1.4319 -1.7808  0.7419
   48MOL   C162 9656   0.540   4.927   1.882 -0.3290 -0.2194  0.0878
   48MOL   C163 9657   0.535   4.919   1.730 -0.2183  0.0876  0.7484
   48MOL  Cl164 9658   0.674   4.986   1.661  0.0341 -0.3899 -0.0801
   48MOL   C165 9659   0.440   4.863   1.655 -0.8052 -0.5056 -0.1081
   48MOL   C166 9660   0.448   4.875   1.508  0.1736 -0.2372 -0.1332
   48MOL   H167 9661   0.445   4.908   1.931 -1.3750 -0.6056 -2.0145
   48MOL   H168 9662   0.572   5.029   1.901 -0.9382  0.1413 -0.7739
   48MOL   H169 9663   0.351   4.816   1.694 -1.5924  1.1174  0.0911
   48MOL   H170 9664   0.387   4.964   1.489  1.5057  1.1412  1.8608
   48MOL   H171 9665   0.549   4.888   1.470  0.6430  1.2287  1.5440
   48MOL   C172 9666   0.379   4.751   1.446  0.1144  0.2152  0.3549
   48MOL   C173 9667   0.362   4.766   1.293 -0.5951 -0.8387  0.6901
   48MOL  Cl174 9668   0.395   4.619   1.209  0.0473 -0.3619 -0.1379
   48MOL   C175 9669   0.322   4.872   1.228  0.2551 -0.5068  0.0953
   48MOL   C176 9670   0.303   4.890   1.079  0.7913 -0.4277  0.3252
   48MOL   H177 9671   0.284   4.723   1.490 -0.5848  0.3735 -1.0154
   48MOL   H178 9672   0.447   4.667   1.460 -0.6376 -0.4635 -0.0378
   48MOL   H179 9673   0.289   4.961   1.281 -0.7277  0.2512 -1.7441
   48MOL   H180 9674   0.383   4.838   1.027  0.6283 -1.0397  0.6719
   48MOL   H181 9675   0.331   4.993   1.057  0.0666 -0.1674  0.5847
   48MOL   C182 9676   0.158   4.858   1.031  0.2612 -0.2429  0.0708
   48MOL   C183 9677   0.135   4.906   0.892  0.0645 -0.1777 -0.2117
   48MOL  Cl184 9678   0.152   4.777   0.778 -0.1610 -0.0457 -0.1800
   48MOL   C185 9679   0.121   5.032   0.854  0.2094  0.5450  0.4152
   48MOL   C186 9680   0.106   5.066   0.711 -0.4662  0.1604  0.1665
   48MOL   H187 9681   0.134   4.753   1.048  0.2501 -0.0886  1.0306
   48MOL   H188 9682   0.083   4.911   1.090 -0.2280 -0.7591 -0.0805
   48MOL   H189 9683   0.126   5.117   0.920  0.2711  1.6414 -0.9649
   48MOL   H190 9684   0.198   5.044   0.655  0.3938  4.8303 -0.4832
   48MOL   H191 9685   0.019   5.014   0.671 -0.4115  0.1866  0.0116
   48MOL   C192 9686   0.084   5.216   0.693 -0.2856  0.4043 -0.7211
   48MOL   C193 9687   0.018   5.238   0.557 -0.5034 -0.3609 -0.4914
   48MOL  Cl194 9688   0.130   5.230   0.419 -0.1464  0.1349  0.0983
   48MOL   C195 9689   8.312   5.269   0.532  0.3714 -0.0961 -1.1680
   48MOL   C196 9690   8.205   5.290   0.620  0.7265 -0.1074  0.3671
   48MOL   H197 9691   0.177   5.272   0.705 -1.0858  1.0782  2.9768
   48MOL   H198 9692   0.018   5.253   0.772  3.0508  1.9544  1.4960
   48MOL   H199 9693   8.286   5.277   0.427  1.0074  1.2850 -1.2300
   48MOL   H200 9694   8.113   5.237   0.597 -0.4513  1.9099  0.3205
   48MOL   H201 9695   8.182   5.397   0.628 -0.8694 -0.4568  0.4846
   48MOL   H202 9696   8.229   5.259   0.722 -1.9227  1.1209  1.4126
   49MOL     C1 9697   1.423   6.885   3.782  0.2657  0.2642  0.0388
   49MOL     C2 9698   1.312   6.940   3.857 -0.2155  0.3105  0.0286
   49MOL    Cl3 9699   1.341   6.945   4.028 -0.0604 -0.2456 -0.0498
   49MOL     C4 9700   1.197   6.986   3.807 -0.3006  1.2268  0.3022
   49MOL     C5 9701   1.145   6.965   3.665 -0.8105 -0.2407  0.0559
   49MOL     H6 9702   1.516   6.854   3.831  0.4873  0.4997 -0.2308
   49MOL     H7 9703   1.443   6.943   3.692  3.5491  0.3142  0.7518
   49MOL     H8 9704   1.126   7.030   3.875 -1.4720  2.2908 -1.5840
   49MOL     H9 9705   1.226   6.918   3.608  0.3445  2.2016 -0.3859
   49MOL    H10 9706   1.054   6.905   3.670 -1.8175  0.9873 -2.4438
   49MOL    H11 9707   1.384   6.788   3.750 -1.3468  0.9823 -0.2114
   49MOL    C12 9708   1.110   7.102   3.608  0.2396  0.0321  0.0361
   49MOL    C13 9709   1.080   7.106   3.460 -0.2029 -0.0177 -0.3962
   49MOL   Cl14 9710   1.064   6.943   3.392  0.0810 -0.0797 -0.2179
   49MOL    C15 9711   1.059   7.205   3.377 -0.3259 -0.0491 -0.5766
   49MOL    C16 9712   1.064   7.357   3.415 -0.4546 -0.0169 -1.1262
   49MOL    H17 9713   1.032   7.147   3.669  0.6948  3.1530 -1.6069
   49MOL    H18 9714   1.204   7.156   3.616  0.2885  0.0391 -0.6140
   49MOL    H19 9715   1.046   7.185   3.272  1.2482 -0.1821 -0.7629
   49MOL    H20 9716   1.074   7.368   3.523  0.7422  2.1313 -1.4250
   49MOL    H21 9717   1.159   7.395   3.377 -0.6100  1.9845  0.4234
   49MOL    C22 9718   0.933   7.430   3.376 -0.0407 -0.4974  0.4035
   49MOL    C23 9719   0.913   7.560   3.460 -0.4787  0.4399 -0.1630
   49MOL   Cl24 9720   0.834   7.524   3.612 -0.1833  0.1544 -0.1371
   49MOL    C25 9721   0.928   7.685   3.412  0.5721  0.2166 -0.2541
   49MOL    C26 9722   0.880   7.802   3.495 -1.0796 -0.4119  0.2525
   49MOL    H27 9723   0.924   7.452   3.270  0.2467  1.3633  0.7453
   49MOL    H28 9724   0.844   7.374   3.403 -2.6045  3.5091  0.5964
   49MOL    H29 9725   0.976   7.693   3.315  0.5863 -1.1247 -0.3615
   49MOL    H30 9726   0.786   7.836   3.451  0.1813  1.3048 -1.2035
   49MOL    H31 9727   0.853   7.763   3.593  1.0118 -0.0046  1.0094
   49MOL    C32 9728   0.967   7.934   3.502 -0.7067 -0.0142 -0.5803
   49MOL    C33 9729   0.914   8.026   3.608  0.0713  0.7426 -0.4086
   49MOL   Cl34 9730   0.946   7.958   3.766 -0.0645 -0.0297  0.2941
   49MOL    C35 9731   0.863   8.149   3.575  0.3294  0.6248 -0.2219
   49MOL    C36 9732   0.827   8.255   3.673  0.7396 -0.0953 -0.3428
   49MOL    H37 9733   1.070   7.913   3.530 -0.6240  0.1531 -0.7567
   49MOL    H38 9734   0.970   7.993   3.411  2.1527 -1.1489 -1.2779
   49MOL    H39 9735   0.848   8.185   3.475 -3.1190 -0.2586 -0.0989
   49MOL    H40 9736   0.811   8.194   3.762 -0.9064  0.1363 -0.4619
   49MOL    H41 9737   0.919   8.313   3.683 -0.1217  1.0141  1.5470
   49MOL    C42 9738   0.725   8.348   3.627 -0.4486 -0.5042  0.5113
   49MOL    C43 9739   0.718   0.046   3.716 -0.0987 -0.3629 -0.6203
   49MOL   Cl44 9740   0.593   0.025   3.834  0.2935 -0.0960  0.3246
   49MOL    C45 9741   0.800   0.150   3.712  0.1743 -0.5565  0.8516
   49MOL    C46 9742   0.921   0.176   3.618 -0.8698 -0.4052  0.6073
   49MOL    H47 9743   0.761   8.385   3.530 -0.2360  1.0613  1.1776
   49MOL    H48 9744   0.628   8.309   3.594 -0.2852 -1.0149  0.6351
   49MOL    H49 9745   0.791   0.228   3.787 -0.5673 -0.1127  0.3091
   49MOL    H50 9746   0.940   0.088   3.556 -0.6606  0.6426 -0.8250
   49MOL    H51 9747   0.909   0.268   3.562  0.6355 -0.3598  0.3483
   49MOL    C52 9748   1.053   0.223   3.693 -0.4055  0.4898  0.4202
   49MOL    C53 9749   1.149   0.318   3.605  0.3836  0.2179 -0.0423
   49MOL   Cl54 9750   1.201   0.241   3.457  0.4185  0.3541 -0.2236
   49MOL    C55 9751   1.185   0.442   3.628 -0.6103 -0.1033  0.0815
   49MOL    C56 9752   1.272   0.535   3.541 -0.1640 -0.1710  0.0625
   49MOL    H57 9753   1.029   0.287   3.778 -0.5161  0.6557  0.2647
   49MOL    H58 9754   1.097   0.127   3.722  1.2232  0.8330 -0.9108
   49MOL    H59 9755   1.143   0.493   3.713 -1.3558 -0.8416  0.1625
   49MOL    H60 9756   1.329   0.489   3.461 -0.4784 -1.0716  0.3510
   49MOL    H61 9757   1.200   0.603   3.497  0.9478  0.8533 -0.2147
   49MOL    C62 9758   1.372   0.631   3.617 -0.1753  0.8360 -0.1839
   49MOL    C63 9759   1.480   0.565   3.707  0.3829  0.5341  0.7005
   49MOL   Cl64 9760   1.420   0.550   3.872 -0.2488 -0.2837  0.3045
   49MOL    C65 9761   1.603   0.525   3.662  0.7361 -0.0541 -0.4226
   49MOL    C66 9762   1.702   0.453   3.753 -0.0623 -0.7581 -0.3860
   49MOL    H67 9763   1.419   0.693   3.541  1.7704 -2.2265 -1.5931
   49MOL    H68 9764   1.312   0.700   3.676 -0.1770  0.6578  0.0245
   49MOL    H69 9765   1.627   0.546   3.558  2.9501  1.4010  0.3475
   49MOL    H70 9766   1.704   0.517   3.841 -1.5232 -0.4774 -0.5358
   49MOL    H71 9767   1.804   0.466   3.717  0.5685 -1.1360  1.2333
   49MOL    C72 9768   1.665   0.302   3.762  0.2503 -0.6671  0.3204
   49MOL    C73 9769   1.734   0.242   3.875 -0.1997 -0.1117  0.3017
   49MOL   Cl74 9770   1.632   0.211   4.008 -0.7322 -0.1877 -0.1160
   49MOL    C75 9771   1.863   0.196   3.870  0.0539  0.2366 -0.6428
   49MOL    C76 9772   1.937   0.131   3.981  0.4575 -0.3830 -0.6081
   49MOL    H77 9773   1.700   0.247   3.674  0.7990 -0.3257  0.3209
   49MOL    H78 9774   1.557   0.302   3.773  0.0345  1.4443 -1.5304
   49MOL    H79 9775   1.913   0.199   3.774  1.1650  1.8259 -0.0278
   49MOL    H80 9776   1.922   0.024   3.975  0.7346 -0.5665  1.7297
   49MOL    H81 9777   1.898   0.166   4.077 -1.5086 -2.0526 -0.7723
   49MOL    C82 9778   2.085   0.166   3.994 -0.1966  0.2241  0.3490
   49MOL    C83 9779   2.155   0.080   4.094  0.9603  0.0529 -0.8581
   49MOL   Cl84 9780   2.270   8.405   4.010  0.0681 -0.7822 -0.0690
   49MOL    C85 9781   2.131   0.072   4.232 -0.1897 -0.1345  1.0941
   49MOL    C86 9782   2.204   8.389   4.320 -0.5517  0.4489 -0.4684
   49MOL    H87 9783   2.107   0.272   4.005 -2.8228  0.9985 -1.2466
   49MOL    H88 9784   2.131   0.143   3.898  1.3303 -0.9743  1.3506
   49MOL    H89 9785   2.055   0.130   4.283  0.2820  1.3914  0.0958
   49MOL    H90 9786   2.307   8.369   4.294  0.4497  0.5937  3.0984
   49MOL    H91 9787   2.206   8.413   4.426 -0.0525  0.4359 -0.4749
   49MOL    C92 9788   2.146   8.246   4.294 -0.3449 -0.3523 -0.3381
   49MOL    C93 9789   2.204   8.134   4.383  0.0683 -0.2910 -0.7686
   49MOL   Cl94 9790   2.117   8.103   4.529 -0.6098  0.1832 -0.0784
   49MOL    C95 9791   2.310   8.056   4.355 -0.3050 -0.2253 -0.1941
   49MOL    C96 9792   2.392   8.071   4.230 -0.4204 -0.1202 -0.1229
   49MOL    H97 9793   2.137   8.221   4.188  0.0509 -1.4962 -0.1022
   49MOL    H98 9794   2.042   8.251   4.328 -0.5248  0.0570 -0.9294
   49MOL    H99 9795   2.345   7.989   4.432  1.8916  0.0220 -0.9550
   49MOL   H100 9796   2.326   8.117   4.158  0.7117 -0.4253 -1.3698
   49MOL   H101 9797   2.480   8.134   4.241 -0.8726  0.3202  1.1487
   49MOL   C102 9798   2.434   7.933   4.184 -0.1162  0.9656  0.4244
   49MOL   C103 9799   2.506   7.934   4.048  0.3503  0.4852  0.2972
   49MOL  Cl104 9800   2.641   7.825   4.049  0.0672 -0.0203 -0.2458
   49MOL   C105 9801   2.461   8.001   3.940 -0.2390 -0.4547 -0.2049
   49MOL   C106 9802   2.531   8.003   3.809  0.1733 -0.4321  0.4335
   49MOL   H107 9803   2.511   7.893   4.250  0.3969 -3.0988 -2.3917
   49MOL   H108 9804   2.355   7.858   4.190  0.2384  0.4176 -1.2551
   49MOL   H109 9805   2.371   8.059   3.950 -0.7323 -1.1192 -0.7434
   49MOL   H110 9806   2.604   8.085   3.807 -0.2704 -0.0450 -0.5113
   49MOL   H111 9807   2.590   7.912   3.798  1.0265  0.3435 -1.7918
   49MOL   C112 9808   2.438   8.012   3.688  0.3736  0.1765  0.1195
   49MOL   C113 9809   2.506   8.029   3.555  0.4030 -0.7763  0.5479
   49MOL  Cl114 9810   2.591   7.885   3.507 -0.0104  0.2763 -0.0020
   49MOL   C115 9811   2.511   8.137   3.479  0.5458  0.8360  0.2908
   49MOL   C116 9812   2.447   8.276   3.492  0.1695  0.0298  0.4561
   49MOL   H117 9813   2.384   7.918   3.696 -0.1917  0.5023  0.1917
   49MOL   H118 9814   2.355   8.081   3.708 -1.2177 -1.8662  0.7677
   49MOL   H119 9815   2.565   8.120   3.387 -1.4119  1.4300 -1.0057
   49MOL   H120 9816   2.383   8.277   3.581 -0.2828 -1.6278  0.1610
   49MOL   H121 9817   2.380   8.282   3.407  0.6632  2.1808  0.1824
   49MOL   C122 9818   2.542   8.396   3.506  0.5066  0.2427  0.1181
   49MOL   C123 9819   2.600   0.017   3.372  0.4244 -1.0880  0.3625
   49MOL  Cl124 9820   2.766   8.395   3.362 -0.2901  0.2055 -0.1376
   49MOL   C125 9821   2.539   0.072   3.269  0.0248  0.3032  0.0631
   49MOL   C126 9822   2.396   0.104   3.262  0.1502 -0.3797 -0.0587
   49MOL   H127 9823   2.512   0.071   3.548 -0.8720 -0.1967  0.1332
   49MOL   H128 9824   2.620   8.372   3.579  1.3209  2.4299  0.0103
   49MOL   H129 9825   2.599   0.102   3.185 -1.5131  1.1285 -0.7726
   49MOL   H130 9826   2.337   0.091   3.353 -0.2798  1.6058 -0.0172
   49MOL   H131 9827   2.404   0.213   3.259 -0.0468 -0.3205  1.1982
   49MOL   C132 9828   2.326   0.037   3.147 -0.0962  0.3432 -0.2881
   49MOL   C133 9829   2.177   0.044   3.165 -0.6151  0.2513 -0.4014
   49MOL  Cl134 9830   2.118   8.310   3.210 -0.2292  0.3817  0.3780
   49MOL   C135 9831   2.096   0.142   3.132 -0.4885 -0.5450 -0.1032
   49MOL   C136 9832   2.140   0.275   3.082  0.0475  0.3131  0.3134
   49MOL   H137 9833   2.359   0.079   3.052  0.5086  1.6654  0.4937
   49MOL   H138 9834   2.355   8.353   3.156 -0.7309  0.1420 -0.5322
   49MOL   H139 9835   1.989   0.135   3.144 -0.6206 -0.4716 -1.1885
   49MOL   H140 9836   2.116   0.348   3.160 -0.2943  0.0127  0.4898
   49MOL   H141 9837   2.249   0.283   3.080  0.2766 -2.1937  0.9832
   49MOL   C142 9838   2.076   0.303   2.946  0.4240  0.0988 -0.7398
   49MOL   C143 9839   2.064   0.448   2.906  0.7143 -0.0940  0.5039
   49MOL  Cl144 9840   2.173   0.554   2.999  0.2008  0.1644  0.3479
   49MOL   C145 9841   1.982   0.488   2.809  0.1989 -0.2380  0.0725
   49MOL   C146 9842   1.972   0.638   2.756  0.2471 -0.4245 -0.7832
   49MOL   H147 9843   1.971   0.277   2.960 -0.5417  3.6577 -0.8536
   49MOL   H148 9844   2.122   0.242   2.869  1.9774  1.1109 -0.6290
   49MOL   H149 9845   1.915   0.422   2.758  2.0423 -3.5112  1.7367
   49MOL   H150 9846   1.868   0.671   2.761  0.3671 -0.0737 -0.5945
   49MOL   H151 9847   2.030   0.710   2.813 -1.6939  1.0784 -0.6368
   49MOL   C152 9848   2.026   0.660   2.614  0.6221  0.2523 -0.0944
   49MOL   C153 9849   1.964   0.780   2.556  0.5705 -0.3303 -0.2082
   49MOL  Cl154 9850   2.059   0.924   2.594  0.6254 -0.1674  0.3250
   49MOL   C155 9851   1.867   0.782   2.459  0.5156 -0.4195  0.0981
   49MOL   C156 9852   1.822   0.912   2.382  0.2276  0.3317  0.1371
   49MOL   H157 9853   2.135   0.660   2.619  0.5668 -1.8588  2.1394
   49MOL   H158 9854   1.988   0.591   2.539  0.4395  1.0056 -0.6957
   49MOL   H159 9855   1.815   0.692   2.428  0.1749 -1.1272  2.6524
   49MOL   H160 9856   1.868   0.908   2.283 -0.0760 -2.2565  0.0610
   49MOL   H161 9857   1.869   0.996   2.433 -0.8753  0.8532  0.2924
   49MOL   C162 9858   1.671   0.928   2.368 -0.4857 -0.3032  0.3262
   49MOL   C163 9859   1.604   0.812   2.307 -0.2551 -0.2573  0.4794
   49MOL  Cl164 9860   1.654   0.795   2.143 -0.0976 -0.1307 -0.2000
   49MOL   C165 9861   1.514   0.733   2.370  0.2936 -0.4007 -0.3231
   49MOL   C166 9862   1.443   0.618   2.304  0.2033  0.1238  0.7322
   49MOL   H167 9863   1.637   0.968   2.463 -1.1103  1.6010 -0.6801
   49MOL   H168 9864   1.647   1.013   2.304  1.0388 -0.4273 -0.4322
   49MOL   H169 9865   1.486   0.748   2.473  1.6213 -0.0134 -0.0105
   49MOL   H170 9866   1.496   0.590   2.213 -1.4743 -1.1100  0.1168
   49MOL   H171 9867   1.449   0.533   2.372  0.8671  1.1707  2.0076
   49MOL   C172 9868   1.300   0.640   2.257  0.2302  0.0122 -0.4565
   49MOL   C173 9869   1.190   0.612   2.360  0.7292 -0.0173 -0.2449
   49MOL  Cl174 9870   1.047   0.558   2.276 -0.0453  0.0800 -0.0089
   49MOL   C175 9871   1.193   0.628   2.491 -0.2206  0.2302 -0.6526
   49MOL   C176 9872   1.067   0.581   2.583 -0.3648  0.1952  0.1101
   49MOL   H177 9873   1.283   0.573   2.173 -0.1553  0.4820 -0.7594
   49MOL   H178 9874   1.295   0.737   2.208 -1.2930  0.4020  0.4547
   49MOL   H179 9875   1.275   0.659   2.553 -0.1492 -0.0100 -0.6256
   49MOL   H180 9876   1.078   0.476   2.607 -2.0980  0.0521  0.2910
   49MOL   H181 9877   0.976   0.595   2.525  0.0540  3.7699  0.1829
   49MOL   C182 9878   1.053   0.656   2.722 -0.4876  0.6137  0.0568
   49MOL   C183 9879   0.917   0.675   2.788 -0.3398 -0.3842  0.5395
   49MOL  Cl184 9880   0.861   0.527   2.855  0.3597  0.3339  0.0887
   49MOL   C185 9881   0.851   0.793   2.793  0.0591 -0.6664 -0.1356
   49MOL   C186 9882   0.711   0.820   2.856  0.3050  0.2197 -0.1560
   49MOL   H187 9883   1.107   0.608   2.804 -2.7569  0.9079  1.7799
   49MOL   H188 9884   1.087   0.758   2.708  0.4333  0.1240 -1.3787
   49MOL   H189 9885   0.904   0.879   2.755  0.5039 -1.0325 -0.3457
   49MOL   H190 9886   0.652   0.843   2.768  1.5344 -0.1152 -1.0882
   49MOL   H191 9887   0.680   0.733   2.914 -1.4281  2.2061  2.0123
   49MOL   C192 9888   0.709   0.941   2.957  0.4194 -0.6748  0.1252
   49MOL   C193 9889   0.557   0.965   2.987  0.3144 -0.0222 -0.1352
   49MOL  Cl194 9890   0.472   1.041   2.857 -0.1362  0.1804 -0.4146
   49MOL   C195 9891   0.495   0.926   3.097  0.5722 -0.0906  0.4103
   49MOL   C196 9892   0.558   0.849   3.209 -0.6936  0.8139  0.6141
   49MOL   H197 9893   0.751   1.031   2.913 -0.9656  0.4083  0.9863
   49MOL   H198 9894   0.773   0.920   3.043  1.0577 -2.2088 -0.6964
   49MOL   H199 9895   0.390   0.947   3.114  0.7475 -0.0388  1.4499
   49MOL   H200 9896   0.598   0.757   3.169 -4.2360 -1.5147  2.1606
   49MOL   H201 9897   0.485   0.835   3.289 -0.1967 -0.6953  0.8142
   49MOL   H202 9898   0.636   0.910   3.255  2.1691 -1.0976 -1.5883
   50MOL     C1 9899   5.906   1.618   3.938  0.7216  0.0214 -0.7749
   50MOL     C2 9900   6.051   1.662   3.967  0.1180  0.3347  0.1147
   50MOL    Cl3 9901   6.176   1.579   3.877 -0.1307 -0.2712 -0.0573
   50MOL     C4 9902   6.076   1.771   4.035 -0.4493  0.1905  0.2888
   50MOL     C5 9903   5.987   1.862   4.110  0.4418  0.6200  0.5426
   50MOL     H6 9904   5.843   1.696   3.895 -0.4237  0.8491  2.1999
   50MOL     H7 9905   5.856   1.605   4.035 -1.2893  4.3682 -1.1473
   50MOL     H8 9906   6.180   1.800   4.037 -0.1729 -0.7980  0.7615
   50MOL     H9 9907   6.017   1.967   4.106 -0.0572  0.8042  1.5032
   50MOL    H10 9908   5.887   1.846   4.069  0.5404  2.3284 -0.3945
   50MOL    H11 9909   5.912   1.526   3.880 -0.4628 -1.9271  2.0308
   50MOL    C12 9910   5.982   1.827   4.256 -0.5519 -0.0144 -0.3628
   50MOL    C13 9911   6.107   1.866   4.328  0.0264  0.0222 -1.1946
   50MOL   Cl14 9912   6.100   2.035   4.368 -0.1162 -0.1170 -0.1708
   50MOL    C15 9913   6.204   1.788   4.370 -0.5770 -0.4091  0.1738
   50MOL    C16 9914   6.208   1.637   4.361  0.6325  0.6717 -0.0259
   50MOL    H17 9915   5.896   1.887   4.289 -1.4149 -0.4765 -1.7116
   50MOL    H18 9916   5.954   1.724   4.276  0.8836  0.0655  2.2401
   50MOL    H19 9917   6.292   1.840   4.405  0.4671 -2.3032  0.4122
   50MOL    H20 9918   6.223   1.600   4.462 -0.0888 -2.0325 -0.8589
   50MOL    H21 9919   6.111   1.590   4.343  0.4517  0.2924  1.9091
   50MOL    C22 9920   6.316   1.586   4.262  0.6431 -0.8540  0.2231
   50MOL    C23 9921   6.374   1.450   4.292 -0.7738 -0.3122  0.8636
   50MOL   Cl24 9922   6.511   1.467   4.393  0.0877 -0.4648 -0.1486
   50MOL    C25 9923   6.329   1.331   4.238 -1.0704 -0.4435 -0.2086
   50MOL    C26 9924   6.374   1.181   4.268  0.9077  0.8922  0.2094
   50MOL    H27 9925   6.273   1.603   4.163 -1.7583  0.9510  1.5289
   50MOL    H28 9926   6.400   1.654   4.271 -0.5980  0.4021  2.8096
   50MOL    H29 9927   6.248   1.341   4.168  0.5951 -1.2110 -2.3203
   50MOL    H30 9928   6.467   1.195   4.322  1.5262 -0.1400 -0.5916
   50MOL    H31 9929   6.300   1.140   4.338  1.7643  0.8791  1.1141
   50MOL    C32 9930   6.388   1.086   4.142 -0.1931  0.0417 -0.3893
   50MOL    C33 9931   6.273   1.090   4.044  0.6351  0.0974 -0.0742
   50MOL   Cl34 9932   6.327   1.088   3.880 -0.0212  0.2224 -0.2665
   50MOL    C35 9933   6.142   1.093   4.069  0.1944 -0.4381 -0.4254
   50MOL    C36 9934   6.030   1.081   3.968  0.0797 -0.1655  0.4479
   50MOL    H37 9935   6.481   1.110   4.091 -0.5289  1.2521 -0.4567
   50MOL    H38 9936   6.414   0.984   4.170 -1.4552 -0.1450  0.1515
   50MOL    H39 9937   6.114   1.092   4.173 -1.3025  1.5527 -0.7952
   50MOL    H40 9938   6.084   1.070   3.873  0.3137 -0.8117  0.6541
   50MOL    H41 9939   5.968   0.999   4.002 -0.2581  0.6002  1.7077
   50MOL    C42 9940   5.952   1.211   3.952  0.3996  0.2460  0.2929
   50MOL    C43 9941   5.882   1.251   4.084  0.2379 -0.8036 -0.0027
   50MOL   Cl44 9942   5.966   1.372   4.173 -0.2619 -0.6400  0.5062
   50MOL    C45 9943   5.757   1.217   4.113  0.0690 -0.5014  0.3592
   50MOL    C46 9944   5.665   1.122   4.039 -0.1136  0.0052  1.0858
   50MOL    H47 9945   6.011   1.299   3.925  1.2512 -0.4976 -0.2959
   50MOL    H48 9946   5.880   1.197   3.871  1.5830 -3.4915 -0.2032
   50MOL    H49 9947   5.716   1.254   4.207 -0.2315 -1.9401  0.8066
   50MOL    H50 9948   5.714   1.074   3.954  0.2490  1.0321  0.7071
   50MOL    H51 9949   5.628   1.046   4.109  0.4991 -1.0307  0.3126
   50MOL    C52 9950   5.553   1.209   3.980 -0.5178 -0.2273 -0.5032
   50MOL    C53 9951   5.453   1.129   3.902 -0.1173  0.1786  0.6062
   50MOL   Cl54 9952   5.515   1.051   3.758 -0.2732  0.0386  0.4482
   50MOL    C55 9953   5.328   1.111   3.944  0.4144  0.6322  0.3491
   50MOL    C56 9954   5.232   1.013   3.884  0.1880  0.5402 -0.5255
   50MOL    H57 9955   5.492   1.260   4.054 -1.0833 -0.5686 -0.7290
   50MOL    H58 9956   5.584   1.278   3.901 -0.8497 -0.5683 -0.9384
   50MOL    H59 9957   5.282   1.163   4.026 -2.0296 -1.2282  0.2124
   50MOL    H60 9958   5.275   0.964   3.797 -0.8849  0.3003 -0.9238
   50MOL    H61 9959   5.218   0.930   3.952  0.7484 -0.0219 -1.0882
   50MOL    C62 9960   5.089   1.069   3.849  0.2523 -0.4171  0.8415
   50MOL    C63 9961   5.009   0.965   3.781 -0.0781  0.2012 -0.7817
   50MOL   Cl64 9962   4.864   0.932   3.859  0.1057 -0.0785  0.2615
   50MOL    C65 9963   5.045   0.901   3.670  0.0285  0.0889 -0.4917
   50MOL    C66 9964   4.977   0.786   3.602 -0.5213 -0.3286 -0.5237
   50MOL    H67 9965   5.045   1.105   3.942 -2.3049 -0.9192 -0.1575
   50MOL    H68 9966   5.101   1.158   3.786 -0.7100 -0.4910  0.5502
   50MOL    H69 9967   5.129   0.937   3.613  0.3691 -1.6229 -1.0830
   50MOL    H70 9968   4.891   0.768   3.667 -0.9668  0.1993 -0.9653
   50MOL    H71 9969   5.047   0.703   3.613 -0.3684 -0.1954 -0.5087
   50MOL    C72 9970   4.953   0.817   3.452 -0.0002 -0.0572 -0.3146
   50MOL    C73 9971   4.885   0.702   3.383 -0.3530  0.3347  0.0570
   50MOL   Cl74 9972   4.717   0.673   3.413 -0.1063  0.3436  0.0281
   50MOL    C75 9973   4.944   0.631   3.286  0.2500  0.3419 -0.4105
   50MOL    C76 9974   4.884   0.512   3.212  0.5019  0.4116  0.1910
   50MOL    H77 9975   5.049   0.837   3.405  0.6816  0.7979  1.4166
   50MOL    H78 9976   4.904   0.913   3.434 -1.2341 -0.5231  0.4545
   50MOL    H79 9977   5.048   0.655   3.267  0.9766 -0.5911  2.0493
   50MOL    H80 9978   4.822   0.560   3.137 -1.0473 -0.7570  0.7042
   50MOL    H81 9979   4.816   0.451   3.271  0.7230  0.5267  0.5647
   50MOL    C82 9980   4.994   0.435   3.138  0.5267  0.5790  0.1749
   50MOL    C83 9981   4.948   0.318   3.053 -0.0115 -0.8974  0.9018
   50MOL   Cl84 9982   4.847   0.205   3.141 -0.1450  0.2388 -0.2138
   50MOL    C85 9983   4.996   0.297   2.928 -0.1311  0.7172  0.5664
   50MOL    C86 9984   4.961   0.172   2.846  0.3392 -0.0189 -0.4867
   50MOL    H87 9985   5.063   0.406   3.217  0.6794 -2.2686 -0.9515
   50MOL    H88 9986   5.058   0.506   3.084  1.1076  1.8749  2.5000
   50MOL    H89 9987   5.064   0.370   2.886  0.9080 -0.1329  0.7634
   50MOL    H90 9988   4.902   0.102   2.905 -0.3453 -0.9197 -2.2105
   50MOL    H91 9989   4.899   0.211   2.765 -0.8977 -0.2799  0.3181
   50MOL    C92 9990   5.086   0.106   2.791 -0.2347  0.1069  0.3900
   50MOL    C93 9991   5.064   8.391   2.721 -0.4478  0.0557 -0.0599
   50MOL   Cl94 9992   5.020   8.421   2.555  0.3084 -0.3563 -0.1581
   50MOL    C95 9993   5.055   8.265   2.773  0.0861 -0.1526  0.3154
   50MOL    C96 9994   5.084   8.233   2.919  0.1233 -0.1665 -0.0310
   50MOL    H97 9995   5.155   0.091   2.874  2.0578  0.7593 -1.3614
   50MOL    H98 9996   5.142   0.167   2.721  0.2366  0.3960  1.0207
   50MOL    H99 9997   5.030   8.183   2.708 -1.0429  1.8254 -1.8274
   50MOL   H100 9998   5.177   8.177   2.927  0.3967  0.1868 -0.6861
   50MOL   H101 9999   5.099   8.317   2.987  3.1129 -0.3606 -0.4114
   50MOL   C10210000   4.962   8.156   2.980  0.1642 -0.2210 -0.3996
   50MOL   C10310001   4.982   8.118   3.125  0.0686  0.3176  0.2305
   50MOL  Cl10410002   5.045   7.956   3.146  0.2507  0.3359  0.0834
   50MOL   C10510003   4.965   8.205   3.227 -0.5400 -0.3517  0.1920
   50MOL   C10610004   4.998   8.175   3.372 -0.4959  0.2149 -0.9834
   50MOL   H10710005   4.875   8.220   2.962 -1.1583 -1.7526  0.4351
   50MOL   H10810006   4.945   8.059   2.933  1.0391 -1.1290  1.1124
   50MOL   H10910007   4.918   8.300   3.207 -0.7843 -0.2816  1.1001
   50MOL   H11010008   4.909   8.122   3.406 -1.3624  0.4896 -2.7948
   50MOL   H11110009   5.079   8.102   3.378  2.5288  3.4290 -1.1199
   50MOL   C11210010   5.028   8.300   3.460  0.0510 -0.0096  0.2736
   50MOL   C11310011   5.164   8.363   3.436 -0.5743 -0.2972 -0.5498
   50MOL  Cl11410012   5.148   0.068   3.322 -0.0059 -0.3330  0.1895
   50MOL   C11510013   5.284   8.326   3.487  0.5136  0.1677  0.0238
   50MOL   C11610014   5.300   8.202   3.584  0.0596  0.6194 -0.3457
   50MOL   H11710015   4.960   8.384   3.444 -0.0947  0.1789  1.7964
   50MOL   H11810016   5.015   8.261   3.561  1.5735 -2.2221 -0.3435
   50MOL   H11910017   5.376   8.370   3.454 -0.4486  0.5063 -2.3583
   50MOL   H12010018   5.252   8.116   3.537  0.9145  0.1139 -0.3104
   50MOL   H12110019   5.230   8.228   3.663 -2.5432 -0.3281 -2.2513
   50MOL   C12210020   5.437   8.172   3.634 -0.0376  0.1091  0.1036
   50MOL   C12310021   5.425   8.114   3.770  0.3614  0.4788 -0.4928
   50MOL  Cl12410022   5.451   7.944   3.760  0.2337 -0.2817 -0.1305
   50MOL   C12510023   5.388   8.168   3.887  0.0412  0.1067  0.5166
   50MOL   C12610024   5.368   8.317   3.907 -0.4540  0.0162  0.3647
   50MOL   H12710025   5.487   8.112   3.559  0.1409 -0.1601  0.4356
   50MOL   H12810026   5.484   8.270   3.641  0.1212  0.0203  0.3005
   50MOL   H12910027   5.376   8.108   3.976  1.7884 -0.1013  0.6221
   50MOL   H13010028   5.440   8.357   3.979  0.4717  0.6700 -0.8986
   50MOL   H13110029   5.382   8.366   3.810  0.4474  0.1981  0.5790
   50MOL   C13210030   5.220   8.343   3.955 -0.2009 -0.2494 -0.9194
   50MOL   C13310031   5.188   0.066   3.978 -0.1816  0.2466  0.8012
   50MOL  Cl13410032   5.125   0.123   3.824 -0.0394 -0.2256 -0.4221
   50MOL   C13510033   5.203   0.145   4.086 -0.1307 -0.2718 -1.1752
   50MOL   C13610034   5.255   0.093   4.216 -0.8214 -0.7108  0.2253
   50MOL   H13710035   5.160   8.307   3.872  1.3335 -2.8968 -0.9363
   50MOL   H13810036   5.197   8.288   4.046  0.8033  0.3784 -0.2692
   50MOL   H13910037   5.178   0.250   4.072  1.8716  0.3817 -0.1288
   50MOL   H14010038   5.185   0.111   4.298 -0.4896  1.3750  0.0920
   50MOL   H14110039   5.291   8.412   4.217  0.3571 -0.2954  1.6978
   50MOL   C14210040   5.385   0.165   4.260  0.4518 -0.1657  0.4508
   50MOL   C14310041   5.455   0.107   4.380 -0.1454  0.7345  0.1226
   50MOL  Cl14410042   5.453   0.207   4.521 -0.3059 -0.2138 -0.0262
   50MOL   C14510043   5.538   8.416   4.376  0.8012 -0.4136  0.8025
   50MOL   C14610044   5.645   8.371   4.465  0.7558 -0.4591 -0.7058
   50MOL   H14710045   5.364   0.266   4.296 -0.1243  0.7575 -2.3575
   50MOL   H14810046   5.455   0.163   4.177 -1.1190  1.4676 -0.9610
   50MOL   H14910047   5.533   8.355   4.287 -0.3968  2.2398 -1.0105
   50MOL   H15010048   5.727   8.332   4.405  0.4671 -1.3939 -0.5014
   50MOL   H15110049   5.691   0.030   4.523  1.0201 -0.8892 -0.3238
   50MOL   C15210050   5.600   8.271   4.571  0.5452  0.5662  0.4215
   50MOL   C15310051   5.534   8.315   4.694  0.3045 -0.5973  0.4304
   50MOL  Cl15410052   5.647   8.404   4.791  0.3302  0.0934  0.4739
   50MOL   C15510053   5.410   8.289   4.737  0.7286  0.0530  0.5095
   50MOL   C15610054   5.356   8.329   4.876 -0.2330  0.4750  0.0084
   50MOL   H15710055   5.547   8.188   4.524 -0.6153  2.6696 -2.0941
   50MOL   H15810056   5.690   8.213   4.592 -0.8592 -2.2365 -1.0102
   50MOL   H15910057   5.351   8.238   4.662 -1.0340  0.5731  1.5185
   50MOL   H16010058   5.435   8.388   4.923  0.8777 -0.9714 -0.0202
   50MOL   H16110059   5.328   8.237   4.927  0.2487  1.3346  1.9028
   50MOL   C16210060   5.228   8.408   4.873 -0.0396  0.3416  0.0399
   50MOL   C16310061   5.179   0.033   5.007 -0.4419 -0.1966  0.0320
   50MOL  Cl16410062   5.127   8.322   5.103  0.1166 -0.4181 -0.6492
   50MOL   C16510063   5.179   0.163   5.047 -1.1161  0.4099 -0.4521
   50MOL   C16610064   5.134   0.215   5.177 -0.6052  0.0452 -0.0310
   50MOL   H16710065   5.239   0.069   4.801  0.8855  1.4947  1.4698
   50MOL   H16810066   5.155   8.341   4.827  2.5136 -1.0910 -2.1226
   50MOL   H16910067   5.223   0.229   4.973  1.0066 -0.1390  0.2796
   50MOL   H17010068   5.141   0.139   5.254  0.4728 -1.1030 -1.2364
   50MOL   H17110069   5.204   0.291   5.212 -0.6024  0.1572 -0.2726
   50MOL   C17210070   4.994   0.274   5.167 -0.1897  0.4292  0.1004
   50MOL   C17310071   4.877   0.191   5.116  0.4340 -0.5659  0.1510
   50MOL  Cl17410072   4.819   0.255   4.965  0.0783  0.3230  0.5578
   50MOL   C17510073   4.842   0.061   5.156 -1.0306  0.2098 -0.7205
   50MOL   C17610074   4.737   8.398   5.088 -0.2200 -0.3918  0.2092
   50MOL   H17710075   5.000   0.366   5.109 -1.4645  2.3599  2.8951
   50MOL   H17810076   4.955   0.306   5.264 -4.6374 -0.2009 -1.3405
   50MOL   H17910077   4.893   0.002   5.230 -2.0442  1.5818  1.1093
   50MOL   H18010078   4.802   8.324   5.042  0.1648 -0.5711  1.0221
   50MOL   H18110079   4.697   0.035   5.004  0.2210 -1.0973 -0.4922
   50MOL   C18210080   4.648   8.333   5.187  0.3582  0.9240  0.4329
   50MOL   C18310081   4.559   8.228   5.119 -0.0137  0.6204  0.6930
   50MOL  Cl18410082   4.620   8.063   5.130 -0.4240 -0.2213  0.0594
   50MOL   C18510083   4.447   8.265   5.049  0.5710 -0.3233  0.4485
   50MOL   C18610084   4.358   8.173   4.975  0.1596  0.8168 -0.2063
   50MOL   H18710085   4.707   8.287   5.267  0.2738  1.0085  0.5445
   50MOL   H18810086   4.586   8.397   5.250  1.5940  1.4243  1.1360
   50MOL   H18910087   4.417   8.369   5.049  0.6592 -0.2681  2.7577
   50MOL   H19010088   4.330   8.211   4.877  1.2129  1.3963 -0.2864
   50MOL   H19110089   4.403   8.074   4.967 -0.1618  0.7466 -1.2207
   50MOL   C19210090   4.232   8.148   5.058 -0.2933 -0.4682 -0.5496
   50MOL   C19310091   4.137   8.040   4.999 -0.3382  0.1322 -0.1342
   50MOL  Cl19410092   4.001   8.112   4.911 -0.1572 -0.5099 -0.0068
   50MOL   C19510093   4.160   7.904   5.014  0.1861 -0.0341  0.4073
   50MOL   C19610094   4.288   7.843   5.067  0.3258 -0.3175 -0.5505
   50MOL   H19710095   4.177   8.241   5.075  1.1748  0.4732 -0.8098
   50MOL   H19810096   4.259   8.128   5.162  0.3065 -1.1221 -0.8303
   50MOL   H19910097   4.086   7.835   4.974  3.0808 -2.2579 -1.3039
   50MOL   H20010098   4.341   7.799   4.983  3.0149  1.3782  0.1969
   50MOL   H20110099   4.266   7.766   5.140 -0.8915 -1.0374 -1.6515
   50MOL   H20210100   4.367   7.903   5.111 -1.3780  1.6313 -0.0803
   51MOL     C110101   7.452   5.963   1.106 -0.2571 -0.8521 -0.3969
   51MOL     C210102   7.482   6.020   0.972 -0.1274 -0.5082 -0.3001
   51MOL    Cl310103   7.647   6.051   0.964  0.0502  0.1324  0.0531
   51MOL     C410104   7.398   6.046   0.871 -0.1573  0.0894  0.1827
   51MOL     C510105   7.243   6.045   0.886 -0.6188 -0.0349 -0.0533
   51MOL     H610106   7.373   6.018   1.157  0.8441 -0.4228  0.8628
   51MOL     H710107   7.530   5.963   1.181  1.6320  0.1525 -2.3243
   51MOL     H810108   7.451   6.075   0.782  1.3570 -1.5964  0.5051
   51MOL     H910109   7.214   6.011   0.786 -0.2542  2.3345 -1.0016
   51MOL    H1010110   7.202   5.980   0.964 -0.7041 -0.4553 -0.4456
   51MOL    H1110111   7.415   5.860   1.098 -0.4341 -0.5379 -5.0339
   51MOL    C1210112   7.187   6.190   0.919  0.5962 -0.0446  0.0509
   51MOL    C1310113   7.180   6.215   1.069 -0.0157  0.8636  0.0384
   51MOL   Cl1410114   7.029   6.142   1.130 -0.2522 -0.3775  0.0815
   51MOL    C1510115   7.260   6.286   1.145 -0.4292 -0.2442  0.6549
   51MOL    C1610116   7.385   6.370   1.093  0.9383  0.3514 -0.0314
   51MOL    H1710117   7.253   6.261   0.868 -0.7130  2.3541  1.6017
   51MOL    H1810118   7.090   6.224   0.883  0.9486  0.5931 -0.3008
   51MOL    H1910119   7.234   6.291   1.250 -2.0505  0.6617  0.2178
   51MOL    H2010120   7.427   6.326   1.003  0.6757  0.1828 -0.0692
   51MOL    H2110121   7.344   6.466   1.061 -0.9196 -0.1083  0.9037
   51MOL    C2210122   7.501   6.376   1.191  0.4718  0.6303 -0.6763
   51MOL    C2310123   7.584   6.498   1.177  0.1940 -0.4887  0.3133
   51MOL   Cl2410124   7.743   6.456   1.140  0.3002 -0.0744  0.3441
   51MOL    C2510125   7.541   6.622   1.198  0.0319 -0.2774  0.1492
   51MOL    C2610126   7.625   6.751   1.185 -0.3620 -0.1097  0.1811
   51MOL    H2710127   7.463   6.374   1.293 -0.1866 -1.1449 -0.9513
   51MOL    H2810128   7.567   6.290   1.187  0.4887  0.4749  2.0779
   51MOL    H2910129   7.438   6.638   1.228 -0.3901  1.1659 -1.9380
   51MOL    H3010130   7.723   6.720   1.150 -1.3591 -1.2550 -1.7235
   51MOL    H3110131   7.579   6.817   1.111 -0.3139  1.0921  1.2113
   51MOL    C3210132   7.649   6.831   1.311  0.6778 -0.5338 -0.0008
   51MOL    C3310133   7.713   6.962   1.283 -0.1162  0.1759 -0.4205
   51MOL   Cl3410134   7.650   7.086   1.386 -0.0832 -0.0869 -0.2391
   51MOL    C3510135   7.803   6.987   1.190  0.1904 -1.0235  0.4285
   51MOL    C3610136   7.873   7.115   1.158  0.3567 -0.0435  0.0230
   51MOL    H3710137   7.559   6.832   1.372  0.2792 -2.2351 -0.5331
   51MOL    H3810138   7.719   6.770   1.369 -0.5333 -0.2167  1.8465
   51MOL    H3910139   7.821   6.904   1.123 -1.5948 -0.5325 -0.6810
   51MOL    H4010140   7.838   7.140   1.058 -1.0797  0.8034  0.7417
   51MOL    H4110141   7.833   7.193   1.222  0.4429  0.0547 -0.0425
   51MOL    C4210142   8.027   7.097   1.158 -0.4173 -0.0788  1.0213
   51MOL    C4310143   8.096   7.201   1.068 -0.2478  0.0822 -0.1887
   51MOL   Cl4410144   8.130   7.142   0.911 -0.2271 -0.3625 -0.2155
   51MOL    C4510145   8.126   7.324   1.106  0.6354 -0.7757 -0.3402
   51MOL    C4610146   8.085   7.382   1.241  0.2282 -0.3210  0.7644
   51MOL    H4710147   8.066   7.090   1.259  1.7984 -1.2247  0.1408
   51MOL    H4810148   8.049   6.999   1.116  1.2861  0.9608 -0.6402
   51MOL    H4910149   8.185   7.387   1.040  0.9718 -0.2012  0.5094
   51MOL    H5010150   8.040   7.476   1.210  0.4792  0.0211  1.4291
   51MOL    H5110151   8.002   7.328   1.286 -0.3473 -0.8461 -0.8860
   51MOL    C5210152   8.204   7.391   1.332 -0.2794  0.5839  0.1193
   51MOL    C5310153   8.167   7.482   1.449  0.1255 -0.4506  0.3202
   51MOL   Cl5410154   8.101   7.400   1.579  0.3812  0.1352  0.1978
   51MOL    C5510155   8.183   7.617   1.455 -0.2020  0.2392  0.2396
   51MOL    C5610156   8.156   7.708   1.581 -0.6200  0.6589 -0.6015
   51MOL    H5710157   8.232   7.293   1.371  0.1143 -0.7855 -3.4651
   51MOL    H5810158   8.293   7.429   1.283 -0.9050  0.2775 -1.2735
   51MOL    H5910159   8.226   7.663   1.367  0.9498 -0.0140  0.6702
   51MOL    H6010160   8.073   7.662   1.635 -0.0661 -0.0650 -0.3540
   51MOL    H6110161   8.244   7.719   1.644 -0.5036 -0.1740 -0.6032
   51MOL    C6210162   8.115   7.853   1.543  0.3844 -0.5095 -0.1906
   51MOL    C6310163   8.125   7.963   1.641 -0.5197  0.1016 -0.4798
   51MOL   Cl6410164   8.154   8.114   1.563 -0.4255  0.4735 -0.0431
   51MOL    C6510165   8.135   7.946   1.775  0.7784 -0.5993  0.2878
   51MOL    C6610166   8.158   8.050   1.876 -0.1301  0.0902  0.5836
   51MOL    H6710167   8.173   7.877   1.453  2.2880  0.7270  1.3331
   51MOL    H6810168   8.009   7.853   1.517  0.4622 -0.5732 -0.5179
   51MOL    H6910169   8.127   7.845   1.813  2.2766  0.0255  2.3356
   51MOL    H7010170   8.090   8.024   1.957 -1.2997  0.9110 -0.1211
   51MOL    H7110171   8.122   8.147   1.842 -0.0159  0.3672  1.2440
   51MOL    C7210172   8.300   8.055   1.927 -0.2260 -0.2665 -0.0480
   51MOL    C7310173   8.324   8.151   2.037 -0.0074 -0.0311  0.3379
   51MOL   Cl7410174   8.333   8.310   1.984  0.0277  0.2647 -0.0167
   51MOL    C7510175   8.348   8.111   2.167  0.4026 -0.1655 -0.1880
   51MOL    C7610176   8.387   8.205   2.276 -0.3998  0.1229  0.3639
   51MOL    H7710177   8.360   8.079   1.839 -2.6444 -2.7781 -2.4718
   51MOL    H7810178   8.321   7.953   1.958 -2.0263 -0.9061 -0.8750
   51MOL    H7910179   8.343   8.005   2.186 -1.2216  0.1459  1.2729
   51MOL    H8010180   8.405   8.307   2.241  0.1023 -0.6443 -1.6751
   51MOL    H8110181   0.058   8.161   2.314 -1.6893 -1.1364  2.0679
   51MOL    C8210182   8.270   8.221   2.376  0.5780 -0.4609 -0.3506
   51MOL    C8310183   8.309   8.328   2.482 -0.4210  0.3439  0.6967
   51MOL   Cl8410184   8.231   0.057   2.453  0.2658  0.4222  0.3668
   51MOL    C8510185   8.387   8.314   2.586 -0.5563  0.1761  0.5574
   51MOL    C8610186   0.001   8.421   2.687  0.5774  0.0890 -0.1456
   51MOL    H8710187   8.235   8.133   2.430  1.4806 -0.9905 -0.6205
   51MOL    H8810188   8.181   8.263   2.329 -0.1938 -0.5270  1.0316
   51MOL    H8910189   0.018   8.221   2.607 -0.8063 -0.3436 -1.0654
   51MOL    H9010190   8.343   0.074   2.691  2.0369  1.6510  0.4508
   51MOL    H9110191   0.012   8.356   2.774 -0.6815  0.1307  0.0536
   51MOL    C9210192   0.132   0.067   2.659  0.5571 -0.5706  0.5250
   51MOL    C9310193   0.171   0.167   2.773  0.2650 -0.2094  0.5829
   51MOL   Cl9410194   0.284   0.095   2.878  0.0612  0.0939  0.0269
   51MOL    C9510195   0.136   0.293   2.789  0.1784  0.3326 -0.7005
   51MOL    C9610196   0.047   0.368   2.686  0.2998 -0.9019 -0.1266
   51MOL    H9710197   0.128   0.105   2.556  2.8684 -0.0392  0.5899
   51MOL    H9810198   0.210   8.412   2.660  1.4107  0.3013  2.0331
   51MOL    H9910199   0.171   0.337   2.882 -0.9319 -1.4168  0.5767
   51MOL   H10010200   0.108   0.445   2.639  0.5514  0.4083  2.2619
   51MOL   H10110201   8.417   0.302   2.616 -1.2143  1.3624 -1.2117
   51MOL   C10210202   8.354   0.443   2.754 -0.1459  0.0679 -0.4254
   51MOL   C10310203   8.260   0.507   2.655  0.3388 -0.0888 -0.7117
   51MOL  Cl10410204   8.310   0.672   2.612 -0.1831 -0.0598 -0.0159
   51MOL   C10510205   8.144   0.450   2.604 -0.4910 -0.1639 -0.1488
   51MOL   C10610206   8.038   0.506   2.505 -0.0460  0.1188 -0.3910
   51MOL   H10710207   8.292   0.378   2.816 -0.3702  0.5949 -0.0915
   51MOL   H10810208   8.394   0.527   2.810  0.3777 -2.4677  3.1827
   51MOL   H10910209   8.125   0.349   2.637 -0.6051 -0.4033 -0.9394
   51MOL   H11010210   8.035   0.615   2.501 -1.7890  0.1297  0.7213
   51MOL   H11110211   8.064   0.470   2.405  0.9486  1.2658 -0.5474
   51MOL   C11210212   7.901   0.449   2.536 -0.0055  0.3904  0.8636
   51MOL   C11310213   7.845   0.489   2.672  0.0126  0.2959  0.0563
   51MOL  Cl11410214   7.841   0.356   2.783  0.4433 -0.0884  0.0280
   51MOL   C11510215   7.791   0.604   2.719  0.0756  0.3702  0.0497
   51MOL   C11610216   7.782   0.724   2.632 -0.4581  0.2298 -0.2581
   51MOL   H11710217   7.831   0.494   2.465  0.6011  2.7529  1.6963
   51MOL   H11810218   7.891   0.342   2.521 -1.6768  0.8188 -1.3640
   51MOL   H11910219   7.752   0.619   2.819 -0.6023  1.8514 -0.4187
   51MOL   H12010220   7.678   0.745   2.607 -0.0003 -0.6030 -3.0116
   51MOL   H12110221   7.838   0.715   2.539  1.7855  1.2652  0.9718
   51MOL   C12210222   7.828   0.847   2.707 -0.1765 -0.7579  0.2302
   51MOL   C12310223   7.975   0.874   2.706 -0.1476  1.1494  0.2810
   51MOL  Cl12410224   8.046   0.824   2.858 -0.0745  0.2120 -0.1587
   51MOL   C12510225   8.050   0.917   2.598  0.2398  0.0552 -0.0018
   51MOL   C12610226   8.010   0.965   2.456  0.6655 -0.2038  0.1198
   51MOL   H12710227   7.775   0.934   2.667 -0.2162 -1.3747 -1.0735
   51MOL   H12810228   7.794   0.845   2.811 -0.2948 -0.4248  0.2015
   51MOL   H12910229   8.155   0.906   2.620  0.1733  1.5848  1.1557
   51MOL   H13010230   7.902   0.949   2.455  0.9025 -1.8785 -1.0286
   51MOL   H13110231   8.023   1.073   2.462  0.7579 -0.1308 -1.1687
   51MOL   C13210232   8.088   0.904   2.345  0.6550 -0.1320 -0.3136
   51MOL   C13310233   8.034   0.943   2.209 -0.0219  0.4115  0.4708
   51MOL  Cl13410234   8.145   1.045   2.119 -0.3816  0.2854  0.0422
   51MOL   C13510235   7.911   0.933   2.166  0.0960  0.3453  0.4587
   51MOL   C13610236   7.804   0.841   2.229 -0.0567 -0.4692 -0.1730
   51MOL   H13710237   8.193   0.934   2.355  0.6211 -0.4556  1.1104
   51MOL   H13810238   8.085   0.795   2.356  1.2240  0.0200  1.6643
   51MOL   H13910239   7.889   0.988   2.075 -0.6111 -0.0988  0.3577
   51MOL   H14010240   7.856   0.788   2.309  0.7401  1.2084  0.4374
   51MOL   H14110241   7.725   0.905   2.269  0.3728 -2.1807  3.6248
   51MOL   C14210242   7.750   0.741   2.126 -0.0693  0.3144 -0.4491
   51MOL   C14310243   7.647   0.637   2.179  0.5022 -0.5101 -0.2616
   51MOL  Cl14410244   7.629   0.505   2.070 -0.2066  0.1559  0.2287
   51MOL   C14510245   7.588   0.648   2.300  0.4641  0.2855  0.2434
   51MOL   C14610246   7.495   0.547   2.374 -0.2099  0.6921 -0.1824
   51MOL   H14710247   7.838   0.698   2.078  1.5101  1.6493  1.1424
   51MOL   H14810248   7.694   0.797   2.051  0.8557  0.2611 -1.1965
   51MOL   H14910249   7.600   0.727   2.372 -0.1369  0.7811 -0.1978
   51MOL   H15010250   7.502   0.443   2.340  0.3486  0.6475  0.0561
   51MOL   H15110251   7.522   0.545   2.480 -0.6861 -1.0238 -0.0723
   51MOL   C15210252   7.348   0.591   2.362 -0.3486 -0.2007  0.8484
   51MOL   C15310253   7.293   0.601   2.223 -0.3413 -0.0160  0.6210
   51MOL  Cl15410254   7.226   0.448   2.174 -0.0245 -0.0669 -0.0710
   51MOL   C15510255   7.286   0.709   2.142 -0.3169  0.1842 -0.3433
   51MOL   C15610256   7.221   0.709   2.004  0.0599 -0.2232  0.1771
   51MOL   H15710257   7.289   0.519   2.419 -0.2152 -1.9579 -1.1607
   51MOL   H15810258   7.303   0.680   2.405 -1.7412 -0.6827  0.4221
   51MOL   H15910259   7.328   0.799   2.185  1.0126 -0.6069  0.0639
   51MOL   H16010260   7.164   0.621   1.974 -0.6159  1.4247 -3.8241
   51MOL   H16110261   7.306   0.705   1.936  1.1656  1.3985  1.4333
   51MOL   C16210262   7.140   0.842   1.967 -0.1223  0.5471  0.0832
   51MOL   C16310263   7.109   0.857   1.815  0.2026 -0.4154  0.3939
   51MOL  Cl16410264   7.250   0.883   1.717  0.1199 -0.1793 -0.0156
   51MOL   C16510265   6.989   0.856   1.762 -0.7754 -0.0734 -0.9735
   51MOL   C16610266   6.962   0.874   1.613  0.1402  0.5679 -1.3834
   51MOL   H16710267   7.044   0.840   2.019 -2.6472  3.1160 -4.2249
   51MOL   H16810268   7.188   0.935   1.995  3.0550 -0.6957 -1.0002
   51MOL   H16910269   6.903   0.832   1.823 -0.9042 -2.1624 -1.9434
   51MOL   H17010270   7.034   0.806   1.566  1.8659  1.1364  0.3649
   51MOL   H17110271   6.863   0.833   1.595  0.6798 -1.2991 -0.2881
   51MOL   C17210272   6.972   1.023   1.572 -0.1491 -0.2876 -0.3330
   51MOL   C17310273   6.927   1.059   1.436 -1.0456 -1.1046  0.1607
   51MOL  Cl17410274   6.838   1.209   1.429 -0.0242  0.4166 -0.1703
   51MOL   C17510275   6.974   0.986   1.334  0.5990 -1.0444 -0.1769
   51MOL   C17610276   6.940   1.018   1.190 -0.1957  0.0318 -0.5686
   51MOL   H17710277   7.076   1.053   1.583 -0.3690  0.6749 -0.8273
   51MOL   H17810278   6.904   1.079   1.636  0.4785 -1.8289  1.7551
   51MOL   H17910279   7.034   0.903   1.368 -0.8359 -2.7646 -1.7553
   51MOL   H18010280   7.028   1.074   1.160  0.8425 -1.2484  0.0439
   51MOL   H18110281   6.853   1.083   1.188 -0.7850 -0.7467 -0.4501
   51MOL   C18210282   6.911   0.904   1.095 -0.0189 -0.2724  0.5585
   51MOL   C18310283   6.818   0.796   1.157 -0.1648 -0.1378  0.4434
   51MOL  Cl18410284   6.899   0.647   1.136  0.0992 -0.0100 -0.0054
   51MOL   C18510285   6.695   0.823   1.212  0.4291 -0.3175  0.2782
   51MOL   C18610286   6.608   0.724   1.284 -0.4672 -0.1053 -0.4188
   51MOL   H18710287   6.864   0.940   1.003  1.2312 -1.8297 -0.7026
   51MOL   H18810288   7.008   0.859   1.074  0.2632  0.6980 -0.2422
   51MOL   H18910289   6.653   0.922   1.216  0.3351 -0.1530 -2.9798
   51MOL   H19010290   6.507   0.736   1.244 -1.0876 -0.1116  1.0791
   51MOL   H19110291   6.645   0.626   1.256 -1.8895 -0.2973 -1.7163
   51MOL   C19210292   6.602   0.735   1.435  0.1366  0.7942 -0.2883
   51MOL   C19310293   6.503   0.634   1.490 -0.6939 -0.8400  0.2098
   51MOL  Cl19410294   6.560   0.468   1.488  0.0517 -0.2162 -0.1109
   51MOL   C19510295   6.382   0.669   1.543  0.6201  0.5480  0.2706
   51MOL   C19610296   6.316   0.801   1.541  0.0121 -0.3648 -0.3757
   51MOL   H19710297   6.576   0.836   1.468 -0.6076  0.9174 -1.2345
   51MOL   H19810298   6.698   0.715   1.483 -0.0520  0.8461  0.1196
   51MOL   H19910299   6.313   0.601   1.591 -0.3423 -0.0648 -1.8800
   51MOL   H20010300   6.272   0.826   1.638  2.2126 -0.0817  0.5842
   51MOL   H20110301   6.232   0.783   1.474  0.2976  0.7443 -1.0375
   51MOL   H20210302   6.375   0.885   1.504  2.6335 -1.4915  1.1292
   52MOL     C110303   6.847   4.794   2.488 -0.6548  0.3674  0.0917
   52MOL     C210304   6.812   4.682   2.393  0.6151 -0.4339  0.5645
   52MOL    Cl310305   6.952   4.584   2.388 -0.3827  0.2701 -0.1221
   52MOL     C410306   6.697   4.652   2.326 -0.1967 -0.6321  0.3319
   52MOL     C510307   6.570   4.736   2.331  0.3483  0.2658  0.1148
   52MOL     H610308   6.936   4.845   2.450 -1.1792  2.2743  1.3787
   52MOL     H710309   6.860   4.769   2.593 -2.8685 -0.0797  0.2881
   52MOL     H810310   6.696   4.565   2.262  2.0340 -0.3477 -0.1277
   52MOL     H910311   6.577   4.815   2.406  2.9814 -0.1855  0.3648
   52MOL    H1010312   6.556   4.781   2.232  1.2659 -1.3257 -0.7570
   52MOL    H1110313   6.762   4.861   2.478 -2.6666 -2.3909 -2.5129
   52MOL    C1210314   6.452   4.638   2.360 -0.0661 -0.7441  0.5988
   52MOL    C1310315   6.313   4.709   2.372 -0.9425  0.2856  0.4384
   52MOL   Cl1410316   6.273   4.744   2.535  0.3132  0.4510 -0.0516
   52MOL    C1510317   6.223   4.717   2.274 -0.3085  0.1047 -0.3301
   52MOL    C1610318   6.238   4.666   2.134 -0.2047  0.7965 -0.2715
   52MOL    H1710319   6.452   4.554   2.290 -2.5759 -1.0664  0.9433
   52MOL    H1810320   6.480   4.593   2.455  0.3560 -2.5422 -0.3501
   52MOL    H1910321   6.125   4.758   2.292  0.5823  1.1147  2.4545
   52MOL    H2010322   6.262   4.757   2.079 -0.4111 -1.1650 -3.7473
   52MOL    H2110323   6.321   4.597   2.130 -0.9318 -0.0848 -0.2949
   52MOL    C2210324   6.102   4.599   2.086  0.3092 -0.6773  0.4099
   52MOL    C2310325   6.105   4.547   1.945  0.1798 -0.4794 -0.1685
   52MOL   Cl2410326   6.118   4.686   1.841  0.1154 -0.3551  0.3171
   52MOL    C2510327   6.111   4.422   1.901  0.4755  0.8373 -0.4180
   52MOL    C2610328   6.137   4.373   1.757 -0.2166  0.6376 -0.5954
   52MOL    H2710329   6.065   4.521   2.153  0.8417 -2.5015 -1.3922
   52MOL    H2810330   6.041   4.689   2.096  0.6868 -0.3632 -0.1013
   52MOL    H2910331   6.101   4.341   1.972 -0.0747  1.9047  0.7372
   52MOL    H3010332   6.117   4.457   1.690 -0.3881  0.3523 -0.9054
   52MOL    H3110333   6.237   4.329   1.757 -0.4571  0.0292  2.0420
   52MOL    C3210334   6.038   4.264   1.714 -0.0460  0.6791 -0.6580
   52MOL    C3310335   6.090   4.159   1.618  0.0339 -0.7184 -0.6030
   52MOL   Cl3410336   6.072   4.202   1.453 -0.1134 -0.4608 -0.1954
   52MOL    C3510337   6.143   4.044   1.668 -0.1480 -0.2087 -0.3159
   52MOL    C3610338   6.201   3.932   1.587  0.0803  0.7264 -0.8099
   52MOL    H3710339   5.994   4.219   1.803  1.9828  0.2662  0.1610
   52MOL    H3810340   5.945   4.308   1.678 -3.0076 -3.3972  1.6135
   52MOL    H3910341   6.154   4.035   1.775 -0.1829  3.9367  0.1242
   52MOL    H4010342   6.252   3.973   1.499  0.2201  2.7905  0.2173
   52MOL    H4110343   6.279   3.879   1.642  1.4574  0.6892 -2.7441
   52MOL    C4210344   6.088   3.839   1.546  0.1763 -0.1658 -0.4574
   52MOL    C4310345   6.136   3.714   1.471  0.9420 -0.2306 -0.4301
   52MOL   Cl4410346   6.195   3.574   1.564  0.2349  0.0507  0.2804
   52MOL    C4510347   6.128   3.701   1.341 -0.2693  0.3406 -0.1565
   52MOL    C4610348   6.088   3.809   1.239 -0.0816 -0.4733  0.5061
   52MOL    H4710349   6.035   3.802   1.633  0.8530  0.3694  0.2018
   52MOL    H4810350   6.018   3.887   1.479  2.3331  1.6744 -1.4820
   52MOL    H4910351   6.151   3.604   1.299 -1.4839 -0.1749  0.3253
   52MOL    H5010352   6.001   3.762   1.195 -0.4850  0.6263  0.1054
   52MOL    H5110353   6.043   3.898   1.283 -1.1988 -0.4711 -0.6341
   52MOL    C5210354   6.207   3.843   1.148  0.7020  0.6129  0.2360
   52MOL    C5310355   6.177   3.962   1.068  0.3029 -0.1136  0.1818
   52MOL   Cl5410356   6.161   3.922   0.899  0.0509  0.4114  0.1344
   52MOL    C5510357   6.176   4.091   1.116  0.4845  0.1539 -0.5916
   52MOL    C5610358   6.142   4.204   1.029 -0.5375  0.0865  0.3108
   52MOL    H5710359   6.298   3.852   1.206 -0.5134 -2.6448  2.8009
   52MOL    H5810360   6.226   3.759   1.080 -1.5405  0.4638 -0.2429
   52MOL    H5910361   6.196   4.118   1.218 -1.8925  1.5624 -0.4681
   52MOL    H6010362   6.240   4.230   0.988  0.0373  1.3801  2.4181
   52MOL    H6110363   6.088   4.162   0.944 -1.0510 -0.2928  0.8237
   52MOL    C6210364   6.091   4.314   1.111 -0.0022  0.1057 -0.7882
   52MOL    C6310365   6.086   4.446   1.037  0.0345  0.5917  0.1686
   52MOL   Cl6410366   6.235   4.501   0.988  0.2720  0.4943  0.2137
   52MOL    C6510367   5.977   4.517   1.015  0.7222  0.5125 -0.0768
   52MOL    C6610368   5.962   4.647   0.936 -0.0652  0.4390  0.6530
   52MOL    H6710369   5.991   4.297   1.150 -0.1220  0.2705 -1.0227
   52MOL    H6810370   6.156   4.327   1.198  0.3572 -5.7344 -0.0058
   52MOL    H6910371   5.893   4.476   1.069  1.1411 -0.7468 -0.3618
   52MOL    H7010372   5.906   4.633   0.843 -0.7528 -1.0429  1.2896
   52MOL    H7110373   6.058   4.691   0.908 -0.4155  0.7690 -0.0680
   52MOL    C7210374   5.879   4.745   1.022 -0.2294 -0.8579 -0.7244
   52MOL    C7310375   5.850   4.870   0.959 -0.4799 -0.2447  0.2759
   52MOL   Cl7410376   5.953   4.994   1.016  0.2973  0.2643 -0.3460
   52MOL    C7510377   5.749   4.894   0.875  0.3025  0.7677  0.5439
   52MOL    C7610378   5.718   5.032   0.820  0.1174  0.3351 -0.0340
   52MOL    H7710379   5.931   4.753   1.117 -0.6912 -0.8571 -0.4702
   52MOL    H7810380   5.785   4.699   1.054  0.4404 -1.6622  0.1274
   52MOL    H7910381   5.679   4.815   0.854  0.4217  0.7161  0.3435
   52MOL    H8010382   5.690   5.013   0.717 -0.2002  1.6056 -0.1959
   52MOL    H8110383   5.808   5.094   0.825 -0.3713  1.0254  0.3040
   52MOL    C8210384   5.603   5.106   0.883 -0.7448 -0.0281  0.1462
   52MOL    C8310385   5.632   5.149   1.023  1.0453  0.0987  0.0333
   52MOL   Cl8410386   5.726   5.297   1.020  0.3232  0.4424  0.0838
   52MOL    C8510387   5.589   5.089   1.132  0.4620  0.6958 -0.3332
   52MOL    C8610388   5.607   5.131   1.280  0.1285  0.2748 -0.0920
   52MOL    H8710389   5.512   5.050   0.902  0.0162 -1.1013  0.7114
   52MOL    H8810390   5.581   5.199   0.831 -1.1285  0.9990  2.0634
   52MOL    H8910391   5.530   4.999   1.117 -0.5956  1.2378  0.5755
   52MOL    H9010392   5.654   5.228   1.289  0.2786  0.2114 -0.1976
   52MOL    H9110393   5.508   5.133   1.327 -0.9903 -0.4795 -2.3599
   52MOL    C9210394   5.691   5.020   1.356  0.8290 -0.1544  0.2236
   52MOL    C9310395   5.768   5.056   1.475  0.3544 -0.1432  0.1207
   52MOL   Cl9410396   5.696   5.176   1.581  0.1186  0.2777  0.3880
   52MOL    C9510397   5.891   5.016   1.513  0.3448 -0.8470 -0.0706
   52MOL    C9610398   5.970   4.916   1.438  1.0449  0.2259  0.1595
   52MOL    H9710399   5.774   4.987   1.293  1.4132 -1.2285  1.5256
   52MOL    H9810400   5.634   4.938   1.399  0.5640 -1.4564 -2.5210
   52MOL    H9910401   5.919   5.063   1.606 -1.0254  0.2270 -0.1790
   52MOL   H10010402   5.912   4.854   1.370 -1.3696  1.1856  1.2702
   52MOL   H10110403   6.052   4.966   1.387  0.5206  2.2371  1.2465
   52MOL   C10210404   6.041   4.818   1.527 -0.2263 -0.2665  0.8293
   52MOL   C10310405   6.128   4.715   1.448  0.1533 -0.1203 -0.1406
   52MOL  Cl10410406   6.032   4.614   1.349  0.0437  0.0635 -0.0638
   52MOL   C10510407   6.264   4.701   1.447 -0.2887 -0.1734  0.0610
   52MOL   C10610408   6.339   4.593   1.367  0.3227 -0.1967 -0.7613
   52MOL   H10710409   6.104   4.874   1.596  1.2804  0.1080 -0.8001
   52MOL   H10810410   5.964   4.771   1.587 -0.4997 -1.5795 -0.5119
   52MOL   H10910411   6.322   4.763   1.514  0.5918  2.7092 -3.2322
   52MOL   H11010412   6.282   4.521   1.309  0.4599 -0.3248 -0.7379
   52MOL   H11110413   6.405   4.649   1.300  1.5243 -1.8444 -0.9965
   52MOL   C11210414   6.442   4.512   1.449 -0.4061 -0.4079  0.5451
   52MOL   C11310415   6.499   4.405   1.359 -0.2372  0.1771 -0.4238
   52MOL  Cl11410416   6.430   4.250   1.390  0.0331 -0.2987  0.1147
   52MOL   C11510417   6.586   4.424   1.258  0.7873 -0.5163  0.4218
   52MOL   C11610418   6.661   4.538   1.202  0.6159  0.3037 -0.2421
   52MOL   H11710419   6.521   4.578   1.484 -2.3352  1.6958  1.0715
   52MOL   H11810420   6.394   4.469   1.537  1.6174  0.7803  2.2784
   52MOL   H11910421   6.616   4.331   1.212 -0.0591 -0.6795  0.1972
   52MOL   H12010422   6.767   4.517   1.212  0.0111 -2.2090  1.2809
   52MOL   H12110423   6.645   4.628   1.261 -1.4110 -0.6707  0.7513
   52MOL   C12210424   6.642   4.560   1.052  0.6739  0.4208 -0.2037
   52MOL   C12310425   6.722   4.678   1.011 -0.2209 -0.0638  0.1632
   52MOL  Cl12410426   6.870   4.635   0.933  0.0697  0.0239 -0.1831
   52MOL   C12510427   6.685   4.801   1.028  0.9969 -0.4027 -0.3917
   52MOL   C12610428   6.551   4.852   1.090  0.6658 -0.4632 -0.5182
   52MOL   H12710429   6.675   4.475   0.994 -2.4171 -0.7698 -0.2894
   52MOL   H12810430   6.534   4.568   1.040  0.6681  2.1869  0.7344
   52MOL   H12910431   6.756   4.876   0.995  0.6059 -0.4797 -1.4247
   52MOL   H13010432   6.486   4.764   1.096  1.5653 -1.2143 -1.5734
   52MOL   H13110433   6.577   4.882   1.192 -0.5416 -0.7447 -0.1199
   52MOL   C13210434   6.496   4.976   1.013 -0.1276  0.7879  0.0543
   52MOL   C13310435   6.367   5.036   1.064  0.0794 -0.1075  0.4885
   52MOL  Cl13410436   6.274   4.919   1.144 -0.0690 -0.4755 -0.0689
   52MOL   C13510437   6.331   5.166   1.071 -0.5042 -0.0936 -0.3636
   52MOL   C13610438   6.401   5.288   1.019  0.0655  0.2375  0.2155
   52MOL   H13710439   6.562   5.062   1.001 -0.1193  0.3809 -3.3777
   52MOL   H13810440   6.487   4.937   0.912  1.9725 -2.9651  1.2169
   52MOL   H13910441   6.240   5.178   1.128  0.3171 -2.5816  1.5732
   52MOL   H14010442   6.452   5.332   1.106  1.8905  0.0119 -0.7077
   52MOL   H14110443   6.475   5.261   0.944 -1.2499 -0.9341 -0.6656
   52MOL   C14210444   6.296   5.383   0.959 -0.0294  0.0184  0.0597
   52MOL   C14310445   6.212   5.305   0.856 -0.6404  0.0669  0.3207
   52MOL  Cl14410446   6.047   5.287   0.905  0.0529 -0.1972  0.0706
   52MOL   C14510447   6.258   5.261   0.731  0.4651 -0.3098 -0.4557
   52MOL   C14610448   6.168   5.195   0.630  0.9237  0.2645 -0.0343
   52MOL   H14710449   6.343   5.465   0.904  2.1879 -1.3955 -0.2037
   52MOL   H14810450   6.221   5.423   1.028 -1.0508  1.2206 -1.7006
   52MOL   H14910451   6.361   5.277   0.704  0.4562  0.7513  0.1318
   52MOL   H15010452   6.193   5.089   0.626 -2.3447 -0.5885  0.5891
   52MOL   H15110453   6.063   5.189   0.661  0.8486  2.9896  0.3723
   52MOL   C15210454   6.191   5.261   0.482 -0.0589  0.3330  0.5071
   52MOL   C15310455   6.103   5.186   0.384 -0.3642  0.4631 -0.0148
   52MOL  Cl15410456   6.119   5.254   0.222 -0.0894  0.1029  0.1049
   52MOL   C15510457   6.008   5.097   0.397 -0.0692  0.1530 -0.1821
   52MOL   C15610458   5.913   5.024   0.302  0.6706 -0.2151  0.9877
   52MOL   H15710459   6.165   5.367   0.473  1.3050  0.4564 -2.2365
   52MOL   H15810460   6.293   5.240   0.453  0.0233 -1.7803  2.1761
   52MOL   H15910461   5.985   5.066   0.498 -0.3129  0.6932 -0.0712
   52MOL   H16010462   5.947   4.922   0.283  0.5612  0.0491 -0.7862
   52MOL   H16110463   5.907   5.060   0.199  0.1644 -0.8869  0.7800
   52MOL   C16210464   5.763   5.021   0.333  0.0849  0.1227 -0.4004
   52MOL   C16310465   5.721   5.167   0.358 -0.0120  0.5771  0.1948
   52MOL  Cl16410466   5.697   5.252   0.210 -0.0871  0.4575 -0.7392
   52MOL   C16510467   5.721   5.228   0.480  0.2062  0.5392  0.2790
   52MOL   C16610468   5.699   5.381   0.502  0.7109  0.1079  0.3641
   52MOL   H16710469   5.691   4.976   0.264 -1.8546 -0.0372  1.6861
   52MOL   H16810470   5.747   4.975   0.430  0.6277  0.7028 -0.0286
   52MOL   H16910471   5.731   5.177   0.574 -2.3587  0.6667  0.6574
   52MOL   H17010472   5.734   5.426   0.409  2.9889  0.6121  1.4307
   52MOL   H17110473   5.597   5.414   0.522  0.1058 -1.9581  0.8473
   52MOL   C17210474   5.789   5.433   0.613  0.2731  0.0360 -0.3681
   52MOL   C17310475   5.789   5.584   0.625  0.6464  0.5940 -0.4200
   52MOL  Cl17410476   5.834   5.659   0.468  0.1917  0.2101 -0.0180
   52MOL   C17510477   5.745   5.646   0.729  0.2280  0.1275 -0.3951
   52MOL   C17610478   5.741   5.796   0.740 -0.1817 -0.4211 -0.0765
   52MOL   H17710479   5.894   5.407   0.607  0.8406  2.4242 -1.3951
   52MOL   H17810480   5.755   5.405   0.713  0.6143  1.2191  0.0824
   52MOL   H17910481   5.706   5.588   0.812  1.7235 -2.2352 -1.2929
   52MOL   H18010482   5.668   5.818   0.661  1.1885 -3.8568 -2.4500
   52MOL   H18110483   5.835   5.838   0.704  0.0704 -0.7766  0.1668
   52MOL   C18210484   5.694   5.842   0.875 -0.5078 -0.4249 -0.3226
   52MOL   C18310485   5.797   5.809   0.985 -0.1675  0.4904  0.4445
   52MOL  Cl18410486   5.905   5.938   1.006  0.1296 -0.0531  0.0062
   52MOL   C18510487   5.807   5.695   1.060  0.0409 -0.0538  0.8000
   52MOL   C18610488   5.900   5.663   1.181 -0.3080 -0.0600  0.1164
   52MOL   H18710489   5.667   5.947   0.860 -0.1705 -0.0420  1.7186
   52MOL   H18810490   5.595   5.800   0.894 -0.4120 -0.6871 -0.3987
   52MOL   H18910491   5.733   5.624   1.026  0.6263  0.3826 -1.4759
   52MOL   H19010492   5.977   5.598   1.140  0.5271  2.0645 -1.8141
   52MOL   H19110493   5.944   5.756   1.219 -2.3421  0.5850  0.9875
   52MOL   C19210494   5.824   5.592   1.295 -0.1224 -0.3707  0.2790
   52MOL   C19310495   5.918   5.549   1.405 -0.6939  0.1693  0.3860
   52MOL  Cl19410496   5.916   5.664   1.530 -0.1052 -0.6316  0.2796
   52MOL   C19510497   6.001   5.441   1.396 -0.5274  0.2779 -0.5555
   52MOL   C19610498   6.017   5.343   1.280 -0.5816  0.5373 -0.3206
   52MOL   H19710499   5.779   5.499   1.262 -1.1744  0.1617  0.2046
   52MOL   H19810500   5.745   5.660   1.328  1.1725  2.2228 -1.7396
   52MOL   H19910501   6.060   5.417   1.483 -1.6283 -1.9128 -0.3734
   52MOL   H20010502   6.015   5.400   1.187 -1.0711  0.9952 -0.0339
   52MOL   H20110503   5.938   5.268   1.278 -0.1775  0.0985 -0.0911
   52MOL   H20210504   6.113   5.292   1.286 -0.4378  0.7784 -0.5405
   53MOL     C110505   1.725   7.317   5.987 -0.0929 -0.7355 -0.2116
   53MOL     C210506   1.706   7.432   5.884 -0.2887  0.0394  0.0603
   53MOL    Cl310507   1.860   7.503   5.848  0.5066  0.3206 -0.1238
   53MOL     C410508   1.597   7.474   5.821 -0.3030  0.1780  0.2090
   53MOL     C510509   1.456   7.417   5.829  0.2279 -0.3027  0.3962
   53MOL     H610510   1.706   7.216   5.951  1.5249 -1.5737  1.1842
   53MOL     H710511   1.663   7.329   6.076  1.3400 -0.0092  0.7279
   53MOL     H810512   1.603   7.552   5.746 -0.7565 -0.3622 -0.3971
   53MOL     H910513   1.413   7.394   5.731  0.8716 -1.3432  0.3509
   53MOL    H1010514   1.464   7.326   5.888  0.6025 -0.0395  0.7549
   53MOL    H1110515   1.825   7.320   6.032 -0.5280 -1.6379  0.8565
   53MOL    C1210516   1.365   7.501   5.912  0.7637 -0.4228 -0.5139
   53MOL    C1310517   1.224   7.446   5.901 -0.4590 -0.0669 -0.2180
   53MOL   Cl1410518   1.182   7.314   6.010 -0.1645 -0.1977  0.3274
   53MOL    C1510519   1.127   7.487   5.812 -0.8040 -0.1763  0.1765
   53MOL    C1610520   1.151   7.588   5.700  0.2091  0.2339  0.2777
   53MOL    H1710521   1.392   7.487   6.017 -0.1009  2.9434  0.2382
   53MOL    H1810522   1.360   7.610   5.899  0.2932 -0.3980 -0.1256
   53MOL    H1910523   1.027   7.450   5.828 -1.2456  1.1439  0.5638
   53MOL    H2010524   1.256   7.616   5.710  0.5132 -0.5437 -0.6530
   53MOL    H2110525   1.143   7.536   5.604 -1.7535 -1.8116  1.4877
   53MOL    C2210526   1.049   7.707   5.720 -0.7640  0.0479  0.2539
   53MOL    C2310527   1.085   7.813   5.615 -0.1187  0.0575  0.2351
   53MOL   Cl2410528   1.160   7.952   5.680 -0.0240  0.0938 -0.4733
   53MOL    C2510529   1.060   7.798   5.482  0.0075  0.1451  0.3969
   53MOL    C2610530   1.111   7.899   5.374 -0.0564 -0.3486 -1.5609
   53MOL    H2710531   0.952   7.658   5.724 -0.1213 -1.2554  0.5197
   53MOL    H2810532   1.060   7.744   5.822  0.8145 -1.0782  0.5156
   53MOL    H2910533   0.999   7.712   5.459 -1.0753  1.2012 -0.7868
   53MOL    H3010534   1.204   7.949   5.401 -0.1571 -0.2371 -1.4201
   53MOL    H3110535   1.119   7.841   5.282 -1.3289  0.3494 -2.1303
   53MOL    C3210536   1.005   8.004   5.343 -0.2159 -0.1986  0.4922
   53MOL    C3310537   1.024   8.077   5.211  0.1785 -0.0385 -0.2680
   53MOL   Cl3410538   1.099   8.224   5.225  0.2822 -0.0112  0.0127
   53MOL    C3510539   0.974   8.029   5.096 -0.6174 -0.7916 -0.1897
   53MOL    C3610540   0.981   8.089   4.956  0.8499  0.5371  0.3450
   53MOL    H3710541   0.907   7.957   5.338 -0.0403 -0.3676 -1.7257
   53MOL    H3810542   0.991   8.073   5.427 -1.7405 -1.5126  1.3568
   53MOL    H3910543   0.912   7.942   5.110  0.7441 -1.8964 -0.8188
   53MOL    H4010544   0.879   8.122   4.937  1.0044  1.6525  1.3360
   53MOL    H4110545   1.041   8.180   4.955  0.9911  0.4659 -2.7341
   53MOL    C4210546   1.027   7.989   4.850 -0.1028  0.6818 -0.2406
   53MOL    C4310547   1.163   7.927   4.880 -0.3056 -0.5379 -0.0074
   53MOL   Cl4410548   1.153   7.763   4.924 -0.0196 -0.1989 -0.0977
   53MOL    C4510549   1.280   7.988   4.876  0.4986  0.9925  0.3416
   53MOL    C4610550   1.307   8.126   4.823 -0.0999 -0.3727  0.2025
   53MOL    H4710551   0.964   7.900   4.843  2.3171 -1.3493  2.3597
   53MOL    H4810552   1.027   8.043   4.756 -2.4279  1.3605  0.1109
   53MOL    H4910553   1.368   7.933   4.906 -0.1596 -0.2220  0.1107
   53MOL    H5010554   1.382   8.123   4.744 -0.2279 -0.5164  0.0875
   53MOL    H5110555   1.216   8.178   4.794  1.7070  1.3222 -2.6992
   53MOL    C5210556   1.364   8.221   4.931 -0.0886 -0.0915 -0.2802
   53MOL    C5310557   1.404   8.366   4.877 -0.4732  0.6941 -0.4151
   53MOL   Cl5410558   1.272   0.045   4.870  0.0931  0.6168 -0.5023
   53MOL    C5510559   1.532   8.416   4.857 -0.1060  0.5740  0.6060
   53MOL    C5610560   1.567   0.130   4.800  0.3166  0.6896  0.8177
   53MOL    H5710561   1.299   8.236   5.018  0.5099  0.4936  0.0713
   53MOL    H5810562   1.459   8.179   4.963  0.4321  0.9605 -0.4238
   53MOL    H5910563   1.610   8.348   4.889 -0.8973 -1.7471 -2.2378
   53MOL    H6010564   1.627   0.097   4.715 -4.0761 -0.5279 -1.9991
   53MOL    H6110565   1.475   0.168   4.754  1.0529  0.6138 -0.7410
   53MOL    C6210566   1.648   0.222   4.891 -0.6678 -0.2457 -0.3919
   53MOL    C6310567   1.704   0.342   4.819  0.0095  0.4926 -0.7029
   53MOL   Cl6410568   1.583   0.424   4.727  0.0541  0.0778  0.2176
   53MOL    C6510569   1.823   0.405   4.843  0.4614 -0.3815  0.0360
   53MOL    C6610570   1.886   0.530   4.780 -0.5441  0.1683  0.2844
   53MOL    H6710571   1.581   0.241   4.976  1.1094  1.8140  0.6003
   53MOL    H6810572   1.730   0.163   4.932  0.0739  0.0168 -1.4656
   53MOL    H6910573   1.897   0.365   4.910  1.5147  1.1299 -0.2010
   53MOL    H7010574   1.927   0.592   4.860 -2.3427  0.9549  0.6099
   53MOL    H7110575   1.808   0.581   4.723  0.5416 -1.4965 -2.7609
   53MOL    C7210576   1.987   0.490   4.677  0.0301  0.3449  1.0180
   53MOL    C7310577   1.938   0.409   4.553  0.2210 -0.4190 -0.4842
   53MOL   Cl7410578   2.023   0.257   4.538  0.1837 -0.0958 -0.0456
   53MOL    C7510579   1.844   0.454   4.465 -0.2315 -0.3876  0.0519
   53MOL    C7610580   1.799   0.381   4.340  0.1597  0.1991  0.2835
   53MOL    H7710581   2.074   0.441   4.720  0.8734 -0.1852 -1.2375
   53MOL    H7810582   2.026   0.581   4.633 -0.8189  0.4662  0.4970
   53MOL    H7910583   1.805   0.554   4.475 -1.5870 -1.0352  1.5585
   53MOL    H8010584   1.865   0.298   4.317  0.0783  0.8733 -2.5870
   53MOL    H8110585   1.820   0.450   4.259 -1.9678 -0.7339 -1.0977
   53MOL    C8210586   1.647   0.361   4.345  0.9287  0.1513  0.0736
   53MOL    C8310587   1.593   0.227   4.393  0.2576 -0.0733  0.9975
   53MOL   Cl8410588   1.719   0.106   4.397 -0.0629  0.1673 -0.3345
   53MOL    C8510589   1.464   0.201   4.420 -0.4554  0.2798  0.4305
   53MOL    C8610590   1.405   0.065   4.455  0.7844  0.2472  0.0980
   53MOL    H8710591   1.612   0.386   4.245  3.1579 -0.3460 -0.8605
   53MOL    H8810592   1.592   0.432   4.407  0.2959  0.1327 -0.4721
   53MOL    H8910593   1.395   0.284   4.419  0.2381  0.8559 -0.7856
   53MOL    H9010594   1.491   8.419   4.459  0.4670 -0.2174 -0.6806
   53MOL    H9110595   1.362   0.076   4.555 -1.5519 -0.0507 -0.8341
   53MOL    C9210596   1.302   0.019   4.356  0.5402 -1.4905 -0.0067
   53MOL    C9310597   1.247   8.307   4.412  1.1258 -0.0244 -0.1724
   53MOL   Cl9410598   1.323   8.172   4.339  0.2584 -0.0235 -0.2057
   53MOL    C9510599   1.157   8.295   4.509  0.1577  0.0314  1.1057
   53MOL    C9610600   1.092   8.406   4.591  0.5863 -0.4540  0.0444
   53MOL    H9710601   1.341   0.009   4.255  0.9387  1.2992 -0.1411
   53MOL    H9810602   1.219   0.089   4.349 -1.6577 -4.2075 -3.1591
   53MOL    H9910603   1.124   8.198   4.543 -2.3337  0.6064  0.4404
   53MOL   H10010604   1.112   8.404   4.698  0.7209 -0.4142  0.0199
   53MOL   H10110605   1.125   0.085   4.563  0.3873 -1.1448 -2.8323
   53MOL   C10210606   0.943   8.415   4.556 -0.9962  0.8269  0.2726
   53MOL   C10310607   0.870   0.072   4.661 -0.2465 -0.2395  0.2424
   53MOL  Cl10410608   0.792   0.214   4.589 -0.3682  0.1643  0.1003
   53MOL   C10510609   0.866   0.041   4.797 -0.1833 -0.7435  0.2430
   53MOL   C10610610   0.792   0.119   4.901 -0.0567 -0.6996  0.8277
   53MOL   H10710611   0.927   0.050   4.464 -1.4478  0.2809  0.0178
   53MOL   H10810612   0.897   8.318   4.535  0.8440  0.6336 -3.2408
   53MOL   H10910613   0.915   8.375   4.838  0.4039  0.7340  2.7565
   53MOL   H11010614   0.850   0.130   4.993 -1.5843  2.8776  1.4452
   53MOL   H11110615   0.775   0.221   4.867 -1.3098 -0.9736  0.6348
   53MOL   C11210616   0.657   0.056   4.929  1.3248 -0.3254 -0.3429
   53MOL   C11310617   0.549   0.105   4.834 -0.5083 -0.5412 -0.0635
   53MOL  Cl11410618   0.505   0.263   4.858 -0.1604  0.0017 -0.0832
   53MOL   C11510619   0.477   0.028   4.753  0.0252  0.9270  0.0741
   53MOL   C11610620   0.505   8.303   4.719  0.0360 -0.3645 -0.0212
   53MOL   H11710621   0.664   8.368   4.932  1.7197 -0.2950 -0.2007
   53MOL   H11810622   0.640   0.085   5.033  1.7428  0.2757 -0.4438
   53MOL   H11910623   0.390   0.071   4.707 -0.5700 -0.9350 -0.5796
   53MOL   H12010624   0.404   8.264   4.721  0.2039 -0.7687  0.4725
   53MOL   H12110625   0.562   8.252   4.796  1.6461 -0.4108 -1.2064
   53MOL   C12210626   0.561   8.270   4.583 -0.8092 -0.4248 -0.7853
   53MOL   C12310627   0.583   8.123   4.561  0.2856 -0.7861  0.3842
   53MOL  Cl12410628   0.726   8.082   4.647 -0.3092  0.0867 -0.2572
   53MOL   C12510629   0.536   8.037   4.470 -0.0323 -0.1036  0.0401
   53MOL   C12610630   0.421   8.066   4.375  0.1542  0.5357  0.2233
   53MOL   H12710631   0.491   8.310   4.510 -1.4389 -0.8975 -0.4422
   53MOL   H12810632   0.657   8.321   4.573 -0.2237 -1.0984  1.1380
   53MOL   H12910633   0.568   7.934   4.470  1.7868  0.4512  0.7712
   53MOL   H13010634   0.395   8.171   4.380 -0.7371  0.5138 -2.7554
   53MOL   H13110635   0.433   8.033   4.271 -3.0457 -0.2352  0.0264
   53MOL   C13210636   0.299   8.001   4.424  0.0753 -0.1355 -0.0070
   53MOL   C13310637   0.195   8.004   4.305  0.6377  0.1757  0.5184
   53MOL  Cl13410638   0.100   8.149   4.313  0.2537 -0.0237 -0.2583
   53MOL   C13510639   0.184   7.924   4.197 -0.2990  0.1653  0.4495
   53MOL   C13610640   0.267   7.800   4.167 -0.0870 -0.5638 -0.1784
   53MOL   H13710641   0.320   7.898   4.451  1.2678  0.2727  0.6451
   53MOL   H13810642   0.254   8.052   4.509  1.4656 -0.8663  1.1833
   53MOL   H13910643   0.109   7.949   4.124  0.7138  2.4050  0.1457
   53MOL   H14010644   0.353   7.786   4.233  0.0189  1.1668  0.0725
   53MOL   H14110645   0.206   7.709   4.174  0.6087 -0.9082  1.8324
   53MOL   C14210646   0.325   7.818   4.026  0.6837 -0.0172 -0.0064
   53MOL   C14310647   0.409   7.712   3.971 -0.0473 -0.9034 -0.4573
   53MOL  Cl14410648   0.570   7.744   4.025  0.3901  0.1180  0.2640
   53MOL   C14510649   0.369   7.613   3.894  0.2619  0.4283 -0.0216
   53MOL   C14610650   0.458   7.507   3.834 -0.0127  0.1066 -0.4355
   53MOL   H14710651   0.383   7.910   4.029  0.2780  0.3188 -1.7305
   53MOL   H14810652   0.243   7.836   3.955 -0.2394 -2.4465  0.4106
   53MOL   H14910653   0.264   7.608   3.868  0.7710 -0.1312 -2.0547
   53MOL   H15010654   0.398   7.471   3.751 -1.2981  0.0565  0.4984
   53MOL   H15110655   0.548   7.548   3.789 -0.3907 -1.4235 -2.6334
   53MOL   C15210656   0.499   7.393   3.928  0.5883 -0.5324 -0.5572
   53MOL   C15310657   0.604   7.310   3.859 -0.4643  0.3463 -0.0014
   53MOL  Cl15410658   0.753   7.308   3.943  0.2321 -0.2330 -0.0442
   53MOL   C15510659   0.594   7.254   3.737  0.5978 -0.2515 -0.4700
   53MOL   C15610660   0.704   7.188   3.660 -0.0488  0.7105 -0.0355
   53MOL   H15710661   0.551   7.443   4.009  1.0545 -0.1510 -1.0934
   53MOL   H15810662   0.411   7.336   3.959  0.6222 -1.6928 -2.4980
   53MOL   H15910663   0.498   7.262   3.688  1.5273  0.4404 -2.2305
   53MOL   H16010664   0.800   7.230   3.688  0.2182 -0.7899  1.3604
   53MOL   H16110665   0.680   7.213   3.557 -0.9708 -1.9052 -0.4917
   53MOL   C16210666   0.708   7.033   3.652 -0.2760 -0.1657  0.1907
   53MOL   C16310667   0.627   6.971   3.538  0.3211 -0.3751  0.4625
   53MOL  Cl16410668   0.462   6.971   3.566 -0.0076 -0.2482  0.1769
   53MOL   C16510669   0.677   6.910   3.430  0.0113  0.0688 -0.3969
   53MOL   C16610670   0.601   6.843   3.310  0.4934 -0.3096 -0.1670
   53MOL   H16710671   0.813   7.006   3.647  0.2528  1.8900 -0.4231
   53MOL   H16810672   0.669   6.982   3.740  0.6219 -0.0704  0.6486
   53MOL   H16910673   0.785   6.904   3.421  0.4620  1.9845  2.9188
   53MOL   H17010674   0.636   6.740   3.308  0.2214 -0.3898 -0.8051
   53MOL   H17110675   0.493   6.844   3.319  0.0904  0.4387 -4.2619
   53MOL   C17210676   0.631   6.905   3.178  0.1941  0.8801 -0.0262
   53MOL   C17310677   0.604   7.056   3.175  0.2982  0.1229  0.4812
   53MOL  Cl17410678   0.754   7.147   3.159 -0.2243  0.0318 -0.2689
   53MOL   C17510679   0.481   7.115   3.175  0.0007 -0.3786  0.5029
   53MOL   C17610680   0.448   7.259   3.158  0.3146 -0.5182 -0.5301
   53MOL   H17710681   0.559   6.855   3.113 -0.0293  0.2474  0.7110
   53MOL   H17810682   0.728   6.865   3.147 -1.5717 -2.2443 -1.7714
   53MOL   H17910683   0.401   7.043   3.178  0.4692 -0.8676  2.1736
   53MOL   H18010684   0.374   7.261   3.078 -0.7321  0.2694  0.4536
   53MOL   H18110685   0.536   7.308   3.114 -0.6201 -0.4419 -2.3491
   53MOL   C18210686   0.398   7.316   3.283 -0.1806 -0.2070 -0.3389
   53MOL   C18310687   0.375   7.464   3.270  0.4191 -0.5267  0.0830
   53MOL  Cl18410688   0.224   7.501   3.197 -0.0648  0.0680  0.3294
   53MOL   C18510689   0.449   7.556   3.330  0.1771  0.0884 -0.1318
   53MOL   C18610690   0.429   7.704   3.336 -0.1324  0.0862 -0.2127
   53MOL   H18710691   0.310   7.260   3.313 -0.8443  0.3685 -1.1728
   53MOL   H18810692   0.458   7.307   3.373  1.5700  3.1595 -1.0818
   53MOL   H18910693   0.537   7.521   3.382 -0.8252  0.7700  2.0913
   53MOL   H19010694   0.510   7.759   3.289  1.5971 -0.2823  2.2294
   53MOL   H19110695   0.351   7.737   3.268  0.1340  1.8301  0.3076
   53MOL   C19210696   0.412   7.750   3.479 -0.5607  0.1310 -0.1236
   53MOL   C19310697   0.390   7.898   3.479 -0.2098 -0.9993 -0.3069
   53MOL  Cl19410698   0.290   7.966   3.351  0.2002 -0.3304  0.4703
   53MOL   C19510699   0.448   7.989   3.560 -0.5698  0.7935  0.5491
   53MOL   C19610700   0.544   7.957   3.674  0.1263  0.0101  0.2388
   53MOL   H19710701   0.492   7.731   3.550 -0.9922 -0.0659  0.3164
   53MOL   H19810702   0.326   7.699   3.524  1.1804 -1.3264  1.6788
   53MOL   H19910703   0.427   8.094   3.547 -2.5859  0.4495  0.7957
   53MOL   H20010704   0.643   7.932   3.635 -0.8848 -2.0517 -1.0644
   53MOL   H20110705   0.511   7.868   3.727  1.5097 -1.9343 -2.0582
   53MOL   H20210706   0.534   8.035   3.749  0.3739  1.5028 -1.2443
   54MOL     C110707   0.764   0.574   1.201  0.0797  0.1455  0.3199
   54MOL     C210708   0.850   0.534   1.316  0.0707 -0.1819 -0.1503
   54MOL    Cl310709   0.993   0.626   1.319  0.3040 -0.2941 -0.2060
   54MOL     C410710   0.815   0.431   1.396 -0.3437  0.5367 -0.1541
   54MOL     C510711   0.707   0.329   1.370 -0.7621  0.0001  0.2672
   54MOL     H610712   0.796   0.674   1.169 -2.1244  1.4750  2.1361
   54MOL     H710713   0.662   0.582   1.237 -0.0763 -0.5630  0.0282
   54MOL     H810714   0.870   0.416   1.488  0.0646 -0.7553 -0.6042
   54MOL     H910715   0.676   0.324   1.265  0.0751 -0.9544  0.0491
   54MOL    H1010716   0.746   0.228   1.387 -1.7285 -0.1594  1.5851
   54MOL    H1110717   0.775   0.502   1.120  1.8617  0.1238  0.5532
   54MOL    C1210718   0.585   0.338   1.464  0.0153  0.5764 -0.7031
   54MOL    C1310719   0.612   0.288   1.608 -0.4174 -0.4060  0.2405
   54MOL   Cl1410720   0.687   0.405   1.709  0.1257  0.0317  0.1636
   54MOL    C1510721   0.603   0.159   1.647  0.4707  0.3843 -0.4073
   54MOL    C1610722   0.558   0.038   1.564 -0.3559 -0.0873  0.5188
   54MOL    H1710723   0.569   0.446   1.476 -1.9899  0.1946  0.2786
   54MOL    H1810724   0.498   0.297   1.413 -0.2745  0.7262 -0.3399
   54MOL    H1910725   0.632   0.140   1.749  0.1041 -2.2759 -0.7529
   54MOL    H2010726   0.452   0.015   1.573 -0.4576 -0.6940 -2.0180
   54MOL    H2110727   0.555   0.077   1.463 -0.6107 -0.1899  0.4885
   54MOL    C2210728   0.656   8.342   1.599  0.4893  0.0956 -0.9020
   54MOL    C2310729   0.645   8.227   1.502  0.5943 -0.4569 -0.4884
   54MOL   Cl2410730   0.530   8.106   1.554  0.1466 -0.0633  0.3969
   54MOL    C2510731   0.708   8.211   1.386 -0.3096  0.1821 -0.5857
   54MOL    C2610732   0.706   8.099   1.282  0.7230 -0.2636  0.4402
   54MOL    H2710733   0.760   8.376   1.597  0.4918  0.0097 -2.7016
   54MOL    H2810734   0.629   8.298   1.695 -1.4744  3.1922  0.0189
   54MOL    H2910735   0.784   8.281   1.354  0.7683  0.0832  1.7050
   54MOL    H3010736   0.798   8.040   1.287  0.4012 -0.7768  0.3041
   54MOL    H3110737   0.622   8.031   1.295  0.3487 -0.1500 -1.3550
   54MOL    C3210738   0.691   8.153   1.141 -0.5186 -0.1545 -0.2189
   54MOL    C3310739   0.695   8.038   1.039  0.6611  0.0709 -0.0254
   54MOL   Cl3410740   0.844   8.040   0.958  0.1040  0.1130 -0.4073
   54MOL    C3510741   0.596   7.951   1.010  0.3479 -0.5132  0.1086
   54MOL    C3610742   0.600   7.830   0.931 -0.2887 -0.0344  0.1965
   54MOL    H3710743   0.593   8.199   1.153  0.2499  1.8638 -1.5759
   54MOL    H3810744   0.767   8.228   1.119  0.4074 -0.2037  2.5333
   54MOL    H3910745   0.502   7.969   1.061  1.0260 -0.2681  1.2813
   54MOL    H4010746   0.659   7.850   0.842  1.0150 -2.8234  0.4009
   54MOL    H4110747   0.644   7.746   0.984  0.2159  0.7603  1.0448
   54MOL    C4210748   0.459   7.787   0.884  0.0598  0.1949  0.4018
   54MOL    C4310749   0.455   7.658   0.811 -0.6241 -0.7949 -0.2573
   54MOL   Cl4410750   0.436   7.520   0.922 -0.3622  0.3541 -0.3223
   54MOL    C4510751   0.445   7.642   0.676  0.0338  0.1674 -0.5101
   54MOL    C4610752   0.451   7.754   0.568 -0.1699  0.8793 -0.4767
   54MOL    H4710753   0.391   7.777   0.968 -1.4031 -0.3032 -0.8206
   54MOL    H4810754   0.412   7.874   0.836  0.8612  0.3092 -0.1946
   54MOL    H4910755   0.423   7.543   0.640 -2.2865  0.8729 -1.1398
   54MOL    H5010756   0.419   7.840   0.628 -0.7533  0.0446  0.4251
   54MOL    H5110757   0.558   7.753   0.548  0.2272 -1.3371  1.4369
   54MOL    C5210758   0.359   7.736   0.447 -0.3341  0.3537  0.0583
   54MOL    C5310759   0.370   7.836   0.337 -0.8826 -0.0046  0.1062
   54MOL   Cl5410760   0.493   7.961   0.366  0.0075 -0.1917 -0.0544
   54MOL    C5510761   0.295   7.835   0.227 -0.2183 -0.0780 -0.2188
   54MOL    C5610762   0.312   7.942   0.114 -0.2242 -0.3544 -0.1850
   54MOL    H5710763   0.393   7.648   0.393  1.3878  0.7697  0.4233
   54MOL    H5810764   0.254   7.714   0.463 -0.5360  1.3433  0.1616
   54MOL    H5910765   0.224   7.753   0.219 -0.3611  0.2392 -2.6101
   54MOL    H6010766   0.355   8.029   0.162  1.9860 -1.2541 -0.4702
   54MOL    H6110767   0.378   7.913   0.032  0.3423 -0.4501  0.3010
   54MOL    C6210768   0.181   7.985   0.059  0.9580 -0.0330 -0.0459
   54MOL    C6310769   0.096   8.094   0.122 -0.0228  0.4657  0.2970
   54MOL   Cl6410770   8.406   8.156   0.004 -0.0777 -0.1229 -0.0132
   54MOL    C6510771   0.105   8.137   0.249 -0.2430 -0.2019 -0.6419
   54MOL    C6610772   0.004   8.244   0.307 -0.4492 -0.3781  0.2931
   54MOL    H6710773   0.214   8.042   8.393 -1.4706 -0.1033 -1.0554
   54MOL    H6810774   0.125   7.901   0.019  1.1567 -0.0049 -0.3865
   54MOL    H6910775   0.183   8.107   0.318 -0.5422 -0.5983 -0.4722
   54MOL    H7010776   8.370   8.191   0.385  1.6309 -2.5749  0.3245
   54MOL    H7110777   8.343   8.274   0.242  0.3762  0.4873 -0.3624
   54MOL    C7210778   0.065   8.375   0.367 -0.0223 -0.4051  0.4839
   54MOL    C7310779   8.384   0.043   0.441 -0.6717  0.4822  1.3169
   54MOL   Cl7410780   8.373   0.007   0.605  0.1007 -0.0080  0.3807
   54MOL    C7510781   8.315   0.144   0.377  0.3522 -0.1205  0.2442
   54MOL    C7610782   8.214   0.232   0.452  0.4574  0.0237  0.5467
   54MOL    H7710783   0.121   0.012   0.293 -1.9370  2.6811  1.3747
   54MOL    H7810784   0.143   8.349   0.439 -0.1281  2.0070  1.5077
   54MOL    H7910785   8.323   0.164   0.272 -0.4331  2.6004  0.6611
   54MOL    H8010786   8.217   0.332   0.408 -0.2229  0.0750  0.6115
   54MOL    H8110787   8.231   0.240   0.559  0.5324 -0.0838  0.5426
   54MOL    C8210788   8.067   0.202   0.415  1.1636  0.2882  0.4280
   54MOL    C8310789   8.023   0.221   0.268 -0.1790  0.3886  0.1352
   54MOL   Cl8410790   7.959   0.378   0.238  0.3562  0.1582 -0.1837
   54MOL    C8510791   8.024   0.127   0.170  0.4174  0.0336  0.1428
   54MOL    C8610792   7.962   0.145   0.034  0.5796  0.0994 -0.1061
   54MOL    H8710793   8.004   0.261   0.481 -0.4323 -2.5610  1.5266
   54MOL    H8810794   8.042   0.100   0.443  1.4414  0.1236  0.0831
   54MOL    H8910795   8.058   0.026   0.185  1.5605 -0.1648 -3.4979
   54MOL    H9010796   7.901   0.057   0.014 -1.0223  1.4184 -1.2107
   54MOL    H9110797   7.887   0.224   0.031 -0.5608 -0.8274  2.8899
   54MOL    C9210798   8.071   0.156   8.343 -0.2274 -0.1703  0.2230
   54MOL    C9310799   8.158   0.030   8.324 -0.3355 -0.4701  0.5422
   54MOL   Cl9410800   8.317   0.060   8.363  0.0491 -0.3543  0.1200
   54MOL    C9510801   8.120   8.337   8.264 -0.1775  0.1440  0.4972
   54MOL    C9610802   7.974   8.312   8.214 -0.2375  0.1261 -0.3557
   54MOL    H9710803   8.126   0.250   8.357 -1.7952  0.9085 -0.7046
   54MOL    H9810804   8.012   0.153   8.252  1.0505 -4.2846 -0.5778
   54MOL    H9910805   8.199   8.265   8.246  0.2402  0.6434  0.3280
   54MOL   H10010806   7.930   8.222   8.256  1.2132  0.0226  1.0007
   54MOL   H10110807   7.915   8.396   8.251  0.0445  0.7531 -1.2844
   54MOL   C10210808   7.957   8.309   8.061  0.0958  0.2076  0.2763
   54MOL   C10310809   7.809   8.278   8.021  0.2446  0.7806  0.1831
   54MOL  Cl10410810   7.748   8.371   7.891 -0.1041  0.2008  0.4118
   54MOL   C10510811   7.733   8.192   8.089 -0.3729 -0.7800  0.2783
   54MOL   C10610812   7.580   8.177   8.063 -0.4339 -0.0966  0.4574
   54MOL   H10710813   7.985   8.410   8.032 -0.4664  0.0589 -0.8184
   54MOL   H10810814   8.012   8.225   8.018 -3.3318 -0.5574 -2.8275
   54MOL   H10910815   7.770   8.125   8.165 -1.7970 -0.7958  0.9729
   54MOL   H11010816   7.550   8.217   7.966  3.4554  1.0757 -0.3469
   54MOL   H11110817   7.566   8.069   8.061 -0.0961 -0.1232 -1.8220
   54MOL   C11210818   7.491   8.249   8.166 -0.0462  0.0693  0.4358
   54MOL   C11310819   7.346   8.195   8.171  0.0011 -0.1589  1.0473
   54MOL  Cl11410820   7.319   8.099   8.315  0.3354 -0.4921  0.3429
   54MOL   C11510821   7.243   8.244   8.098  0.0188  0.6355 -0.1697
   54MOL   C11610822   7.247   8.348   7.981 -0.2579 -0.2712 -0.6057
   54MOL   H11710823   7.530   8.239   8.267  0.5286  1.8364  0.4100
   54MOL   H11810824   7.490   8.355   8.139  1.5755 -0.1074 -0.3942
   54MOL   H11910825   7.144   8.203   8.111 -0.3810  1.4652 -0.5602
   54MOL   H12010826   7.177   8.325   7.901 -0.9657 -3.7032  0.9251
   54MOL   H12110827   7.350   8.336   7.948 -0.6655 -1.0205 -1.6212
   54MOL   C12210828   7.242   0.075   8.038 -0.9387  0.0014  0.3203
   54MOL   C12310829   7.296   0.169   7.932 -0.6571 -0.1173  0.8191
   54MOL  Cl12410830   7.471   0.158   7.915  0.4066  0.0168 -0.0256
   54MOL   C12510831   7.231   0.257   7.859  0.1889  0.4195 -0.4097
   54MOL   C12610832   7.083   0.286   7.855  0.1098 -0.5085  0.3972
   54MOL   H12710833   7.141   0.098   8.074 -1.2888 -0.4780 -0.3391
   54MOL   H12810834   7.301   0.069   8.129 -0.5503 -0.0616  0.0630
   54MOL   H12910835   7.293   0.312   7.790  0.8487  0.5078  0.2570
   54MOL   H13010836   7.034   0.238   7.940 -0.6197  2.1422  1.5344
   54MOL   H13110837   7.076   0.395   7.858  0.6838 -0.4098 -1.5460
   54MOL   C13210838   7.016   0.224   7.736 -0.6640  0.1243  0.0454
   54MOL   C13310839   7.046   0.287   7.599  0.6469 -0.2154  0.4391
   54MOL  Cl13410840   7.003   0.455   7.599 -0.5564  0.1587  0.4101
   54MOL   C13510841   7.098   0.237   7.485 -0.1828  0.0600 -0.0127
   54MOL   C13610842   7.142   0.093   7.470  0.1179  0.2251 -0.2066
   54MOL   H13710843   7.021   0.115   7.736 -0.3816  0.1057 -2.5554
   54MOL   H13810844   6.907   0.230   7.739 -0.5444  3.0043  0.4525
   54MOL   H13910845   7.121   0.298   7.399  1.2653  1.5376  1.3800
   54MOL   H14010846   7.116   0.034   7.558 -0.8956  2.9628  1.4009
   54MOL   H14110847   7.080   0.053   7.389 -2.1707  1.4159  0.9159
   54MOL   C14210848   7.294   0.054   7.459  0.4714 -0.0613  0.7606
   54MOL   C14310849   7.317   8.322   7.477 -0.7147 -0.1754 -0.2655
   54MOL  Cl14410850   7.359   8.265   7.637 -0.2678  0.0640  0.1341
   54MOL   C14510851   7.307   8.240   7.371 -0.5692 -0.5798 -0.6929
   54MOL   C14610852   7.327   8.086   7.359 -0.4228 -0.0410 -0.7839
   54MOL   H14710853   7.342   0.124   7.526 -0.5292  1.3657  0.0141
   54MOL   H14810854   7.338   0.083   7.363 -1.2979  0.0647 -0.0383
   54MOL   H14910855   7.271   8.291   7.282  1.3636  1.9294 -0.0836
   54MOL   H15010856   7.343   8.052   7.462 -0.0616 -0.2124 -0.8975
   54MOL   H15110857   7.239   8.051   7.305 -0.6213 -0.3189 -0.2865
   54MOL   C15210858   7.453   8.050   7.278  0.1366  0.3718 -0.5154
   54MOL   C15310859   7.492   7.904   7.279  0.6347  0.3990  0.7683
   54MOL  Cl15410860   7.607   7.886   7.150  0.1066 -0.2122 -0.2111
   54MOL   C15510861   7.448   7.807   7.363 -0.6529 -0.1847 -0.4322
   54MOL   C15610862   7.500   7.668   7.358  0.4137  0.6147  0.0479
   54MOL   H15710863   7.440   8.077   7.173  1.4829  1.9741 -0.2881
   54MOL   H15810864   7.537   8.107   7.316  0.0322 -0.1954  0.5898
   54MOL   H15910865   7.382   7.837   7.444 -1.3601  2.5303 -1.9374
   54MOL   H16010866   7.581   7.648   7.288 -1.3821  0.4450 -2.0438
   54MOL   H16110867   7.423   7.595   7.334  0.9084 -0.4634  1.6750
   54MOL   C16210868   7.559   7.620   7.490 -0.2148  0.5700  1.1015
   54MOL   C16310869   7.601   7.471   7.485  0.4169 -0.2593 -0.6658
   54MOL  Cl16410870   7.475   7.354   7.494  0.0803 -0.2021  0.3312
   54MOL   C16510871   7.724   7.433   7.462 -0.1785 -0.1683  0.5023
   54MOL   C16610872   7.767   7.289   7.456 -0.0639  0.3135  0.3580
   54MOL   H16710873   7.650   7.678   7.505 -0.2779  0.8063  0.5514
   54MOL   H16810874   7.495   7.634   7.577  0.0592  0.4515  1.3271
   54MOL   H16910875   7.803   7.505   7.449 -0.6428  0.1819 -0.4689
   54MOL   H17010876   7.863   7.270   7.504  0.6692 -0.2579 -1.2737
   54MOL   H17110877   7.688   7.223   7.491  1.2095 -1.1061  0.5959
   54MOL   C17210878   7.788   7.252   7.311 -0.3213  0.5993  0.7185
   54MOL   C17310879   7.844   7.107   7.293 -0.2303 -0.1717 -0.0147
   54MOL  Cl17410880   7.878   7.070   7.130  0.5695  0.4341 -0.1362
   54MOL   C17510881   7.883   7.025   7.391 -0.6166 -0.0662 -0.0408
   54MOL   C17610882   7.952   6.884   7.367  0.3786  0.6187  0.4757
   54MOL   H17710883   7.855   7.327   7.269 -2.4267  2.1413  0.0614
   54MOL   H17810884   7.690   7.256   7.264  1.1279  0.1016 -2.4544
   54MOL   H17910885   7.879   7.052   7.496  0.6276 -0.5760  0.1495
   54MOL   H18010886   7.947   6.846   7.266 -3.1996  3.9844 -0.7512
   54MOL   H18110887   7.895   6.814   7.429 -1.9012  0.9747 -1.1665
   54MOL   C18210888   8.096   6.884   7.431 -0.1982  0.6294 -0.4122
   54MOL   C18310889   8.156   6.744   7.460  0.1959 -0.4504  0.6057
   54MOL  Cl18410890   8.227   6.739   7.616  0.2255  0.1108  0.4599
   54MOL   C18510891   8.145   6.632   7.381  0.2872 -0.6480 -0.4468
   54MOL   C18610892   8.199   6.494   7.404 -0.1743  0.3457 -0.2889
   54MOL   H18710893   8.169   6.945   7.376 -1.3302 -0.6478 -3.4628
   54MOL   H18810894   8.090   6.929   7.530 -1.3214  3.0731 -1.5374
   54MOL   H18910895   8.096   6.649   7.286  2.1834 -0.7660 -1.4710
   54MOL   H19010896   8.179   6.461   7.506 -0.3734 -3.6758 -1.5387
   54MOL   H19110897   8.152   6.415   7.346  1.5703 -2.0763  1.5137
   54MOL   C19210898   8.346   6.477   7.368 -0.1125  0.1236  0.1146
   54MOL   C19310899   8.392   6.329   7.361 -0.5234  0.0906  0.1587
   54MOL  Cl19410900   8.376   6.262   7.208  0.0891  0.0563  0.2555
   54MOL   C19510901   8.410   6.256   7.468  0.0776  0.7165 -0.5242
   54MOL   C19610902   8.411   6.318   7.606 -0.3649 -0.3159 -0.2324
   54MOL   H19710903   8.417   6.534   7.428 -0.2108  1.5458 -1.0989
   54MOL   H19810904   8.369   6.517   7.269 -1.8448 -1.1660 -0.8377
   54MOL   H19910905   0.004   6.149   7.469  0.6301  0.8097  1.1826
   54MOL   H20010906   0.084   6.371   7.621 -0.3237 -0.3397 -0.4111
   54MOL   H20110907   8.398   6.235   7.675  1.2532 -1.1365 -0.9138
   54MOL   H20210908   8.338   6.398   7.620 -1.4076 -1.0941 -1.1370
   55MOL     C110909   1.585   7.821   4.159 -0.1546  0.2477  0.7464
   55MOL     C210910   1.446   7.757   4.150  0.2764 -0.1949  0.4991
   55MOL    Cl310911   1.318   7.874   4.142  0.2120  0.5491 -0.0512
   55MOL     C410912   1.422   7.625   4.151  0.3289  0.4049 -0.3239
   55MOL     C510913   1.531   7.517   4.161 -0.0551  0.9736  0.3237
   55MOL     H610914   1.586   7.921   4.115  0.3652 -0.4841 -0.9122
   55MOL     H710915   1.666   7.760   4.119 -0.6321  0.2942 -0.2939
   55MOL     H810916   1.321   7.587   4.153  0.3340  0.3401 -1.1796
   55MOL     H910917   1.629   7.560   4.183 -0.1376  0.2730  2.1905
   55MOL    H1010918   1.510   7.451   4.246  0.6053  1.2234  0.6842
   55MOL    H1110919   1.613   7.825   4.265  0.3381  1.3009  0.5914
   55MOL    C1210920   1.519   7.423   4.043  0.1962  0.6307 -0.5250
   55MOL    C1310921   1.612   7.306   4.046  0.3169  0.0438  0.5186
   55MOL   Cl1410922   1.689   7.287   4.194  0.2921 -0.1723  0.3125
   55MOL    C1510923   1.642   7.233   3.938 -0.5806  0.3655  0.1544
   55MOL    C1610924   1.586   7.244   3.798 -0.6137  0.2473  0.0423
   55MOL    H1710925   1.421   7.377   4.037 -0.7325  2.1057  2.2254
   55MOL    H1810926   1.542   7.480   3.953  0.5673 -1.1357 -1.5699
   55MOL    H1910927   1.711   7.150   3.945  1.5014  1.9221 -1.2080
   55MOL    H2010928   1.572   7.148   3.749  2.0943 -0.0772 -0.1869
   55MOL    H2110929   1.492   7.297   3.813 -0.9422 -0.1607 -0.5685
   55MOL    C2210930   1.678   7.337   3.712 -0.0181 -0.2829 -0.0018
   55MOL    C2310931   1.621   7.365   3.573  0.1474 -0.4186 -1.3686
   55MOL   Cl2410932   1.668   7.245   3.456  0.0985  0.1714  0.0564
   55MOL    C2510933   1.519   7.453   3.553 -0.3632 -0.1039 -0.2266
   55MOL    C2610934   1.446   7.479   3.423  0.1175 -0.2245  0.8274
   55MOL    H2710935   1.697   7.435   3.756  0.1910 -0.7942  1.0670
   55MOL    H2810936   1.775   7.289   3.708  0.4188  0.5614  0.2776
   55MOL    H2910937   1.486   7.521   3.630  3.8508  0.2260  1.3772
   55MOL    H3010938   1.459   7.391   3.360  0.9835  1.7566 -1.8613
   55MOL    H3110939   1.339   7.479   3.444 -0.4725 -0.4923 -2.0092
   55MOL    C3210940   1.481   7.609   3.355 -0.1793  1.1828 -0.2064
   55MOL    C3310941   1.439   7.609   3.213  0.2172  0.5830  0.1185
   55MOL   Cl3410942   1.273   7.569   3.195 -0.2154 -0.1340 -0.1123
   55MOL    C3510943   1.523   7.643   3.115 -0.1249  0.1259 -0.3662
   55MOL    C3610944   1.490   7.648   2.964  0.0701  0.4058 -0.0414
   55MOL    H3710945   1.427   7.688   3.406 -1.9666  0.7386 -1.3519
   55MOL    H3810946   1.586   7.639   3.361  0.2518 -0.8145  4.4528
   55MOL    H3910947   1.622   7.677   3.141  1.1707 -2.1153 -2.1994
   55MOL    H4010948   1.558   7.582   2.911 -2.0187 -0.7349 -1.3830
   55MOL    H4110949   1.391   7.613   2.934  0.1513 -0.3678  0.5864
   55MOL    C4210950   1.507   7.790   2.912 -0.4898 -0.9329  0.9537
   55MOL    C4310951   1.439   7.811   2.779 -0.5247  0.3353  0.4663
   55MOL   Cl4410952   1.568   7.816   2.665  0.1619  0.0533 -0.0617
   55MOL    C4510953   1.311   7.809   2.753  0.3983 -0.5803 -0.0002
   55MOL    C4610954   1.198   7.817   2.854 -0.6365  0.2429  0.1053
   55MOL    H4710955   1.458   7.866   2.974  1.1665  1.0859 -0.1854
   55MOL    H4810956   1.611   7.821   2.905 -1.0636  0.9545  0.4717
   55MOL    H4910957   1.279   7.813   2.650  0.7808 -2.6406 -0.2234
   55MOL    H5010958   1.225   7.835   2.958 -0.8594 -0.2509  0.2494
   55MOL    H5110959   1.139   7.907   2.834 -0.1451  0.2594 -1.3225
   55MOL    C5210960   1.115   7.685   2.862 -0.2484 -0.1067 -1.1213
   55MOL    C5310961   0.983   7.719   2.924  0.0763  0.1015  0.3984
   55MOL   Cl5410962   0.993   7.853   3.041 -0.0090 -0.1918 -0.0636
   55MOL    C5510963   0.865   7.660   2.907 -0.1891 -0.0540  0.7104
   55MOL    C5610964   0.734   7.689   2.981 -0.9369 -0.4057  0.5846
   55MOL    H5710965   1.102   7.641   2.763 -0.9013 -1.4383 -0.4586
   55MOL    H5810966   1.163   7.609   2.924 -0.1414  1.2027  0.4414
   55MOL    H5910967   0.851   7.580   2.836  0.6490  0.1816  0.2693
   55MOL    H6010968   0.749   7.729   3.081 -1.7608  0.7776  0.2502
   55MOL    H6110969   0.673   7.763   2.930 -1.4112 -0.3754  1.1823
   55MOL    C6210970   0.648   7.563   3.006 -0.3616 -0.2858 -0.3439
   55MOL    C6310971   0.560   7.514   2.887  0.1161  0.0379  0.1642
   55MOL   Cl6410972   0.609   7.364   2.830  0.5217  0.3595  0.0633
   55MOL    C6510973   0.455   7.583   2.840  0.5842  1.1071  0.2488
   55MOL    C6610974   0.368   7.531   2.722  0.1280 -0.1131 -0.3195
   55MOL    H6710975   0.717   7.483   3.033  0.3374  0.3208 -0.3197
   55MOL    H6810976   0.587   7.579   3.095  0.7848 -1.6332  0.7273
   55MOL    H6910977   0.434   7.683   2.875 -3.6866  0.1644  0.7366
   55MOL    H7010978   0.409   7.439   2.681  2.9878 -0.2323  2.5697
   55MOL    H7110979   0.376   7.607   2.644  2.0535  0.1017  0.0597
   55MOL    C7210980   0.222   7.518   2.757 -0.1499 -0.5332 -0.3459
   55MOL    C7310981   0.132   7.634   2.707  0.4670  0.2312 -0.5215
   55MOL   Cl7410982   0.175   7.789   2.771  0.0986 -0.0628 -0.3642
   55MOL    C7510983   0.023   7.614   2.636  0.3574  0.0815 -0.1977
   55MOL    C7610984   8.350   7.729   2.585 -0.5769 -0.0031  0.0067
   55MOL    H7710985   0.194   7.508   2.862 -2.5064  0.7610 -0.8000
   55MOL    H7810986   0.187   7.428   2.706 -2.3723  0.4676 -0.6522
   55MOL    H7910987   8.411   7.514   2.614 -0.9343  0.4565 -0.0053
   55MOL    H8010988   8.371   7.744   2.480 -0.7372  1.2101  0.1374
   55MOL    H8110989   8.374   7.822   2.637 -1.8930 -0.7375  1.9883
   55MOL    C8210990   8.202   7.693   2.604 -0.4081  0.7924 -0.0955
   55MOL    C8310991   8.116   7.806   2.572 -0.4188 -0.3479  0.1458
   55MOL   Cl8410992   8.152   7.880   2.416 -0.5018 -0.0699 -0.3363
   55MOL    C8510993   8.020   7.846   2.656 -1.0232 -0.0241  0.5168
   55MOL    C8610994   7.930   7.968   2.628 -0.3091  0.6524 -0.4095
   55MOL    H8710995   8.189   7.652   2.704  2.1950 -1.7193 -0.7334
   55MOL    H8810996   8.180   7.617   2.529  0.1568  1.0893 -0.5647
   55MOL    H8910997   8.001   7.801   2.753  1.0289  0.3801  1.1245
   55MOL    H9010998   7.932   8.031   2.717  1.6031  1.0559 -0.7201
   55MOL    H9110999   7.978   8.025   2.549  0.6571 -2.2211 -1.9609
   55MOL    C9211000   7.788   7.926   2.589  0.1262  0.0765 -0.1334
   55MOL    C9311001   7.693   8.046   2.561  0.3734 -0.3515 -0.1544
   55MOL   Cl9411002   7.546   8.051   2.653 -0.3635 -0.1123 -0.2838
   55MOL    C9511003   7.710   8.144   2.467 -0.1854 -0.4026  0.7756
   55MOL    C9611004   7.815   8.156   2.356 -0.1187  0.8037 -0.0797
   55MOL    H9711005   7.745   7.876   2.676 -2.1447  0.4059 -1.0184
   55MOL    H9811006   7.789   7.857   2.505 -1.8703 -0.3455  0.1555
   55MOL    H9911007   7.644   8.229   2.465 -0.6438 -0.7602  0.3630
   55MOL   H10011008   7.881   8.236   2.389  0.8147 -0.4896  1.2485
   55MOL   H10111009   7.874   8.065   2.345  0.3223  1.0406  0.2926
   55MOL   C10211010   7.746   8.210   2.229 -0.1119 -0.0766  0.2528
   55MOL   C10311011   7.838   8.257   2.116 -0.2985 -0.0604 -0.1394
   55MOL  Cl10411012   7.798   8.179   1.971 -0.0597  0.2616  0.2750
   55MOL   C10511013   7.939   8.345   2.119 -0.0532  0.6516 -0.8084
   55MOL   C10611014   8.020   8.391   1.998 -0.1304  0.4023  0.2068
   55MOL   H10711015   7.678   8.134   2.192  0.7606 -0.6411 -0.2232
   55MOL   H10811016   7.686   8.299   2.249 -1.3693 -0.7293 -0.5585
   55MOL   H10911017   7.976   8.393   2.208 -0.4457  0.1118 -0.3520
   55MOL   H11011018   8.110   0.003   2.049 -0.1416  0.2828  0.3041
   55MOL   H11111019   8.052   8.321   1.921 -1.6807  2.5622 -2.4946
   55MOL   C11211020   7.951   0.094   1.939 -0.1239  0.1199  0.0553
   55MOL   C11311021   8.046   0.187   1.866 -0.0728 -0.3147 -0.3372
   55MOL  Cl11411022   8.073   0.137   1.699 -0.2695 -0.2103  0.7022
   55MOL   C11511023   8.111   0.291   1.920  0.6283  0.2835 -0.3936
   55MOL   C11611024   8.115   0.337   2.065  0.8248 -0.1811 -0.6111
   55MOL   H11711025   7.880   0.070   1.859  0.7314  0.1311 -0.7165
   55MOL   H11811026   7.898   0.157   2.009 -2.7162 -0.8920 -0.9212
   55MOL   H11911027   8.178   0.354   1.862  1.7060  0.3516  0.8926
   55MOL   H12011028   8.218   0.327   2.098  0.8106  0.0264 -0.4989
   55MOL   H12111029   8.046   0.277   2.125  1.7831 -0.6035  0.0703
   55MOL   C12211030   8.055   0.475   2.090  0.2361 -0.5208 -0.4204
   55MOL   C12311031   8.134   0.592   2.051 -0.4724  0.2310 -0.3900
   55MOL  Cl12411032   8.058   0.681   1.927  0.0737  0.2220  0.0555
   55MOL   C12511033   8.246   0.631   2.109 -0.4674 -0.2263  0.3022
   55MOL   C12611034   8.312   0.561   2.224 -0.0082 -0.7326  0.5761
   55MOL   H12711035   7.953   0.478   2.052  0.3468  2.5541 -0.6288
   55MOL   H12811036   8.030   0.484   2.195  1.2026  1.3548 -0.3286
   55MOL   H12911037   8.290   0.722   2.072 -2.6127  1.3091  1.4616
   55MOL   H13011038   8.287   0.622   2.311 -0.8077 -1.2515  0.7236
   55MOL   H13111039   8.268   0.462   2.241 -1.4652  0.1284  1.8697
   55MOL   C13211040   0.043   0.549   2.196  0.3000  0.7191  0.0936
   55MOL   C13311041   0.126   0.492   2.314 -0.2904 -0.5098 -0.1914
   55MOL  Cl13411042   0.229   0.612   2.390 -0.1449  0.5458  0.0674
   55MOL   C13511043   0.125   0.365   2.360 -0.8902  0.9155  0.7694
   55MOL   C13611044   0.043   0.256   2.311 -0.6755 -0.6635 -0.1501
   55MOL   H13711045   0.060   0.484   2.110 -0.1614  1.0195 -0.2185
   55MOL   H13811046   0.087   0.646   2.171 -0.3898  1.1610  0.5767
   55MOL   H13911047   0.192   0.339   2.441 -0.9225 -0.7175  0.2897
   55MOL   H14011048   0.026   0.185   2.391 -1.1474  0.1144  0.4498
   55MOL   H14111049   8.360   0.277   2.283 -0.3581  0.6503 -0.4182
   55MOL   C14211050   0.091   0.177   2.189 -0.5574  0.1992  0.4214
   55MOL   C14311051   0.237   0.136   2.199 -0.2186  0.1538  1.0738
   55MOL  Cl14411052   0.275   0.040   2.334  0.3169 -0.4625  0.0741
   55MOL   C14511053   0.334   0.159   2.109 -0.1621 -0.0858 -0.1813
   55MOL   C14611054   0.475   0.112   2.122  0.0768  0.5414 -0.0701
   55MOL   H14711055   0.089   0.241   2.101  0.2551 -1.1380 -0.5815
   55MOL   H14811056   0.027   0.091   2.168  0.3951 -0.4688  0.2241
   55MOL   H14911057   0.318   0.214   2.018  0.3034  0.0543 -0.1771
   55MOL   H15011058   0.538   0.200   2.110 -1.1961  1.2276 -2.0236
   55MOL   H15111059   0.487   0.079   2.225  2.0756 -0.6331 -0.6409
   55MOL   C15211060   0.500   8.406   2.035  1.0290  0.9121  0.5355
   55MOL   C15311061   0.435   8.278   2.080  0.3120 -1.0924 -0.0817
   55MOL  Cl15411062   0.500   8.214   2.221  0.0935 -0.0574  0.1770
   55MOL   C15511063   0.335   8.220   2.014  0.1417 -0.2069  0.2320
   55MOL   C15611064   0.279   8.082   2.054  0.0333 -0.0543  0.2920
   55MOL   H15711065   0.469   8.415   1.931  1.6538  0.1360  0.2741
   55MOL   H15811066   0.607   8.388   2.035  0.9041  0.0587 -1.1698
   55MOL   H15911067   0.289   8.257   1.923  0.6522  0.1703  0.1233
   55MOL   H16011068   0.191   8.093   2.117  0.9535  0.6104  1.5017
   55MOL   H16111069   0.352   8.027   2.114 -0.4194  2.0153  2.8406
   55MOL   C16211070   0.245   8.003   1.922  0.0320  0.8256 -0.2948
   55MOL   C16311071   0.186   7.868   1.942 -0.2476  0.8282  0.1604
   55MOL  Cl16411072   0.132   7.795   1.794  0.2429 -0.0225 -0.1186
   55MOL   C16511073   0.152   7.812   2.059 -0.1268  0.0044  0.0793
   55MOL   C16611074   0.074   7.680   2.089 -0.6145  0.5704 -0.2020
   55MOL   H16711075   0.180   8.071   1.866 -1.7335  0.1844  0.9163
   55MOL   H16811076   0.338   7.996   1.867  1.3773 -2.0246  2.2392
   55MOL   H16911077   0.185   7.866   2.147  0.5146  1.0224 -0.7792
   55MOL   H17011078   0.036   7.644   1.994 -2.2124  1.4177  0.0865
   55MOL   H17111079   0.140   7.612   2.143  0.3452  0.3347 -1.6331
   55MOL   C17211080   8.371   7.703   2.173 -0.5840 -0.2429 -0.5774
   55MOL   C17311081   8.271   7.585   2.165 -0.3298  0.2979 -0.3180
   55MOL  Cl17411082   8.296   7.476   2.295 -0.0582  0.7069  0.6721
   55MOL   C17511083   8.184   7.557   2.064 -0.3832 -0.4888 -0.2496
   55MOL   C17611084   8.093   7.441   2.060 -0.0102  0.1592 -0.4291
   55MOL   H17711085   8.311   7.783   2.130  0.2518  0.2947 -0.7568
   55MOL   H17811086   8.397   7.730   2.275  1.2435 -1.9420 -0.5496
   55MOL   H17911087   8.177   7.627   1.982  0.2536  0.4962  0.5226
   55MOL   H18011088   8.138   7.361   2.118 -2.4646  0.6266  2.2026
   55MOL   H18111089   8.090   7.411   1.955 -0.1467  0.2506 -0.4516
   55MOL   C18211090   7.943   7.464   2.107 -0.4560  0.2746  0.1523
   55MOL   C18311091   7.929   7.470   2.253 -0.3169  0.0746  0.0688
   55MOL  Cl18411092   7.925   7.620   2.324  0.1411  0.0987 -0.0779
   55MOL   C18511093   7.912   7.352   2.321  0.0307 -0.0734 -0.2597
   55MOL   C18611094   7.900   7.336   2.473 -0.3649 -0.1259 -0.2916
   55MOL   H18711095   7.901   7.550   2.055  0.4628 -0.4892 -1.9088
   55MOL   H18811096   7.885   7.379   2.072  0.3608 -1.4431  2.8385
   55MOL   H18911097   7.899   7.261   2.264 -1.9346 -0.1183  0.2104
   55MOL   H19011098   7.908   7.429   2.530  0.4830 -1.3160  1.5876
   55MOL   H19111099   7.800   7.292   2.484 -0.7945  1.2098  1.3052
   55MOL   C19211100   7.993   7.230   2.534  0.2716  0.1321  0.1490
   55MOL   C19311101   8.007   7.228   2.682 -0.1080 -0.7239 -0.2520
   55MOL  Cl19411102   8.119   7.347   2.733  0.5495  0.0927  0.1404
   55MOL   C19511103   7.964   7.140   2.769  0.2168  0.8510  0.0104
   55MOL   C19611104   7.868   7.019   2.749  0.6697 -0.4581  0.0654
   55MOL   H19711105   8.096   7.234   2.501 -0.6481  1.9901 -2.6356
   55MOL   H19811106   7.951   7.135   2.502  0.0735  0.6627 -1.1962
   55MOL   H19911107   8.002   7.161   2.868  2.6643 -0.9894 -0.4630
   55MOL   H20011108   7.808   7.011   2.658  0.5216 -1.4855  0.2452
   55MOL   H20111109   7.804   7.020   2.837  2.4875  2.2130  1.4302
   55MOL   H20211110   7.931   6.931   2.765 -0.1784 -0.8875  1.1094
   56MOL     C111111   0.905   1.281   1.123 -0.0270 -0.2411  0.7843
   56MOL     C211112   0.912   1.367   1.249 -0.3846  0.0176 -0.2019
   56MOL    Cl311113   0.864   1.526   1.209 -0.3646 -0.2479 -0.2084
   56MOL     C411114   0.937   1.325   1.371 -0.6434  0.2224 -0.6703
   56MOL     C511115   0.985   1.183   1.400  0.3672  0.0328  1.1727
   56MOL     H611116   0.883   1.177   1.146 -1.4799  0.1496  1.2222
   56MOL     H711117   1.002   1.290   1.074  0.9755  1.3138  2.9723
   56MOL     H811118   0.921   1.393   1.454 -1.4914  0.1835 -0.7982
   56MOL     H911119   0.913   1.108   1.434  0.6558 -1.2708 -1.0138
   56MOL    H1011120   1.019   1.141   1.305 -0.4257  1.8677  0.0649
   56MOL    H1111121   0.822   1.316   1.062 -0.1910  0.9968  1.6922
   56MOL    C1211122   1.091   1.171   1.509  0.3028  0.2630  0.6807
   56MOL    C1311123   1.157   1.037   1.511 -0.2941  0.3826  0.3061
   56MOL   Cl1411124   1.307   1.035   1.430  0.3160  0.0910  0.0754
   56MOL    C1511125   1.128   0.933   1.585  0.5338 -0.2204 -0.2273
   56MOL    C1611126   1.007   0.917   1.672  0.3876  0.2274  0.1458
   56MOL    H1711127   1.177   1.233   1.484 -0.7969  0.2715 -3.4496
   56MOL    H1811128   1.061   1.191   1.612  1.5508 -1.2752  1.3550
   56MOL    H1911129   1.190   0.845   1.575 -0.1943 -0.6626 -0.9206
   56MOL    H2011130   1.037   0.920   1.777 -0.2754 -1.8673  0.4385
   56MOL    H2111131   0.948   1.005   1.648 -0.0804  0.2274  1.2197
   56MOL    C2211132   0.922   0.795   1.649  0.1220 -1.1726  0.8226
   56MOL    C2311133   0.781   0.804   1.708  0.5073 -0.0964  0.1188
   56MOL   Cl2411134   0.776   0.745   1.868  0.0164  0.2046  0.0439
   56MOL    C2511135   0.671   0.819   1.642  0.2050 -0.3800 -0.1076
   56MOL    C2611136   0.529   0.803   1.689  0.2925  0.8481  0.5027
   56MOL    H2711137   0.926   0.787   1.541  4.1459  0.5431  0.7483
   56MOL    H2811138   0.977   0.713   1.696  2.4185 -0.7223 -1.0092
   56MOL    H2911139   0.682   0.847   1.538 -1.0914 -0.0195 -0.1584
   56MOL    H3011140   0.489   0.735   1.613 -0.5927  0.0401  1.6825
   56MOL    H3111141   0.520   0.741   1.778 -2.4258 -0.5215 -0.6381
   56MOL    C3211142   0.443   0.932   1.695  0.1999  0.0111 -0.5893
   56MOL    C3311143   0.500   1.031   1.803 -0.2448 -0.0973  0.2577
   56MOL   Cl3411144   0.506   1.192   1.737  0.0293  0.0123 -0.1636
   56MOL    C3511145   0.541   0.999   1.928  0.2446  0.0518  0.2442
   56MOL    C3611146   0.599   1.094   2.027  1.3644 -0.5519  0.8243
   56MOL    H3711147   0.433   0.978   1.597  2.1602  1.4863 -0.1359
   56MOL    H3811148   0.340   0.921   1.730 -0.1287 -1.6301 -1.9899
   56MOL    H3911149   0.531   0.896   1.961 -0.6237 -0.7150 -2.2672
   56MOL    H4011150   0.573   1.193   1.991  0.7457 -1.5527 -1.5197
   56MOL    H4111151   0.555   1.078   2.126  1.3560  4.3328  1.7348
   56MOL    C4211152   0.748   1.089   2.031 -0.2278 -0.1034  0.4259
   56MOL    C4311153   0.812   1.184   2.128 -0.0834  0.2463 -0.0326
   56MOL   Cl4411154   0.767   1.354   2.119  0.6850 -0.0789 -0.0814
   56MOL    C4511155   0.925   1.157   2.200 -0.1774  0.3720 -0.4076
   56MOL    C4611156   1.002   1.022   2.210 -0.3609  0.5353 -0.7515
   56MOL    H4711157   0.785   0.990   2.055 -0.6400 -0.1783  0.7605
   56MOL    H4811158   0.782   1.116   1.931 -0.6545 -0.5112  0.1645
   56MOL    H4911159   0.968   1.234   2.263 -0.0948 -1.2286  1.5752
   56MOL    H5011160   0.968   0.969   2.298  1.4285 -0.4621 -0.6479
   56MOL    H5111161   0.965   0.950   2.137  1.3941 -0.9287 -0.2397
   56MOL    C5211162   1.153   1.036   2.205  0.1736  0.3652 -0.0184
   56MOL    C5311163   1.224   1.080   2.330 -0.2251  0.1225  0.3310
   56MOL   Cl5411164   1.288   1.242   2.308  0.2477  0.0517 -0.1208
   56MOL    C5511165   1.230   1.005   2.441  0.0371  0.1743  0.2059
   56MOL    C5611166   1.280   1.041   2.578  0.0746 -0.2254 -0.2356
   56MOL    H5711167   1.192   0.938   2.178  2.5753  1.5602 -1.0296
   56MOL    H5811168   1.180   1.105   2.126 -1.7358  2.6239  1.2420
   56MOL    H5911169   1.185   0.908   2.427  1.2461 -0.4090  0.2918
   56MOL    H6011170   1.330   0.955   2.624  1.2860  0.8289  0.4669
   56MOL    H6111171   1.351   1.123   2.570 -2.1526  1.7208 -0.3590
   56MOL    C6211172   1.155   1.077   2.661  0.0010 -0.4197  0.3055
   56MOL    C6311173   1.181   1.128   2.803 -0.4543  0.4572 -0.5369
   56MOL   Cl6411174   1.077   1.027   2.909  0.0029 -0.0362  0.0411
   56MOL    C6511175   1.261   1.231   2.845 -0.3508  0.4934  0.3864
   56MOL    C6611176   1.261   1.295   2.983  0.4983  0.4068 -0.7889
   56MOL    H6711177   1.105   1.160   2.611  0.1109 -0.5172  0.0360
   56MOL    H6811178   1.085   0.994   2.658  0.6251 -0.9410  0.0928
   56MOL    H6911179   1.326   1.286   2.779 -1.0424  0.0329 -0.7106
   56MOL    H7011180   1.356   1.345   3.003  1.5983 -1.6988 -0.5022
   56MOL    H7111181   1.247   1.225   3.066  2.1880  1.7701  0.6943
   56MOL    C7211182   1.147   1.396   2.990  0.3195 -0.2528  0.2671
   56MOL    C7311183   1.136   1.464   3.124 -0.4541  0.6020 -0.6973
   56MOL   Cl7411184   1.254   1.589   3.135 -0.2232  0.0133  0.1800
   56MOL    C7511185   1.054   1.428   3.220 -0.1339 -0.1858 -0.5418
   56MOL    C7611186   1.030   1.498   3.351 -0.7991 -0.2518 -0.1830
   56MOL    H7711187   1.054   1.349   2.958  1.3515  0.4694 -4.0762
   56MOL    H7811188   1.156   1.478   2.919  0.1891  0.1608  0.7215
   56MOL    H7911189   0.990   1.342   3.206 -1.5524  0.4471  1.7048
   56MOL    H8011190   0.933   1.546   3.336 -0.6739 -0.0434 -0.3118
   56MOL    H8111191   1.092   1.587   3.359 -0.4268 -0.4781 -0.5404
   56MOL    C8211192   1.041   1.406   3.470 -0.1666 -0.0496  0.2569
   56MOL    C8311193   1.004   1.484   3.594  0.4122  0.2878 -0.4804
   56MOL   Cl8411194   0.855   1.424   3.665  0.0493 -0.0843  0.0213
   56MOL    C8511195   1.067   1.588   3.648  0.4774  0.1687 -0.5926
   56MOL    C8611196   1.023   1.667   3.769 -1.1632  0.0293  0.6412
   56MOL    H8711197   1.142   1.365   3.476 -0.9431 -2.0452  0.0885
   56MOL    H8811198   0.985   1.315   3.449 -0.3902  0.4225 -1.2639
   56MOL    H8911199   1.155   1.632   3.604  0.2842 -1.0935 -2.2841
   56MOL    H9011200   0.964   1.603   3.835 -1.8940 -0.9478 -0.9104
   56MOL    H9111201   1.113   1.696   3.822 -0.0859  0.8968 -1.5741
   56MOL    C9211202   0.956   1.804   3.727 -0.1024 -0.4199 -0.1106
   56MOL    C9311203   1.047   1.908   3.666 -0.2512 -0.0097 -0.1668
   56MOL   Cl9411204   0.979   1.960   3.516 -0.0697  0.0460 -0.3068
   56MOL    C9511205   1.159   1.956   3.729  0.5064 -0.0276 -0.2731
   56MOL    C9611206   1.199   1.932   3.876  0.0926  0.5634 -0.1497
   56MOL    H9711207   0.901   1.855   3.806 -0.1922  1.2108 -1.1997
   56MOL    H9811208   0.874   1.778   3.661 -0.2152 -0.9233  0.2302
   56MOL    H9911209   1.216   2.025   3.669 -2.2290  1.8922 -0.7315
   56MOL   H10011210   1.131   1.868   3.933  0.9075  0.8216  1.1301
   56MOL   H10111211   1.279   1.859   3.866  2.5236  2.8621  1.7062
   56MOL   C10211212   1.257   2.049   3.955 -0.2959 -0.0128  0.3812
   56MOL   C10311213   1.301   2.015   4.098  0.0370  0.5584  0.2039
   56MOL  Cl10411214   1.181   2.046   4.221  0.4030 -0.7145  0.2877
   56MOL   C10511215   1.425   1.977   4.127 -0.1642 -0.3409 -0.6745
   56MOL   C10611216   1.493   1.945   4.267  1.0238 -0.6993 -0.0932
   56MOL   H10711217   1.341   2.104   3.912 -1.8556  0.7236 -1.8365
   56MOL   H10811218   1.183   2.127   3.972 -0.4178 -0.4814  2.0719
   56MOL   H10911219   1.484   1.953   4.040 -1.3423 -0.4876 -1.4443
   56MOL   H11011220   1.545   2.032   4.307 -0.4207  0.1175  0.0354
   56MOL   H11111221   1.411   1.913   4.331  0.5506  1.5003  0.4504
   56MOL   C11211222   1.585   1.826   4.262  0.0164 -0.1731  0.7777
   56MOL   C11311223   1.597   1.752   4.394  0.0323 -0.3202  0.4169
   56MOL  Cl11411224   1.659   1.857   4.514 -0.2975  0.1449  0.2042
   56MOL   C11511225   1.568   1.624   4.420 -0.8915 -0.1132 -0.0608
   56MOL   C11611226   1.517   1.522   4.324  0.0035  0.6403  0.3030
   56MOL   H11711227   1.560   1.756   4.183 -0.0469  1.3369 -0.5686
   56MOL   H11811228   1.685   1.868   4.248 -0.3939  0.4370 -0.3833
   56MOL   H11911229   1.576   1.589   4.522 -0.3017 -2.5856 -0.9354
   56MOL   H12011230   1.578   1.434   4.344 -1.3015  0.3936  3.4858
   56MOL   H12111231   1.530   1.540   4.218  0.4551  2.2959  0.6192
   56MOL   C12211232   1.362   1.492   4.341  0.5668 -0.3714  0.3851
   56MOL   C12311233   1.272   1.597   4.282 -0.1835  0.2494 -0.3100
   56MOL  Cl12411234   1.242   1.567   4.114 -0.2242 -0.4084  0.1976
   56MOL   C12511235   1.195   1.693   4.341 -0.2888  0.3027 -0.1534
   56MOL   C12611236   1.196   1.727   4.490  0.9005 -0.0212  0.4932
   56MOL   H12711237   1.326   1.402   4.289  0.6104  0.2229 -0.6817
   56MOL   H12811238   1.354   1.473   4.448 -1.6665  1.3737  0.5579
   56MOL   H12911239   1.126   1.748   4.280 -0.1984 -1.2422 -1.7039
   56MOL   H13011240   1.262   1.667   4.553 -0.3998 -2.5777 -0.4930
   56MOL   H13111241   1.226   1.830   4.506  2.0610 -0.5405  1.8178
   56MOL   C13211242   1.052   1.698   4.545  0.1410  0.0735 -0.4616
   56MOL   C13311243   1.064   1.699   4.699 -0.0509  0.4319  0.5899
   56MOL  Cl13411244   1.093   1.543   4.768  0.2018  0.1475  0.1891
   56MOL   C13511245   1.050   1.811   4.773 -0.0758 -0.5868 -0.3232
   56MOL   C13611246   1.008   1.950   4.727  0.1547  0.3677  0.8333
   56MOL   H13711247   0.978   1.767   4.504 -0.1913  0.5075  0.8525
   56MOL   H13811248   1.019   1.598   4.514  1.2956 -0.0596 -1.2920
   56MOL   H13911249   1.067   1.808   4.879  2.0401  3.1235 -0.4898
   56MOL   H14011250   0.985   1.954   4.620 -2.6482  1.7078  1.4520
   56MOL   H14111251   0.914   1.958   4.782  0.1404  0.0485  0.8568
   56MOL   C14211252   1.098   2.062   4.770  1.2350 -0.1919  0.2276
   56MOL   C14311253   1.239   2.060   4.705  0.3725 -0.1328  0.1797
   56MOL  Cl14411254   1.347   1.957   4.790 -0.1536  0.5738 -0.4017
   56MOL   C14511255   1.272   2.135   4.596  0.0611  0.4305  0.2580
   56MOL   C14611256   1.416   2.145   4.536  0.1437  0.1161 -0.1359
   56MOL   H14711257   1.100   2.069   4.879 -2.5264 -0.1809  0.3528
   56MOL   H14811258   1.063   2.159   4.736 -2.6403 -1.7655 -0.5071
   56MOL   H14911259   1.197   2.194   4.546 -0.1982  0.8551  1.1403
   56MOL   H15011260   1.466   2.048   4.545 -0.1862 -0.1545 -1.1542
   56MOL   H15111261   1.402   2.165   4.430  1.4154 -1.6334 -0.6617
   56MOL   C15211262   1.493   2.260   4.608 -0.2682  0.7837  0.0680
   56MOL   C15311263   1.635   2.257   4.555  0.8156 -0.3460 -0.0525
   56MOL  Cl15411264   1.663   2.366   4.417 -0.1790  0.0667 -0.2714
   56MOL   C15511265   1.726   2.178   4.622  0.1492 -0.1516  0.2429
   56MOL   C15611266   1.873   2.176   4.596  0.3471  0.2978 -0.9709
   56MOL   H15711267   1.453   2.356   4.575  1.7836  1.9774  1.0065
   56MOL   H15811268   1.501   2.262   4.716 -3.3336 -0.3239  0.3730
   56MOL   H15911269   1.698   2.119   4.708 -0.0019 -2.6313 -1.4885
   56MOL   H16011270   1.879   2.258   4.524  1.3630 -0.0660 -1.3104
   56MOL   H16111271   1.892   2.081   4.544  0.6230 -0.3373  0.2762
   56MOL   C16211272   1.963   2.207   4.723 -0.0400  0.2327 -0.5671
   56MOL   C16311273   2.114   2.196   4.705  0.0920  0.2578  0.0997
   56MOL  Cl16411274   2.186   2.333   4.638  0.1408 -0.1025  0.0979
   56MOL   C16511275   2.180   2.088   4.743 -0.2734 -0.2724 -0.5721
   56MOL   C16611276   2.328   2.062   4.727  0.2850  0.4451 -0.1384
   56MOL   H16711277   1.938   2.313   4.734 -0.1478  0.0976  0.5758
   56MOL   H16811278   1.920   2.161   4.812  0.0042  0.7210 -0.2917
   56MOL   H16911279   2.118   2.009   4.782  1.1164 -0.7927  0.6442
   56MOL   H17011280   2.376   2.152   4.688 -1.2253 -0.1672 -3.6767
   56MOL   H17111281   2.362   2.046   4.829 -1.8158 -0.5227  0.4514
   56MOL   C17211282   2.358   1.945   4.626 -0.6028  0.2856 -0.2313
   56MOL   C17311283   2.506   1.910   4.609  0.1095  0.0502 -0.1906
   56MOL  Cl17411284   2.538   1.743   4.613  0.2418 -0.1242 -0.2868
   56MOL   C17511285   2.603   1.998   4.577  0.2335 -0.2716  0.5175
   56MOL   C17611286   2.753   1.969   4.555 -0.3778  0.1851  0.0383
   56MOL   H17711287   2.329   1.976   4.526  0.0460  1.0271 -0.1986
   56MOL   H17811288   2.294   1.861   4.651 -1.7306  1.4535  0.9352
   56MOL   H17911289   2.600   2.106   4.577  2.3792 -0.1890 -1.5228
   56MOL   H18011290   2.778   2.035   4.472 -0.3178 -1.7170 -1.5201
   56MOL   H18111291   2.776   1.864   4.533  0.1751  0.3028  0.0446
   56MOL   C18211292   2.843   1.997   4.682  0.1416 -0.5715 -0.4529
   56MOL   C18311293   2.993   1.987   4.663  0.1520 -0.6761  0.2288
   56MOL  Cl18411294   3.080   2.012   4.813  0.3162 -0.4539 -0.0858
   56MOL   C18511295   3.052   1.958   4.550 -0.2576 -0.1583 -0.1206
   56MOL   C18611296   3.202   1.951   4.524  1.6715  0.8536 -0.9891
   56MOL   H18711297   2.819   2.095   4.724 -0.5534 -1.3482  1.0066
   56MOL   H18811298   2.821   1.926   4.762  1.1223  0.4394  0.7342
   56MOL   H18911299   2.988   1.934   4.466  0.2948  2.0474 -1.2108
   56MOL   H19011300   3.220   2.021   4.442 -2.0367  2.5413 -0.4963
   56MOL   H19111301   3.249   1.987   4.615  2.0166  0.5019 -1.0311
   56MOL   C19211302   3.259   1.812   4.477  0.5096  0.1330  0.5347
   56MOL   C19311303   3.397   1.822   4.421 -0.2398 -0.5253  0.7306
   56MOL  Cl19411304   3.402   1.873   4.252  0.1985  0.3537 -0.1507
   56MOL   C19511305   3.512   1.794   4.493 -0.6644 -0.8479 -0.0416
   56MOL   C19611306   3.512   1.766   4.639  0.2106 -0.1035  0.3238
   56MOL   H19711307   3.199   1.770   4.396  3.2743 -0.7940 -1.0838
   56MOL   H19811308   3.251   1.743   4.561 -0.7006  0.5483  0.7759
   56MOL   H19911309   3.607   1.796   4.441 -1.6532 -1.3910 -1.9109
   56MOL   H20011310   3.611   1.763   4.685 -0.1701 -2.0942  1.0527
   56MOL   H20111311   3.469   1.670   4.665 -0.3063  0.2616  0.8340
   56MOL   H20211312   3.456   1.846   4.687  0.6282 -1.0163  2.4104
   57MOL     C111313   8.121   6.094   4.404 -0.7746 -0.4237  0.3410
   57MOL     C211314   8.147   6.112   4.256  0.6816  0.0349 -0.0780
   57MOL    Cl311315   8.233   6.260   4.224 -0.1544  0.1440  0.3473
   57MOL     C411316   8.119   6.031   4.152 -0.3234 -0.9045 -0.2341
   57MOL     C511317   8.063   5.889   4.168  0.0767 -0.8137  0.1249
   57MOL     H611318   8.026   6.047   4.431 -2.2189  1.6678 -0.8814
   57MOL     H711319   8.112   6.190   4.455  1.5352  1.0154 -1.8661
   57MOL     H811320   8.135   6.071   4.053 -1.5391 -0.2068 -0.1657
   57MOL     H911321   8.026   5.871   4.268  1.0605  2.0174  1.0725
   57MOL    H1011322   7.967   5.874   4.119  1.0101  0.4932 -2.1907
   57MOL    H1111323   8.192   6.034   4.461 -1.4744  0.4076  2.1288
   57MOL    C1211324   8.158   5.774   4.127 -0.0548  0.6974  0.5063
   57MOL    C1311325   8.222   5.790   3.991 -0.4353 -0.3625 -0.5222
   57MOL   Cl1411326   8.379   5.862   3.995  0.3377  0.0272 -0.1131
   57MOL    C1511327   8.175   5.750   3.869  0.7378  0.3555 -0.2501
   57MOL    C1611328   8.048   5.677   3.836 -0.6407 -0.1123 -0.2937
   57MOL    H1711329   8.239   5.754   4.199 -1.4419 -1.5141  1.5174
   57MOL    H1811330   8.101   5.681   4.128 -0.2723  0.8322  0.4034
   57MOL    H1911331   8.232   5.765   3.779 -0.5283 -1.9640 -1.4941
   57MOL    H2011332   8.074   5.576   3.805  0.9012 -0.4098  1.8658
   57MOL    H2111333   7.984   5.671   3.925 -0.7514 -2.0207 -0.4690
   57MOL    C2211334   7.961   5.734   3.724 -0.1427  0.1373  0.3786
   57MOL    C2311335   7.859   5.643   3.655 -0.4198  1.2718 -1.0859
   57MOL   Cl2411336   7.739   5.588   3.770 -0.2742  0.1799  0.2186
   57MOL    C2511337   7.848   5.624   3.520  0.3969  0.2287  0.2176
   57MOL    C2611338   7.740   5.545   3.439 -0.3844  0.2236 -0.3612
   57MOL    H2711339   7.902   5.823   3.750 -0.1888  0.2925 -0.2535
   57MOL    H2811340   8.035   5.766   3.651  0.1549  0.7212  0.9214
   57MOL    H2911341   7.926   5.674   3.465 -0.4332  0.3771 -0.8574
   57MOL    H3011342   7.780   5.488   3.355 -2.7982  1.0291 -2.1206
   57MOL    H3111343   7.693   5.475   3.508 -0.2746  0.4901 -0.0157
   57MOL    C3211344   7.638   5.646   3.383 -0.1136  0.2533  0.3772
   57MOL    C3311345   7.690   5.714   3.256  0.3531  0.8635 -0.5496
   57MOL   Cl3411346   7.722   5.890   3.275 -0.0640  0.0411  0.1234
   57MOL    C3511347   7.721   5.651   3.135 -0.3001 -0.5015 -0.0748
   57MOL    C3611348   7.779   5.718   3.019 -0.3113  0.0245 -0.0086
   57MOL    H3711349   7.543   5.599   3.360  0.5284 -0.4599 -0.8559
   57MOL    H3811350   7.613   5.723   3.456  1.4448  1.1814 -0.0316
   57MOL    H3911351   7.705   5.545   3.124 -0.8536 -0.5712  1.3075
   57MOL    H4011352   7.717   5.707   2.930  0.8552 -0.5953 -0.7657
   57MOL    H4111353   7.777   5.826   3.036  1.0381 -0.0005  0.3962
   57MOL    C4211354   7.925   5.663   2.984  0.0872  0.0719 -0.8286
   57MOL    C4311355   8.034   5.691   3.088 -0.2781  0.4739 -0.3396
   57MOL   Cl4411356   8.094   5.551   3.179 -0.2322 -0.0227  0.0072
   57MOL    C4511357   8.087   5.817   3.113 -0.0312  0.2735 -0.1004
   57MOL    C4611358   8.049   5.942   3.044  0.1527 -0.1711  0.1062
   57MOL    H4711359   7.915   5.554   2.980 -3.0214  0.2980 -0.2145
   57MOL    H4811360   7.952   5.709   2.889 -0.3059 -0.4253 -1.1854
   57MOL    H4911361   8.166   5.823   3.186 -1.3059  0.9443  1.2658
   57MOL    H5011362   7.972   5.929   2.968 -0.3336  3.4447 -0.1085
   57MOL    H5111363   8.002   6.011   3.114  1.0918 -0.6275  1.2033
   57MOL    C5211364   8.162   6.028   2.978 -0.3956  0.2593 -0.2757
   57MOL    C5311365   8.105   6.166   2.939 -0.0017 -0.5436  0.5551
   57MOL   Cl5411366   8.138   6.294   3.050  0.3650  0.0274  0.2215
   57MOL    C5511367   8.053   6.190   2.819 -0.4319  0.4513  0.2864
   57MOL    C5611368   8.004   6.326   2.776  0.2179 -0.0885 -0.3211
   57MOL    H5711369   8.246   6.049   3.044 -0.9735 -2.4898  1.4168
   57MOL    H5811370   8.208   5.978   2.893 -0.8918 -1.2098  0.2940
   57MOL    H5911371   8.058   6.115   2.741 -2.9219  1.7282 -1.1641
   57MOL    H6011372   7.899   6.321   2.745  0.3017 -1.0179 -0.4790
   57MOL    H6111373   7.990   6.394   2.861 -0.5957  0.6041 -0.9894
   57MOL    C6211374   8.082   6.395   2.664 -0.1113 -0.2849 -0.1198
   57MOL    C6311375   8.025   6.534   2.630 -0.0609  0.5913 -0.6271
   57MOL   Cl6411376   8.129   6.649   2.702  0.0997  0.4739 -0.3604
   57MOL    C6511377   7.919   6.557   2.550  0.5399  0.4713  0.5306
   57MOL    C6611378   7.870   6.693   2.519 -0.4868 -0.5974 -0.0019
   57MOL    H6711379   8.187   6.411   2.690  0.1153  1.1105 -1.7733
   57MOL    H6811380   8.089   6.336   2.573  0.4296  1.1217 -1.0046
   57MOL    H6911381   7.862   6.479   2.501 -2.0183  2.3812  0.3459
   57MOL    H7011382   7.952   6.763   2.532 -0.4226 -0.7822  0.5749
   57MOL    H7111383   7.782   6.723   2.576  0.4292 -0.4228  1.3391
   57MOL    C7211384   7.842   6.697   2.370  0.3389  0.0662  0.3618
   57MOL    C7311385   7.797   6.828   2.318  0.7657 -0.0485 -0.6093
   57MOL   Cl7411386   7.918   6.927   2.256 -0.0825  0.0711 -0.0153
   57MOL    C7511387   7.668   6.867   2.326  0.5154 -0.5465 -0.3304
   57MOL    C7611388   7.614   7.004   2.272 -0.1260  0.6946  0.6740
   57MOL    H7711389   7.756   6.631   2.358  0.6713 -0.7417  2.1852
   57MOL    H7811390   7.928   6.657   2.315 -0.2480 -1.0375  0.2231
   57MOL    H7911391   7.591   6.807   2.371 -0.7055  1.5959  0.4893
   57MOL    H8011392   7.538   6.975   2.198 -0.4225 -2.5396  2.1511
   57MOL    H8111393   7.686   7.070   2.225  1.5570 -1.8599 -0.4678
   57MOL    C8211394   7.564   7.089   2.384  0.4032 -0.5821 -0.2501
   57MOL    C8311395   7.500   7.221   2.362 -0.2351 -0.5437  0.1913
   57MOL   Cl8411396   7.349   7.243   2.459  0.1116  0.3584  0.4175
   57MOL    C8511397   7.548   7.316   2.275  0.2730 -0.3488 -0.4618
   57MOL    C8611398   7.480   7.447   2.248 -0.6678 -0.2428 -0.5761
   57MOL    H8711399   7.652   7.129   2.435  0.3896  0.3617 -0.9553
   57MOL    H8811400   7.494   7.026   2.439 -1.3182  1.2424 -0.3096
   57MOL    H8911401   7.641   7.294   2.223 -0.0216  2.0257 -2.0506
   57MOL    H9011402   7.443   7.451   2.146  0.9348 -2.5135 -1.3162
   57MOL    H9111403   7.396   7.454   2.317 -0.2505  0.0524 -0.0902
   57MOL    C9211404   7.568   7.575   2.262  0.3584 -0.0557 -0.2457
   57MOL    C9311405   7.515   7.686   2.354  0.6153 -0.0863 -0.3773
   57MOL   Cl9411406   7.448   7.826   2.278  0.2296 -0.0629 -0.0935
   57MOL    C9511407   7.519   7.675   2.487  0.0214  1.4931  0.2907
   57MOL    C9611408   7.583   7.564   2.572 -0.0150 -0.1833  0.0533
   57MOL    H9711409   7.557   7.631   2.169 -1.7926  0.1369  0.0809
   57MOL    H9811410   7.671   7.559   2.292  0.3961  0.3635 -0.1414
   57MOL    H9911411   7.479   7.759   2.541  0.4168  1.3009  0.8799
   57MOL   H10011412   7.635   7.491   2.511  0.3350  0.5722 -0.5547
   57MOL   H10111413   7.665   7.609   2.627  0.7142 -1.8653  0.3760
   57MOL   C10211414   7.490   7.489   2.676 -0.4160  0.2795  0.1812
   57MOL   C10311415   7.551   7.366   2.738  0.7268 -0.7263  0.5064
   57MOL  Cl10411416   7.721   7.375   2.759 -0.4146  0.0694 -0.4242
   57MOL   C10511417   7.480   7.261   2.789  0.2406 -0.5193  0.2304
   57MOL   C10611418   7.534   7.139   2.863 -0.3272 -0.6439  0.1436
   57MOL   H10711419   7.473   7.560   2.757 -1.9671  0.3136 -0.1698
   57MOL   H10811420   7.403   7.451   2.624  1.3394 -2.5312 -0.8285
   57MOL   H10911421   7.374   7.270   2.772  0.4918  0.1408 -1.0182
   57MOL   H11011422   7.515   7.050   2.803  1.7288 -0.8390 -0.2733
   57MOL   H11111423   7.642   7.137   2.878 -0.1998  0.2239 -0.6100
   57MOL   C11211424   7.473   7.123   3.003  0.6367 -0.1312  0.0990
   57MOL   C11311425   7.544   7.021   3.087 -0.1645  0.1590 -1.0137
   57MOL  Cl11411426   7.460   6.870   3.107 -0.1337  0.0780  0.0289
   57MOL   C11511427   7.663   7.039   3.141 -0.1215  0.3913 -0.0044
   57MOL   C11611428   7.754   7.166   3.139 -0.1768  0.2229  0.2763
   57MOL   H11711429   7.468   7.221   3.050 -2.7482  1.2838 -3.0140
   57MOL   H11811430   7.370   7.091   2.987  0.6932 -0.1929 -0.1356
   57MOL   H11911431   7.702   6.959   3.203  1.1440  0.7643 -0.3056
   57MOL   H12011432   7.691   7.242   3.094 -0.6154 -1.6036 -2.3413
   57MOL   H12111433   7.841   7.149   3.075 -0.1174  1.7743 -0.0627
   57MOL   C12211434   7.803   7.195   3.280  0.2452  0.3138 -0.5788
   57MOL   C12311435   7.950   7.147   3.297  0.4693 -0.1705  0.4407
   57MOL  Cl12411436   7.972   7.008   3.394 -0.2525  0.3483 -0.1558
   57MOL   C12511437   8.055   7.210   3.240  0.0118 -0.1728  0.0942
   57MOL   C12611438   8.061   7.327   3.141  0.1863  1.0361 -0.5069
   57MOL   H12711439   7.803   7.304   3.288  1.1024  0.1936  1.6096
   57MOL   H12811440   7.735   7.157   3.357  1.0029 -0.0371 -0.0777
   57MOL   H12911441   8.154   7.175   3.266 -0.3272 -1.0853  0.1680
   57MOL   H13011442   8.111   7.300   3.048  1.0253  2.1541 -0.3822
   57MOL   H13111443   7.959   7.344   3.107 -0.8060 -0.6478  1.4742
   57MOL   C13211444   8.135   7.452   3.206  0.6377 -0.0544  0.2142
   57MOL   C13311445   8.159   7.575   3.112 -1.2365  0.7653  1.0206
   57MOL  Cl13411446   8.330   7.571   3.086 -0.0107 -0.1008  0.2832
   57MOL   C13511447   8.075   7.664   3.072  0.1511  0.6863 -0.3167
   57MOL   C13611448   7.918   7.666   3.100 -0.4893 -0.1406 -0.6781
   57MOL   H13711449   8.071   7.480   3.290  0.2237 -1.2218  0.3047
   57MOL   H13811450   8.231   7.420   3.245  0.9064  0.7330  0.2021
   57MOL   H13911451   8.115   7.744   3.012  0.5743 -0.4216 -1.5384
   57MOL   H14011452   7.887   7.569   3.141  1.2439 -1.1650 -1.7269
   57MOL   H14111453   7.896   7.744   3.173 -0.4541 -0.1252 -0.6842
   57MOL   C14211454   7.838   7.690   2.967  0.1645 -0.3771 -0.6658
   57MOL   C14311455   7.687   7.668   2.988 -0.1909  0.5714  1.1623
   57MOL  Cl14411456   7.594   7.805   2.925 -0.1122  0.1799 -0.3431
   57MOL   C14511457   7.623   7.563   3.047  0.5048 -0.7429 -0.6446
   57MOL   C14611458   7.473   7.563   3.066 -0.1400 -0.1132 -0.0141
   57MOL   H14711459   7.857   7.625   2.881 -0.3615 -0.2669 -0.8693
   57MOL   H14811460   7.851   7.797   2.951  0.2143 -0.2666  0.1194
   57MOL   H14911461   7.679   7.473   3.068  2.1701  0.2677 -0.6674
   57MOL   H15011462   7.433   7.665   3.072 -0.2790 -0.1316 -0.6051
   57MOL   H15111463   7.428   7.518   2.977 -0.3976  0.4367 -0.1661
   57MOL   C15211464   7.443   7.506   3.205 -0.0620 -0.2975  1.0252
   57MOL   C15311465   7.306   7.515   3.272  0.8140 -0.0158 -0.2797
   57MOL  Cl15411466   7.181   7.482   3.161 -0.2117  0.1420  0.2480
   57MOL   C15511467   7.286   7.566   3.395 -0.1390 -0.0570  0.1849
   57MOL   C15611468   7.146   7.587   3.453  0.1398 -0.1259 -0.2648
   57MOL   H15711469   7.482   7.404   3.216 -0.6524 -0.3704  2.4534
   57MOL   H15811470   7.507   7.555   3.278  0.9823  0.6921 -0.5313
   57MOL   H15911471   7.368   7.599   3.457  0.3043 -0.7021 -0.0439
   57MOL   H16011472   7.060   7.533   3.415 -0.0129  0.7696 -1.2013
   57MOL   H16111473   7.120   7.688   3.421  2.2630 -0.4258 -3.1670
   57MOL   C16211474   7.146   7.567   3.604  0.0612  0.3597 -0.1653
   57MOL   C16311475   7.009   7.589   3.667  0.5017 -0.2154 -0.2949
   57MOL  Cl16411476   6.977   7.471   3.795  0.2653  0.4309 -0.1050
   57MOL   C16511477   6.912   7.671   3.620  0.4354  0.5082  0.4204
   57MOL   C16611478   6.770   7.675   3.666  0.3702 -0.2695  0.8713
   57MOL   H16711479   7.184   7.465   3.614 -0.4284  0.0230 -1.6784
   57MOL   H16811480   7.221   7.629   3.655  1.1211 -0.2602 -0.9426
   57MOL   H16911481   6.930   7.734   3.533  0.9299 -0.2898 -0.0614
   57MOL   H17011482   6.737   7.577   3.633  0.6991  0.2321 -1.0357
   57MOL   H17111483   6.767   7.685   3.775 -1.4057 -1.4798  0.9632
   57MOL   C17211484   6.682   7.794   3.607  0.6815  0.4577 -0.2330
   57MOL   C17311485   6.534   7.789   3.653  0.5617  0.4743  0.8498
   57MOL  Cl17411486   6.488   7.912   3.755 -0.0191 -0.1215 -0.0949
   57MOL   C17511487   6.439   7.705   3.608  0.2260 -0.1397 -0.5312
   57MOL   C17611488   6.294   7.696   3.654 -0.0792  0.7512 -0.5100
   57MOL   H17711489   6.693   7.786   3.499  0.1998 -0.5706 -0.2092
   57MOL   H17811490   6.731   7.886   3.640  0.4132  0.1632  1.0220
   57MOL   H17911491   6.471   7.634   3.534 -2.9316  0.1472 -2.2843
   57MOL   H18011492   6.235   7.683   3.564  0.1342  1.1361 -0.7043
   57MOL   H18111493   6.256   7.794   3.683 -0.8421  0.3572 -0.1662
   57MOL   C18211494   6.255   7.591   3.762  0.5086  0.7489  0.7087
   57MOL   C18311495   6.105   7.575   3.797  0.0591 -0.6232  0.5755
   57MOL  Cl18411496   6.053   7.724   3.865  0.2831 -0.1613  0.0956
   57MOL   C18511497   6.036   7.458   3.802 -0.1886  0.3855  0.1422
   57MOL   C18611498   5.885   7.445   3.851 -0.5994  0.3546 -0.0718
   57MOL   H18711499   6.278   7.490   3.727 -1.3369  0.5300  0.0806
   57MOL   H18811500   6.308   7.616   3.854 -0.2363  2.7825  0.5869
   57MOL   H18911501   6.085   7.367   3.772 -0.5667 -0.1346  1.0877
   57MOL   H19011502   5.848   7.546   3.866 -1.6676  0.3762 -2.5499
   57MOL   H19111503   5.821   7.400   3.776  0.5713  0.0384 -0.9013
   57MOL   C19211504   5.890   7.355   3.971 -0.3666 -0.1668  0.0864
   57MOL   C19311505   5.784   7.370   4.082 -0.5020 -0.6290  0.0348
   57MOL  Cl19411506   5.666   7.241   4.059 -0.2481 -0.0595  0.1092
   57MOL   C19511507   5.773   7.471   4.172  0.3904  0.7130 -0.0992
   57MOL   C19611508   5.866   7.593   4.187 -0.2869 -0.1401  0.9746
   57MOL   H19711509   5.976   7.387   4.028  0.2179 -0.9820 -0.3266
   57MOL   H19811510   5.909   7.248   3.955 -2.5735 -0.7630  1.2216
   57MOL   H19911511   5.689   7.476   4.239 -1.0940  1.5082 -1.9907
   57MOL   H20011512   5.936   7.610   4.104 -1.3868 -2.2191 -0.4227
   57MOL   H20111513   5.913   7.592   4.285 -0.3414  1.3158  1.0292
   57MOL   H20211514   5.788   7.665   4.162  2.4755  2.5050 -0.3889
   58MOL     C111515   3.951   7.229   4.921 -0.4668  0.1049 -0.0634
   58MOL     C211516   3.849   7.123   4.952  0.3971 -0.4304 -0.1618
   58MOL    Cl311517   3.697   7.193   5.008  0.1242  0.4799  0.0120
   58MOL     C411518   3.866   6.995   4.943 -0.6088  0.0537  0.2194
   58MOL     C511519   4.000   6.935   4.914  0.2051  0.0531  0.0075
   58MOL     H611520   3.922   7.327   4.961 -0.1978 -0.3061  1.1600
   58MOL     H711521   3.975   7.254   4.818 -2.4889  0.5670 -0.4404
   58MOL     H811522   3.785   6.926   4.962 -1.1465  0.2699 -1.2425
   58MOL     H911523   4.078   7.004   4.882 -0.4915  0.5304 -0.6969
   58MOL    H1011524   4.017   6.897   5.014  3.7531  0.0916 -0.5081
   58MOL    H1111525   4.040   7.213   4.981 -0.6647  0.0357  0.2181
   58MOL    C1211526   3.973   6.810   4.826 -0.3963 -0.0388  0.1106
   58MOL    C1311527   3.978   6.831   4.671  0.0703  0.2245 -0.4029
   58MOL   Cl1411528   4.142   6.851   4.620  0.4097 -0.0746  0.1652
   58MOL    C1511529   3.865   6.848   4.599 -0.2219  0.0514 -0.3604
   58MOL    C1611530   3.725   6.836   4.653  0.3768 -0.2309 -0.3692
   58MOL    H1711531   4.057   6.741   4.829 -0.7661 -0.5149 -0.3271
   58MOL    H1811532   3.888   6.745   4.848 -1.3745  0.8426 -1.0238
   58MOL    H1911533   3.875   6.877   4.495  2.4893 -1.9393 -0.7026
   58MOL    H2011534   3.676   6.754   4.601 -0.0195 -0.2383  0.0186
   58MOL    H2111535   3.724   6.795   4.754 -1.4788 -1.4050 -0.8398
   58MOL    C2211536   3.633   6.956   4.657 -0.0968 -0.3411 -0.1216
   58MOL    C2311537   3.495   6.920   4.711 -0.3355 -0.2611  0.0456
   58MOL   Cl2411538   3.363   6.912   4.590 -0.1820 -0.0233  0.2964
   58MOL    C2511539   3.481   6.887   4.842  0.0187  0.0349 -0.3469
   58MOL    C2611540   3.343   6.851   4.903  0.4259 -0.4063  0.3204
   58MOL    H2711541   3.682   7.030   4.720  1.9768 -1.2097 -0.6606
   58MOL    H2811542   3.636   7.012   4.563  1.8642  0.2450  0.2793
   58MOL    H2911543   3.568   6.894   4.905  0.4426  1.8957 -1.1280
   58MOL    H3011544   3.262   6.867   4.831  1.2029 -0.1436 -0.5021
   58MOL    H3111545   3.334   6.745   4.928 -0.9703  0.1100  2.0982
   58MOL    C3211546   3.305   6.933   5.027 -0.1514 -0.2205  0.0388
   58MOL    C3311547   3.405   6.925   5.148 -0.1929 -0.3935  0.0772
   58MOL   Cl3411548   3.449   7.091   5.196 -0.0671  0.1696 -0.2051
   58MOL    C3511549   3.452   6.813   5.206 -0.5247 -0.0032  0.0639
   58MOL    C3611550   3.551   6.811   5.319  0.4250  0.6215 -0.0417
   58MOL    H3711551   3.286   7.036   4.998  0.7498 -0.3865 -1.1812
   58MOL    H3811552   3.211   6.890   5.061  0.6802 -0.0616  2.6610
   58MOL    H3911553   3.412   6.718   5.173 -0.3113 -1.1342  2.9079
   58MOL    H4011554   3.638   6.756   5.284 -1.0546 -1.8898  0.0724
   58MOL    H4111555   3.587   6.912   5.339  0.2891  0.4329  1.2308
   58MOL    C4211556   3.506   6.746   5.449 -0.7274 -0.3863 -0.5198
   58MOL    C4311557   3.366   6.787   5.500  0.2928 -0.4497 -0.3170
   58MOL   Cl4411558   3.263   6.646   5.500 -0.3958  0.2262  0.1642
   58MOL    C4511559   3.328   6.902   5.555 -0.0420 -0.2618 -0.1517
   58MOL    C4611560   3.417   7.022   5.579  0.0829  0.4812  0.3773
   58MOL    H4711561   3.526   6.639   5.448  1.5638  0.0237 -1.0519
   58MOL    H4811562   3.580   6.784   5.521 -1.8386 -1.0945  1.0183
   58MOL    H4911563   3.226   6.911   5.588 -0.7671 -2.7991 -1.5633
   58MOL    H5011564   3.515   7.020   5.531 -0.6086 -0.8692 -1.0298
   58MOL    H5111565   3.361   7.105   5.536  0.6146  0.3502 -0.5901
   58MOL    C5211566   3.438   7.030   5.727  0.1025  0.3454 -0.1881
   58MOL    C5311567   3.471   7.169   5.776  0.2058  0.5600  0.3034
   58MOL   Cl5411568   3.637   7.185   5.776  0.0871  0.2354 -0.1664
   58MOL    C5511569   3.384   7.265   5.812 -0.4880  0.0826 -0.1000
   58MOL    C5611570   3.416   7.401   5.873 -0.3116  0.5359  0.4259
   58MOL    H5711571   3.342   7.022   5.779  0.8696 -0.4073  1.1382
   58MOL    H5811572   3.517   6.971   5.773 -1.0336 -1.9245 -1.1072
   58MOL    H5911573   3.278   7.252   5.801 -0.5018  0.2306 -0.1462
   58MOL    H6011574   3.523   7.407   5.891 -0.6775  0.5605  2.7913
   58MOL    H6111575   3.397   7.477   5.797  3.9241  1.1704 -0.0731
   58MOL    C6211576   3.321   7.424   5.989  0.6922  0.8501  0.5056
   58MOL    C6311577   3.322   7.552   6.063 -0.6992  0.3080 -0.7437
   58MOL   Cl6411578   3.209   7.665   5.999 -0.2314  0.3733  0.0330
   58MOL    C6511579   3.396   7.576   6.173 -0.6176  0.5632 -0.2089
   58MOL    C6611580   3.398   7.701   6.251 -0.3221 -0.6026  0.2434
   58MOL    H6711581   3.219   7.424   5.950  0.7179  1.9090  0.4061
   58MOL    H6811582   3.335   7.350   6.068 -1.9102  0.6902  0.8609
   58MOL    H6911583   3.467   7.504   6.211 -2.1821 -1.1771 -0.5401
   58MOL    H7011584   3.378   7.793   6.196  2.9246 -0.1386 -0.2607
   58MOL    H7111585   3.503   7.716   6.276 -0.6980  0.7687  1.0835
   58MOL    C7211586   3.317   7.682   6.384 -0.0625 -0.3805 -0.0460
   58MOL    C7311587   3.303   7.817   6.463 -0.3582  0.5194  0.5989
   58MOL   Cl7411588   3.327   7.789   6.631 -0.6294  0.6516  0.4355
   58MOL    C7511589   3.262   7.932   6.404  0.5265 -0.6194  0.1313
   58MOL    C7611590   3.242   8.065   6.474 -0.7717  0.1741  0.2366
   58MOL    H7711591   3.361   7.604   6.445  1.9819  0.3325 -0.5642
   58MOL    H7811592   3.217   7.649   6.356 -1.0152  0.9269  1.6779
   58MOL    H7911593   3.243   7.938   6.298  2.1046 -0.6212 -0.1576
   58MOL    H8011594   3.294   8.134   6.408  1.7475 -1.4265  0.4650
   58MOL    H8111595   3.298   8.051   6.567 -0.3763 -1.5918 -0.2538
   58MOL    C8211596   3.090   8.093   6.500 -0.3994 -0.3154 -0.2037
   58MOL    C8311597   3.070   8.235   6.560  0.0701  0.9099 -0.5432
   58MOL   Cl8411598   2.963   8.342   6.471 -0.4228  0.6589 -0.0200
   58MOL    C8511599   3.119   8.267   6.684  0.0308  0.0966  0.1560
   58MOL    C8611600   3.115   8.407   6.737  0.6754  0.3293 -0.3584
   58MOL    H8711601   3.033   8.026   6.564 -1.4485  3.1312  2.5895
   58MOL    H8811602   3.048   8.084   6.400  0.1515 -0.7598 -0.4004
   58MOL    H8911603   3.168   8.193   6.744  0.0162  0.4110  0.5559
   58MOL    H9011604   3.210   8.420   6.788  1.0226 -0.7686 -0.7004
   58MOL    H9111605   3.106   0.068   6.665 -1.5025  0.2464 -0.2093
   58MOL    C9211606   3.011   8.412   6.850  0.3604 -0.2443 -0.3529
   58MOL    C9311607   2.985   0.126   6.918 -0.0317 -0.0833  0.2158
   58MOL   Cl9411608   3.050   0.136   7.081  0.1590 -0.0209 -0.2168
   58MOL    C9511609   2.922   0.226   6.861  0.0970  0.6960 -0.1236
   58MOL    C9611610   2.849   0.222   6.726 -0.3614 -0.7482 -0.3393
   58MOL    H9711611   3.040   8.339   6.925 -0.0108  0.0027  0.0353
   58MOL    H9811612   2.921   8.367   6.808  1.2887 -2.5241  0.0414
   58MOL    H9911613   2.910   0.316   6.920  0.0049  0.1643  0.6691
   58MOL   H10011614   2.903   0.284   6.655 -1.6917  1.3425  0.4359
   58MOL   H10111615   2.853   0.127   6.673  1.1184  1.0506 -3.6305
   58MOL   C10211616   2.708   0.271   6.739  0.5630  0.5551  0.3362
   58MOL   C10311617   2.640   0.270   6.605 -0.2155 -0.1107  0.3833
   58MOL  Cl10411618   2.600   0.113   6.555  0.1609  0.1023 -0.4261
   58MOL   C10511619   2.608   0.376   6.535 -0.0121  0.2678  0.7717
   58MOL   C10611620   2.539   0.387   6.405 -0.1608  0.0866  0.0402
   58MOL   H10711621   2.658   0.206   6.810  1.3244 -0.3067  0.1049
   58MOL   H10811622   2.708   0.376   6.770 -0.6158  0.6297  0.1086
   58MOL   H10911623   2.642   0.468   6.578  1.6923 -1.7806  3.9796
   58MOL   H11011624   2.530   0.291   6.355 -3.0718 -0.2271  1.0780
   58MOL   H11111625   2.440   0.424   6.430  0.8054  2.1633  0.9962
   58MOL   C11211626   2.612   0.479   6.309  1.0652 -0.1971  0.4480
   58MOL   C11311627   2.539   0.504   6.181  0.5416 -0.8127  0.5975
   58MOL  Cl11411628   2.520   0.360   6.091 -0.1343 -0.0860  0.1813
   58MOL   C11511629   2.498   0.620   6.131  0.0952 -0.2542  0.8641
   58MOL   C11611630   2.508   0.755   6.199  0.1671 -0.2813  0.5931
   58MOL   H11711631   2.637   0.572   6.359  0.7725  1.0788 -1.6863
   58MOL   H11811632   2.710   0.435   6.288  0.8107 -0.2491 -0.7041
   58MOL   H11911633   2.441   0.611   6.039  0.6950 -0.2549  0.4944
   58MOL   H12011634   2.516   0.737   6.306  1.1507 -0.8629  0.4279
   58MOL   H12111635   2.409   0.799   6.193  0.6858  0.7711 -0.4184
   58MOL   C12211636   2.618   0.851   6.140 -0.2171  0.0534 -0.5698
   58MOL   C12311637   2.639   0.969   6.231  0.3355  0.2202 -0.1942
   58MOL  Cl12411638   2.675   0.925   6.391  0.0556 -0.1409  0.1664
   58MOL   C12511639   2.627   1.102   6.211  0.4082 -0.0505 -0.1443
   58MOL   C12611640   2.597   1.177   6.079 -0.1190 -0.5634 -0.4404
   58MOL   H12711641   2.721   0.817   6.148  0.6197  2.9458  2.1684
   58MOL   H12811642   2.587   0.883   6.040 -0.2020 -2.8416 -1.5528
   58MOL   H12911643   2.647   1.163   6.297  1.7296  0.8571 -1.0704
   58MOL   H13011644   2.643   1.130   5.991 -1.3266 -1.7514 -0.4504
   58MOL   H13111645   2.491   1.167   6.060 -0.2606  0.5509 -0.2211
   58MOL   C13211646   2.645   1.322   6.084  0.1107 -0.0971 -0.1905
   58MOL   C13311647   2.793   1.339   6.047 -0.1985  0.3358 -0.5153
   58MOL  Cl13411648   2.890   1.320   6.188  0.0435 -0.1740 -0.3049
   58MOL   C13511649   2.846   1.370   5.923 -0.1294 -0.1793 -0.3130
   58MOL   C13611650   2.775   1.395   5.796  0.8385 -0.3218  0.5344
   58MOL   H13711651   2.581   1.379   6.015 -0.0912 -0.3606 -0.2226
   58MOL   H13811652   2.638   1.376   6.178  2.0210 -2.3784  1.3051
   58MOL   H13911653   2.953   1.368   5.914 -0.0064 -1.4593  1.1492
   58MOL   H14011654   2.823   1.326   5.726  0.0740  2.1875 -2.6167
   58MOL   H14111655   2.669   1.368   5.799  0.7927 -0.5082 -1.6376
   58MOL   C14211656   2.796   1.540   5.747  0.7427  0.2313  0.8222
   58MOL   C14311657   2.716   1.578   5.614 -0.1767  0.2076  0.8340
   58MOL  Cl14411658   2.768   1.497   5.471 -0.2241 -0.2368 -0.4329
   58MOL   C14511659   2.630   1.677   5.608  0.6303  0.2152 -0.7539
   58MOL   C14611660   2.553   1.721   5.491  0.1928 -0.2081  0.1984
   58MOL   H14711661   2.901   1.557   5.725  0.7119 -1.8464 -1.0891
   58MOL   H14811662   2.754   1.603   5.825  0.6161 -2.2336  2.8167
   58MOL   H14911663   2.618   1.729   5.702 -0.6638  2.2756 -2.0096
   58MOL   H15011664   2.600   1.674   5.404  1.0923 -1.1744  1.1958
   58MOL   H15111665   2.449   1.692   5.498  0.4588 -0.6482  2.6385
   58MOL   C15211666   2.567   1.873   5.470 -0.3352 -0.1665  0.2988
   58MOL   C15311667   2.534   1.931   5.335 -0.1408  0.1582  0.2426
   58MOL  Cl15411668   2.419   2.062   5.342 -0.0193  0.3157 -0.1845
   58MOL   C15511669   2.579   1.871   5.221  0.3344  0.6144  0.1739
   58MOL   C15611670   2.547   1.907   5.077 -0.2805 -0.4678  0.0216
   58MOL   H15711671   2.491   1.926   5.527 -0.3866  1.2971 -1.0882
   58MOL   H15811672   2.664   1.912   5.503 -0.2653 -1.0261  1.1348
   58MOL   H15911673   2.644   1.785   5.224  0.6473  0.7844 -1.4129
   58MOL   H16011674   2.640   1.945   5.034 -0.2144  0.3516  0.8789
   58MOL   H16111675   2.465   1.978   5.071  2.3116  2.5742 -0.9593
   58MOL   C16211676   2.504   1.784   4.992 -0.6364  0.0447  0.3499
   58MOL   C16311677   2.383   1.705   5.047  0.5184 -0.0683  0.0991
   58MOL  Cl16411678   2.229   1.777   5.005  0.1168  0.1509 -0.1219
   58MOL   C16511679   2.391   1.582   5.110 -0.5201 -0.6629 -0.5536
   58MOL   C16611680   2.272   1.505   5.164 -0.2683 -0.7451  0.1098
   58MOL   H16711681   2.475   1.815   4.892 -1.6649 -1.7093  0.0802
   58MOL   H16811682   2.586   1.715   4.972  0.3702  1.1230  0.6998
   58MOL   H16911683   2.492   1.544   5.113  0.4716  1.8919  0.4342
   58MOL   H17011684   2.182   1.525   5.106 -0.5812 -1.7049  0.2696
   58MOL   H17111685   2.288   1.398   5.164 -2.3187 -1.0888  1.8599
   58MOL   C17211686   2.252   1.524   5.315 -0.6811 -0.0158  0.0264
   58MOL   C17311687   2.163   1.426   5.389  0.0181  0.4629 -0.6347
   58MOL  Cl17411688   2.250   1.280   5.421 -0.4589  0.1116  0.0695
   58MOL   C17511689   2.030   1.451   5.416  0.5336 -0.5643  0.1122
   58MOL   C17611690   1.933   1.357   5.489 -0.2658 -0.1484  0.9091
   58MOL   H17711691   2.229   1.630   5.329 -2.1108 -0.3772  0.4680
   58MOL   H17811692   2.349   1.516   5.364  0.5595 -1.2995 -2.5382
   58MOL   H17911693   1.992   1.548   5.390  1.2475 -0.4297 -0.4279
   58MOL   H18011694   1.976   1.328   5.585 -0.8419 -0.6008  1.0366
   58MOL   H18111695   1.928   1.263   5.433  2.1735 -0.0756  0.5109
   58MOL   C18211696   1.789   1.411   5.512 -0.4175  0.1756  0.8978
   58MOL   C18311697   1.707   1.340   5.614  0.3023  0.4024 -0.1074
   58MOL  Cl18411698   1.674   1.171   5.565  0.8957 -0.1447 -0.0211
   58MOL   C18511699   1.680   1.379   5.741 -0.3278  0.3144 -0.2280
   58MOL   C18611700   1.622   1.303   5.861 -0.3550 -0.1254 -0.0980
   58MOL   H18711701   1.792   1.517   5.539 -0.4157  1.0531 -2.3476
   58MOL   H18811702   1.737   1.410   5.416  3.1119  2.4322 -1.1990
   58MOL   H18911703   1.715   1.479   5.758  1.6292 -0.6535  1.7312
   58MOL   H19011704   1.526   1.340   5.897 -0.5298  1.2419 -1.9540
   58MOL   H19111705   1.616   1.197   5.836 -1.6933 -0.5229  1.7736
   58MOL   C19211706   1.727   1.319   5.974 -0.0803 -0.4039  0.3325
   58MOL   C19311707   1.677   1.261   6.103  0.2267 -0.3469  0.5864
   58MOL  Cl19411708   1.602   1.375   6.209 -0.4994 -0.2842 -0.4494
   58MOL   C19511709   1.683   1.130   6.140  0.1812 -0.0607  0.3827
   58MOL   C19611710   1.751   1.020   6.056 -0.2625  0.1705  0.2609
   58MOL   H19711711   1.752   1.422   5.998 -2.3557  0.1021  0.6046
   58MOL   H19811712   1.821   1.274   5.941  0.7029  0.7933  0.8965
   58MOL   H19911713   1.653   1.102   6.240 -0.3456  0.0351  0.2503
   58MOL   H20011714   1.764   1.029   5.948  2.5895 -1.7474  0.3792
   58MOL   H20111715   1.702   0.923   6.069  1.4579 -0.7028  0.4340
   58MOL   H20211716   1.852   1.017   6.098  0.6439  2.7827 -1.6051
   59MOL     C111717   0.397   3.817   5.894 -0.1798 -0.1939 -0.2151
   59MOL     C211718   0.501   3.776   5.998 -0.0770  0.4427  1.4622
   59MOL    Cl311719   0.437   3.682   6.131  0.3054 -0.2190  0.2186
   59MOL     C411720   0.635   3.786   6.001  0.0425 -0.1633 -0.3909
   59MOL     C511721   0.716   3.866   5.895  0.3393  0.0012 -0.0873
   59MOL     H611722   0.434   3.795   5.793 -0.4065 -3.1066  0.2827
   59MOL     H711723   0.380   3.925   5.896  2.1614  0.1900  1.3127
   59MOL     H811724   0.695   3.740   6.078 -2.2041  1.2865  2.3385
   59MOL     H911725   0.648   3.925   5.834 -1.7418 -0.2344  1.9348
   59MOL    H1011726   0.763   3.946   5.951  0.1485  0.9913 -1.3222
   59MOL    H1111727   0.299   3.770   5.895 -1.8120  3.0853  1.3909
   59MOL    C1211728   0.811   3.779   5.812 -0.2076  0.0019 -0.0465
   59MOL    C1311729   0.922   3.720   5.899 -0.0668 -0.8330 -0.0251
   59MOL   Cl1411730   1.043   3.830   5.940  0.1491 -0.2522 -0.1677
   59MOL    C1511731   0.940   3.592   5.931  0.0209 -0.7827 -0.2022
   59MOL    C1611732   0.849   3.481   5.908  0.5987  0.0367  0.1508
   59MOL    H1711733   0.755   3.700   5.762  2.0943 -2.8867  1.7321
   59MOL    H1811734   0.868   3.841   5.743  0.3416  0.6225  0.9587
   59MOL    H1911735   1.029   3.557   5.983 -0.5171  0.2761  1.4717
   59MOL    H2011736   0.758   3.499   5.851 -0.0729 -1.5348  0.6779
   59MOL    H2111737   0.904   3.421   5.835  1.1509  2.5932 -1.5852
   59MOL    C2211738   0.805   3.420   6.041  0.0060  0.0522  0.6273
   59MOL    C2311739   0.737   3.290   6.031  0.0795  0.0869 -0.1238
   59MOL   Cl2411740   0.844   3.162   5.982 -0.2492  0.0935  0.0152
   59MOL    C2511741   0.608   3.272   6.066 -0.4756  0.4562 -0.0435
   59MOL    C2611742   0.545   3.129   6.074 -0.3896  0.6638  0.3125
   59MOL    H2711743   0.888   3.409   6.111  0.0437  1.7827  0.8941
   59MOL    H2811744   0.738   3.486   6.097  0.4070  0.1976  0.9426
   59MOL    H2911745   0.547   3.355   6.097  1.9973  2.3176 -0.0051
   59MOL    H3011746   0.611   3.066   6.015  0.0326  1.3802  0.0055
   59MOL    H3111747   0.543   3.087   6.174  0.6094  0.8642  0.4264
   59MOL    C3211748   0.411   3.135   6.008 -0.0565 -0.7399 -0.4886
   59MOL    C3311749   0.338   2.999   5.985  0.5342  0.1555 -0.3827
   59MOL   Cl3411750   0.276   2.977   5.829  0.0138  0.1751  0.1302
   59MOL    C3511751   0.322   2.903   6.080 -0.1973 -0.0983 -0.0781
   59MOL    C3611752   0.244   2.777   6.059 -0.4634 -0.0007  0.2727
   59MOL    H3711753   0.355   3.204   6.070 -0.8283 -1.7420 -0.0468
   59MOL    H3811754   0.419   3.182   5.910 -2.7466  0.9516  0.0542
   59MOL    H3911755   0.371   2.916   6.175  0.8106  1.7650 -0.8127
   59MOL    H4011756   0.158   2.779   6.125 -0.8877  0.8633 -0.3012
   59MOL    H4111757   0.202   2.774   5.958  1.7022 -0.0451 -0.6496
   59MOL    C4211758   0.324   2.649   6.091 -0.0214 -0.2582  0.5307
   59MOL    C4311759   0.235   2.524   6.071 -1.2153 -0.7293 -0.3022
   59MOL   Cl4411760   0.280   2.423   5.942  0.4656 -0.1687 -0.1215
   59MOL    C4511761   0.148   2.479   6.159 -0.5929 -0.7154  0.4413
   59MOL    C4611762   0.106   2.540   6.294  0.7618  0.8180  0.2486
   59MOL    H4711763   0.407   2.630   6.023  1.8280 -1.5532  3.0167
   59MOL    H4811764   0.351   2.638   6.197 -0.4139  1.7207  0.8554
   59MOL    H4911765   0.101   2.383   6.140 -0.6362 -0.8165  1.0560
   59MOL    H5011766   0.159   2.502   6.381 -1.9853  0.9316  2.0367
   59MOL    H5111767   0.127   2.647   6.288 -0.4349  1.0235 -0.5258
   59MOL    C5211768   8.379   2.512   6.313  0.1298 -0.1258 -0.1818
   59MOL    C5311769   8.317   2.559   6.443 -0.3579  0.9390 -0.3137
   59MOL   Cl5411770   8.247   2.426   6.524  0.1520  0.0226  0.2926
   59MOL    C5511771   8.314   2.684   6.490  0.8399 -0.5843 -0.0510
   59MOL    C5611772   8.254   2.743   6.618 -0.0039 -0.1797  0.4065
   59MOL    H5711773   8.321   2.554   6.232  0.6550  0.0810 -0.4509
   59MOL    H5811774   8.367   2.403   6.311  1.2764 -0.2534 -0.2947
   59MOL    H5911775   8.375   2.744   6.424 -0.5770  1.2576  0.2823
   59MOL    H6011776   8.197   2.834   6.602  0.1406 -0.0531  0.6214
   59MOL    H6111777   8.176   2.671   6.645 -0.7262  1.1493  1.9609
   59MOL    C6211778   8.368   2.764   6.717  0.5470  0.7255 -0.1178
   59MOL    C6311779   8.317   2.819   6.849  0.5680  0.0144 -0.6761
   59MOL   Cl6411780   8.374   2.977   6.884  0.2474 -0.1139 -0.4523
   59MOL    C6511781   8.230   2.758   6.932 -0.3947 -0.0060  0.3870
   59MOL    C6611782   8.176   2.805   7.067  0.2746 -0.2522  0.1430
   59MOL    H6711783   8.417   2.668   6.734 -0.3747  0.0043 -1.4780
   59MOL    H6811784   0.021   2.834   6.676  0.1498  1.0965 -0.2000
   59MOL    H6911785   8.193   2.661   6.903  1.3159 -0.6633  0.3367
   59MOL    H7011786   8.067   2.812   7.068  0.2140 -1.1829  0.3135
   59MOL    H7111787   8.204   2.902   7.107  0.1396 -0.0992 -0.1347
   59MOL    C7211788   8.223   2.696   7.171  0.9078 -0.2202 -0.2416
   59MOL    C7311789   8.372   2.689   7.172  0.1489 -0.1647  0.1757
   59MOL   Cl7411790   0.012   2.548   7.094  0.3029 -0.1332 -0.2148
   59MOL    C7511791   0.029   2.775   7.238  0.0469 -0.1427  0.3533
   59MOL    C7611792   0.185   2.759   7.240  0.5720 -0.4396  0.0955
   59MOL    H7711793   8.179   2.597   7.161  2.5564 -1.1648  1.5347
   59MOL    H7811794   8.201   2.735   7.270 -1.9619  0.0542 -0.9534
   59MOL    H7911795   8.415   2.865   7.287  1.3831 -0.3628  1.7501
   59MOL    H8011796   0.211   2.794   7.140 -0.8527  0.4458  0.0301
   59MOL    H8111797   0.206   2.652   7.241  2.2261 -0.1603 -1.1680
   59MOL    C8211798   0.249   2.840   7.357 -0.0190  0.4004  0.2267
   59MOL    C8311799   0.405   2.840   7.369  0.5290 -0.5517  0.4311
   59MOL   Cl8411800   0.455   2.702   7.462 -0.0926 -0.0325 -0.3198
   59MOL    C8511801   0.481   2.942   7.326  0.0908 -0.2451 -0.5931
   59MOL    C8611802   0.631   2.957   7.345  0.4539 -0.3153 -0.2305
   59MOL    H8711803   0.208   2.801   7.450 -1.0419  1.4523  0.2199
   59MOL    H8811804   0.214   2.942   7.371 -0.2367  0.1738  1.3814
   59MOL    H8911805   0.440   3.021   7.264 -2.3799 -1.7777 -0.9736
   59MOL    H9011806   0.645   3.058   7.382  0.1324 -0.2764 -0.2139
   59MOL    H9111807   0.664   2.900   7.431 -1.1396  0.0180  0.6242
   59MOL    C9211808   0.717   2.935   7.222  0.2428  0.3996  0.5660
   59MOL    C9311809   0.856   2.873   7.243  0.1343  0.2520 -0.1635
   59MOL   Cl9411810   0.859   2.706   7.202 -0.3935 -0.1325  0.3550
   59MOL    C9511811   0.966   2.933   7.295  0.1178 -0.1498 -0.5942
   59MOL    C9611812   0.984   3.076   7.359 -0.2782  0.5482  0.8568
   59MOL    H9711813   0.720   3.025   7.160  1.8440  0.2477  0.4192
   59MOL    H9811814   0.657   2.862   7.166 -0.7940  1.3182  0.4637
   59MOL    H9911815   1.055   2.873   7.306  0.9734  1.7913  4.9772
   59MOL   H10011816   0.888   3.120   7.385 -1.3074 -0.4621 -1.1008
   59MOL   H10111817   1.031   3.055   7.455  1.7823  0.6688 -0.0869
   59MOL   C10211818   1.071   3.167   7.273  0.3981 -0.3321 -0.5532
   59MOL   C10311819   1.083   3.311   7.317  0.0262  0.3194  0.1864
   59MOL  Cl10411820   1.249   3.353   7.358  0.7230  0.0715  0.1563
   59MOL   C10511821   0.989   3.412   7.303 -0.7604 -0.2425 -0.3958
   59MOL   C10611822   1.010   3.565   7.312  0.2065  0.1193  0.3637
   59MOL   H10711823   1.176   3.139   7.278  0.2084 -0.8095  0.8558
   59MOL   H10811824   1.055   3.148   7.166  0.2553  0.9872 -0.7720
   59MOL   H10911825   0.886   3.390   7.278 -1.8857  0.6222  3.1818
   59MOL   H11011826   0.953   3.598   7.399 -2.7095 -1.7185 -0.7672
   59MOL   H11111827   1.113   3.594   7.330  0.3371  0.2563 -0.5547
   59MOL   C11211828   0.970   3.644   7.187 -0.1774  0.3433 -0.7006
   59MOL   C11311829   0.962   3.790   7.225  0.0065  0.7731  0.3688
   59MOL  Cl11411830   0.811   3.832   7.284 -0.1373  0.0057  0.0221
   59MOL   C11511831   1.058   3.881   7.221 -0.1445  0.1879 -0.3166
   59MOL   C11611832   1.199   3.877   7.161 -0.3642  0.1160 -0.4112
   59MOL   H11711833   1.041   3.639   7.104 -0.3359  2.6000 -1.0005
   59MOL   H11811834   0.882   3.603   7.136 -0.1337 -0.6726  0.0409
   59MOL   H11911835   1.026   3.979   7.254 -4.0706 -1.3659  0.7453
   59MOL   H12011836   1.220   3.958   7.092 -0.1633 -0.5456 -1.1375
   59MOL   H12111837   1.210   3.785   7.103  3.0502  0.6050 -0.6130
   59MOL   C12211838   1.298   3.893   7.270  0.1598 -0.0269 -0.0715
   59MOL   C12311839   1.354   3.768   7.336 -0.1458  0.2119 -0.8087
   59MOL  Cl12411840   1.460   3.688   7.227  0.1357  0.0352 -0.2118
   59MOL   C12511841   1.326   3.731   7.462  0.3013  0.2800  0.3473
   59MOL   C12611842   1.242   3.809   7.563  0.3252  0.3250  0.3858
   59MOL   H12711843   1.386   3.942   7.228 -0.0879 -0.6017 -1.2968
   59MOL   H12811844   1.263   3.961   7.347 -0.0332 -1.1570  0.8411
   59MOL   H12911845   1.369   3.637   7.494 -2.3307 -1.4061 -0.8647
   59MOL   H13011846   1.152   3.831   7.506  0.6632 -0.2197 -0.3665
   59MOL   H13111847   1.202   3.734   7.631  0.1514  0.8663  0.8817
   59MOL   C13211848   1.311   3.925   7.638 -0.4567  0.1108 -0.1161
   59MOL   C13311849   1.202   3.984   7.737 -0.2602  0.1893 -0.5606
   59MOL  Cl13411850   1.241   3.941   7.899 -0.1689 -0.3301  0.4166
   59MOL   C13511851   1.088   4.051   7.704 -0.0753 -0.0597 -0.2404
   59MOL   C13611852   1.046   4.088   7.560 -0.3477 -0.0646 -0.0212
   59MOL   H13711853   1.397   3.891   7.696 -1.4046  0.0067  1.2743
   59MOL   H13811854   1.331   4.011   7.575 -1.6322  0.2714 -0.2952
   59MOL   H13911855   1.022   4.087   7.782  0.4619 -0.5633  0.4478
   59MOL   H14011856   1.133   4.117   7.501 -2.1305 -1.0919 -3.2941
   59MOL   H14111857   1.007   4.004   7.502 -1.1043  0.3772 -0.1509
   59MOL   C14211858   0.930   4.187   7.568 -0.7437 -0.0675  0.0407
   59MOL   C14311859   0.906   4.256   7.433  0.5533 -1.0412 -0.0832
   59MOL  Cl14411860   1.010   4.392   7.425  0.4218 -0.3192  0.5324
   59MOL   C14511861   0.819   4.215   7.340  0.8270 -0.3141 -0.1072
   59MOL   C14611862   0.790   4.292   7.206 -0.2591 -0.4183 -0.5753
   59MOL   H14711863   0.950   4.268   7.638 -2.5473 -1.8800  2.7438
   59MOL   H14811864   0.843   4.144   7.618 -1.0555 -1.2353 -1.4582
   59MOL   H14911865   0.760   4.127   7.363  0.4317 -0.1792 -0.5953
   59MOL   H15011866   0.861   4.374   7.193  0.2143 -1.1762 -3.1663
   59MOL   H15111867   0.809   4.226   7.121 -0.6849 -1.0099 -0.2181
   59MOL   C15211868   0.643   4.339   7.193 -0.2603 -0.3397  0.0827
   59MOL   C15311869   0.539   4.237   7.138  0.0754  0.2750 -0.5035
   59MOL  Cl15411870   0.468   4.150   7.272 -0.3719  0.3759  0.0577
   59MOL   C15511871   0.494   4.242   7.014  0.1315  0.2088  0.3023
   59MOL   C15611872   0.393   4.147   6.958 -0.2163 -0.2347 -0.1530
   59MOL   H15711873   0.598   4.380   7.283  0.6648 -1.1725  0.9471
   59MOL   H15811874   0.634   4.418   7.118 -0.1440 -1.2667 -0.9285
   59MOL   H15911875   0.532   4.313   6.942 -0.2873 -1.1131 -1.2468
   59MOL   H16011876   0.291   4.170   6.988 -0.4561 -1.6347  0.1769
   59MOL   H16111877   0.409   4.051   7.007  0.1941  0.0417  0.2570
   59MOL   C16211878   0.404   4.143   6.805  0.6236 -0.1045 -0.1840
   59MOL   C16311879   0.277   4.108   6.727  0.4341  0.9048 -0.2309
   59MOL  Cl16411880   0.197   3.973   6.808  0.3688  0.0189  0.2310
   59MOL   C16511881   0.220   4.168   6.627  0.5147 -0.3033  0.2832
   59MOL   C16611882   0.099   4.119   6.552 -0.2146 -0.0237  0.0248
   59MOL   H16711883   0.427   4.243   6.767  1.0552  0.3419  1.2430
   59MOL   H16811884   0.487   4.075   6.788  0.0335 -1.3517  1.8018
   59MOL   H16911885   0.260   4.259   6.585 -0.6380 -0.0740 -0.3579
   59MOL   H17011886   0.126   4.087   6.452 -0.0744  1.1700 -0.3158
   59MOL   H17111887   0.062   4.029   6.602 -2.1990  0.1649 -1.0208
   59MOL   C17211888   8.402   4.216   6.546  0.6401 -0.5726 -0.1687
   59MOL   C17311889   0.014   4.358   6.508 -0.0120 -0.4685 -0.0420
   59MOL  Cl17411890   8.355   4.480   6.604  0.0951 -0.0371 -0.1242
   59MOL   C17511891   0.093   4.396   6.408  0.0786 -0.0393  0.5266
   59MOL   C17611892   0.130   4.526   6.347 -1.0459 -0.3411 -0.0162
   59MOL   H17711893   8.351   4.226   6.642 -0.3737 -0.1786 -0.7331
   59MOL   H17811894   8.327   4.182   6.475 -1.0626 -0.0924  1.3474
   59MOL   H17911895   0.132   4.312   6.353 -2.2846 -1.8004  1.4823
   59MOL   H18011896   0.097   4.605   6.414 -1.6280  0.8299 -1.6609
   59MOL   H18111897   0.075   4.542   6.254  0.2007  0.0723 -0.6819
   59MOL   C18211898   0.290   4.526   6.339 -0.1296 -0.2118 -0.0755
   59MOL   C18311899   0.336   4.662   6.320 -0.4333 -0.6993  0.0521
   59MOL  Cl18411900   0.453   4.715   6.440  0.4461 -0.1481  0.6773
   59MOL   C18511901   0.308   4.728   6.206 -0.3566 -0.0234  0.4082
   59MOL   C18611902   0.380   4.854   6.174  0.2072 -0.7294  0.6053
   59MOL   H18711903   0.341   4.488   6.427 -2.6195 -3.4718  0.0713
   59MOL   H18811904   0.326   4.474   6.250 -0.1457  1.8074 -1.2827
   59MOL   H18911905   0.232   4.699   6.135 -0.5513  0.3501  0.4569
   59MOL   H19011906   0.308   4.933   6.153 -1.5548 -2.4725 -0.0687
   59MOL   H19111907   0.442   4.895   6.254 -1.4195  1.1279  0.9450
   59MOL   C19211908   0.461   4.839   6.050  0.0175  0.5067  0.3737
   59MOL   C19311909   0.523   4.976   6.007 -0.9480 -0.8464  0.4502
   59MOL  Cl19411910   0.401   5.089   5.957 -0.0211  0.0546  0.0359
   59MOL   C19511911   0.655   4.999   6.001  0.3615  0.0784  0.2055
   59MOL   C19611912   0.771   4.912   6.037  0.7261  0.3353  0.0363
   59MOL   H19711913   0.403   4.802   5.966  1.3242 -2.3890  0.7210
   59MOL   H19811914   0.542   4.772   6.080 -0.2585 -0.3606 -0.8107
   59MOL   H19911915   0.679   5.094   5.956  1.8898 -0.1274  0.5650
   59MOL   H20011916   0.836   4.904   5.951 -0.6429 -0.7748 -0.9268
   59MOL   H20111917   0.738   4.811   6.062  1.8526  0.2461  1.1766
   59MOL   H20211918   0.824   4.954   6.122 -0.0271  0.9966  0.1882
   60MOL     C111919   6.558   7.537   0.674  0.7168  0.4632 -0.6144
   60MOL     C211920   6.490   7.539   0.542 -0.1475  0.4096  0.2812
   60MOL    Cl311921   6.504   7.385   0.463  0.3811  0.0837 -0.1566
   60MOL     C411922   6.440   7.644   0.482  0.9907  0.0823  0.0434
   60MOL     C511923   6.434   7.779   0.543  0.6217  0.5525  0.4678
   60MOL     H611924   6.495   7.561   0.760  2.4941  2.1583  0.2477
   60MOL     H711925   6.639   7.608   0.681  0.1301  1.0053  0.7110
   60MOL     H811926   6.402   7.642   0.381  0.0665 -2.0840  0.3925
   60MOL     H911927   6.460   7.765   0.647  0.5234  0.7489  0.5192
   60MOL    H1011928   6.511   7.847   0.506 -1.1522  2.3384 -0.0367
   60MOL    H1111929   6.600   7.438   0.694 -0.7606  0.1445  1.0235
   60MOL    C1211930   6.293   7.840   0.520  0.3928 -0.3262  0.5498
   60MOL    C1311931   6.266   7.966   0.595 -0.0198 -0.0636 -0.0582
   60MOL   Cl1411932   6.270   8.105   0.493 -0.1709  0.0612 -0.4717
   60MOL    C1511933   6.249   7.987   0.727 -0.6494  0.5480  0.2885
   60MOL    C1611934   6.261   7.893   0.837 -0.2323 -0.5173  0.2400
   60MOL    H1711935   6.276   7.860   0.414  1.1414  1.4842  0.7510
   60MOL    H1811936   6.214   7.773   0.554 -0.4119  1.0055  1.4051
   60MOL    H1911937   6.229   8.092   0.742 -0.9607  0.6872 -0.9735
   60MOL    H2011938   6.162   7.897   0.882 -0.5099  0.9617 -0.4601
   60MOL    H2111939   6.275   7.792   0.799  0.0702 -0.1791 -0.5652
   60MOL    C2211940   6.369   7.938   0.940 -0.1940 -0.1514 -0.2803
   60MOL    C2311941   6.336   8.067   1.018  0.5313 -0.3942 -0.0221
   60MOL   Cl2411942   6.189   8.043   1.107  0.0207 -0.1465 -0.9412
   60MOL    C2511943   6.406   8.185   1.011 -0.8337  0.1008  0.0314
   60MOL    C2611944   6.363   8.310   1.090 -0.1458 -0.3367 -1.2330
   60MOL    H2711945   6.392   7.859   1.013  0.4113  1.7498  1.6567
   60MOL    H2811946   6.465   7.952   0.890  1.0203  1.0514  2.2908
   60MOL    H2911947   6.487   8.182   0.939  0.7256 -1.8124  1.8065
   60MOL    H3011948   6.322   8.377   1.014 -0.9501  0.9809  0.3257
   60MOL    H3111949   6.278   8.294   1.156  0.3192  3.1275  0.3300
   60MOL    C3211950   6.467   8.371   1.179 -0.7999 -0.2245  0.4917
   60MOL    C3311951   6.444   0.092   1.223  0.2617  0.0805  0.2006
   60MOL   Cl3411952   6.524   0.131   1.376 -0.4314  0.4329 -0.0480
   60MOL    C3511953   6.367   0.186   1.157  0.6609  0.0835  0.1693
   60MOL    C3611954   6.362   0.331   1.194 -0.3255 -0.3105  0.2336
   60MOL    H3711955   6.493   8.310   1.265 -0.2590  2.6290  2.4157
   60MOL    H3811956   6.557   8.379   1.118 -0.7363 -0.7926  0.5130
   60MOL    H3911957   6.307   0.163   1.070 -1.7047 -0.1666  1.8125
   60MOL    H4011958   6.349   0.340   1.302  0.0024  1.5243  0.1302
   60MOL    H4111959   6.452   0.387   1.171 -0.8245  1.0010  1.3939
   60MOL    C4211960   6.248   0.405   1.128  0.3163  0.4641  0.9351
   60MOL    C4311961   6.268   0.550   1.124 -0.4488  0.2521  0.7439
   60MOL   Cl4411962   6.168   0.632   1.235  0.1250 -0.3609  0.0708
   60MOL    C4511963   6.338   0.617   1.031 -0.2124  0.0407 -0.4569
   60MOL    C4611964   6.428   0.565   0.918  0.0397  0.9196 -0.0349
   60MOL    H4711965   6.232   0.376   1.023 -1.5140  2.5159  0.6120
   60MOL    H4811966   6.152   0.381   1.174 -0.3546 -2.3332 -1.7088
   60MOL    H4911967   6.338   0.725   1.021  0.4598  0.0300 -0.6266
   60MOL    H5011968   6.427   0.456   0.930 -2.1446  0.9925  0.7320
   60MOL    H5111969   6.386   0.605   0.826 -0.0143  0.3885 -0.2438
   60MOL    C5211970   6.568   0.625   0.927  0.4444 -0.1193  0.6982
   60MOL    C5311971   6.630   0.639   0.789  0.2869 -0.1191  0.3604
   60MOL   Cl5411972   6.741   0.770   0.782 -0.4016  0.3797  0.1930
   60MOL    C5511973   6.616   0.548   0.686 -0.2168  0.3214  0.2294
   60MOL    C5611974   6.688   0.549   0.543  0.4775 -1.0345 -0.0278
   60MOL    H5711975   6.557   0.720   0.980 -0.1474 -0.8098  1.8260
   60MOL    H5811976   6.624   0.558   0.993  0.2841 -2.4848 -1.5063
   60MOL    H5911977   6.553   0.463   0.707  0.0777 -0.0832 -0.5428
   60MOL    H6011978   6.608   0.544   0.468  1.1140  0.3782 -0.8175
   60MOL    H6111979   6.739   0.645   0.542 -0.2696 -0.6337 -0.2963
   60MOL    C6211980   6.780   0.427   0.523  0.0458 -0.1733 -0.9555
   60MOL    C6311981   6.889   0.447   0.419 -0.2350  0.7939 -1.2849
   60MOL   Cl6411982   7.028   0.531   0.481 -0.1998  0.1854  0.0822
   60MOL    C6511983   6.883   0.402   0.299 -0.0228  0.7778  0.4005
   60MOL    C6611984   6.996   0.411   0.195 -0.3872  0.1935  0.7985
   60MOL    H6711985   6.821   0.387   0.616 -0.6503  0.8543 -0.2003
   60MOL    H6811986   6.717   0.341   0.500  0.9344 -0.8704 -0.8666
   60MOL    H6911987   6.797   0.345   0.268  2.1679 -1.0393 -2.5835
   60MOL    H7011988   7.089   0.358   0.217 -0.3734  0.2495  0.8740
   60MOL    H7111989   7.029   0.514   0.202  2.4042 -0.6614  0.6433
   60MOL    C7211990   6.945   0.374   0.056 -0.1225  0.2965 -0.6855
   60MOL    C7311991   7.054   0.385   8.369 -0.7670  0.1097  0.4480
   60MOL   Cl7411992   7.157   0.247   8.359  0.1601 -0.0999 -0.2692
   60MOL    C7511993   7.069   0.497   8.294  0.3634 -0.3308  0.3455
   60MOL    C7611994   7.165   0.512   8.172 -0.0299  0.1786 -0.4914
   60MOL    H7711995   6.865   0.444   0.036  0.6949  1.2271 -0.7218
   60MOL    H7811996   6.903   0.273   0.054  1.8942 -0.6540  1.2145
   60MOL    H7911997   7.006   0.585   8.305  0.2517 -0.1732 -1.3184
   60MOL    H8011998   7.101   0.493   8.086  0.3370 -1.5147 -0.4093
   60MOL    H8111999   7.236   0.430   8.168  0.7152  0.8246 -0.4941
   60MOL    C8212000   7.232   0.648   8.175 -0.2683 -0.1676 -0.6704
   60MOL    C8312001   7.352   0.659   8.084 -0.7092  0.6252  0.4225
   60MOL   Cl8412002   7.452   0.787   8.131 -0.2215  0.2587  0.0133
   60MOL    C8512003   7.384   0.576   7.980  0.8347  0.2946  0.0809
   60MOL    C8612004   7.483   0.599   7.873 -0.4608 -1.0376 -0.1294
   60MOL    H8712005   7.265   0.668   8.277 -0.3188 -1.0061 -0.4900
   60MOL    H8812006   7.149   0.714   8.149  2.5417  2.7773 -2.5684
   60MOL    H8912007   7.316   0.493   7.969  0.9929  0.0701  0.7807
   60MOL    H9012008   7.545   0.688   7.883 -0.7590 -0.6412 -1.7091
   60MOL    H9112009   7.564   0.526   7.879  1.3963  1.0194  0.4724
   60MOL    C9212010   7.420   0.587   7.733  0.1694 -0.2103 -0.4792
   60MOL    C9312011   7.531   0.613   7.625 -0.5956  0.3581 -0.0794
   60MOL   Cl9412012   7.542   0.774   7.581 -0.0781  0.3485  0.2750
   60MOL    C9512013   7.622   0.525   7.578 -0.1046 -0.0255 -0.0980
   60MOL    C9612014   7.615   0.378   7.616  0.3394  0.1037 -0.4934
   60MOL    H9712015   7.335   0.653   7.716  0.6565 -0.1962 -3.1726
   60MOL    H9812016   7.393   0.485   7.706 -0.7220 -0.3221  0.8106
   60MOL    H9912017   7.700   0.554   7.509 -0.0753 -0.2518 -0.1600
   60MOL   H10012018   7.593   0.364   7.722  2.2239  0.2671 -0.0647
   60MOL   H10112019   7.537   0.327   7.560 -1.1310  0.5467  1.1149
   60MOL   C10212020   7.752   0.311   7.605 -0.1636  0.1803  0.1350
   60MOL   C10312021   7.781   0.240   7.469 -0.7115 -1.1137 -0.2034
   60MOL  Cl10412022   7.854   0.345   7.359  0.0215  0.6284  0.0675
   60MOL   C10512023   7.746   0.114   7.447  0.2444  0.2690 -0.2642
   60MOL   C10612024   7.769   0.039   7.322  0.1109  0.2471  0.3525
   60MOL   H10712025   7.831   0.381   7.630 -0.8558  1.7565 -1.9218
   60MOL   H10812026   7.768   0.227   7.673 -0.2667  0.1992  0.1816
   60MOL   H10912027   7.685   0.059   7.518 -2.5253  2.8534 -0.5400
   60MOL   H11012028   7.819   0.105   7.251 -0.1163  1.5045  1.3608
   60MOL   H11112029   7.836   8.376   7.340  0.6054  0.7922  1.1018
   60MOL   C11212030   7.641   8.420   7.250 -0.1429  0.1811 -0.1229
   60MOL   C11312031   7.650   8.345   7.116  0.1449 -0.0264  0.1349
   60MOL  Cl11412032   7.762   8.214   7.112  0.3670  0.0514  0.0837
   60MOL   C11512033   7.582   8.382   7.007  1.1926 -0.3567 -0.2728
   60MOL   C11612034   7.485   0.072   6.975  0.3294  0.0765  0.5785
   60MOL   H11712035   7.582   8.358   7.317  1.4129 -1.0985  0.1160
   60MOL   H11812036   7.579   0.087   7.236 -0.1290  0.4134  1.1967
   60MOL   H11912037   7.591   8.317   6.922  0.2087  0.4478 -1.0186
   60MOL   H12012038   7.520   0.127   6.888  1.1036 -2.0622 -0.5120
   60MOL   H12112039   7.487   0.145   7.055 -1.6205 -1.5210  2.1435
   60MOL   C12212040   7.351   0.019   6.941  0.1197 -0.6959 -0.3613
   60MOL   C12312041   7.234   0.122   6.938 -0.5699 -0.1679  0.5129
   60MOL  Cl12412042   7.232   0.222   7.082 -0.0006  0.0812  0.1739
   60MOL   C12512043   7.134   0.122   6.849 -0.6874  0.1743 -0.1498
   60MOL   C12612044   7.118   0.031   6.730  0.8684 -0.0911  0.2802
   60MOL   H12712045   7.358   8.407   6.837  0.3320 -1.4057 -0.1252
   60MOL   H12812046   7.335   8.356   7.010  2.6859  0.1700  1.3952
   60MOL   H12912047   7.053   0.192   6.863 -0.1423  1.1194 -1.6896
   60MOL   H13012048   7.208   8.397   6.700  0.4759 -0.5477 -0.0941
   60MOL   H13112049   7.057   8.370   6.768  0.3019 -0.9963 -2.3995
   60MOL   C13212050   7.057   0.099   6.602 -0.2163  0.0661  0.2830
   60MOL   C13312051   6.968   8.418   6.527 -0.2241 -0.9539  0.2864
   60MOL  Cl13412052   6.841   8.358   6.623  0.0174  0.2822 -0.2723
   60MOL   C13512053   6.979   8.383   6.401  0.4961  0.0401 -0.0922
   60MOL   C13612054   7.087   0.006   6.311 -0.0898 -0.0583  0.6244
   60MOL   H13712055   6.977   0.170   6.624 -1.2844 -1.0990  0.2432
   60MOL   H13812056   7.132   0.153   6.544 -0.8096  1.2093  0.5701
   60MOL   H13912057   6.901   8.319   6.360  1.0055  0.3141 -1.5025
   60MOL   H14012058   7.038   0.024   6.215 -1.6742  2.1266  1.7874
   60MOL   H14112059   7.127   0.104   6.338  0.6717 -0.0055 -0.6533
   60MOL   C14212060   7.194   8.321   6.286  0.2469  0.5076 -0.7092
   60MOL   C14312061   7.300   8.315   6.397  0.4486  0.1991 -0.4849
   60MOL  Cl14412062   7.285   8.160   6.481  0.1214  0.1731 -0.5792
   60MOL   C14512063   7.380   8.416   6.432 -0.5001  0.4158 -0.0321
   60MOL   C14612064   7.484   8.403   6.538 -0.6273 -0.4076  0.6075
   60MOL   H14712065   7.245   8.356   6.196 -0.0362  0.7347 -0.7803
   60MOL   H14812066   7.152   8.225   6.255 -0.9715  0.1761  1.7957
   60MOL   H14912067   7.373   0.089   6.380 -1.7428 -0.4426 -1.4321
   60MOL   H15012068   7.435   0.024   6.626  1.8071 -0.2642  1.9140
   60MOL   H15112069   7.506   8.297   6.551  1.3567  0.0443  1.0147
   60MOL   C15212070   7.612   0.073   6.505  0.0707  0.1747  0.7797
   60MOL   C15312071   7.727   0.050   6.604 -0.2375 -0.1775 -0.1158
   60MOL  Cl15412072   7.790   0.201   6.663  0.1416 -0.2178  0.5438
   60MOL   C15512073   7.774   8.359   6.647 -0.1365  0.3525  0.1121
   60MOL   C15612074   7.880   8.337   6.757  0.1543  0.0386  0.4625
   60MOL   H15712075   7.640   0.050   6.402 -2.5185  1.0206 -0.1705
   60MOL   H15812076   7.568   0.173   6.506 -0.2575  0.0493 -0.3476
   60MOL   H15912077   7.738   8.269   6.599  0.7219 -1.0516  1.9926
   60MOL   H16012078   7.853   8.264   6.833 -0.8657 -0.1630 -0.0820
   60MOL   H16112079   7.897   0.008   6.814  2.2730  0.3865 -0.6735
   60MOL   C16212080   8.017   8.307   6.699 -0.0802  0.6133  0.0799
   60MOL   C16312081   8.137   8.342   6.779  0.2722 -0.4884 -0.1746
   60MOL  Cl16412082   8.262   8.402   6.672 -0.6339 -0.3813 -0.1315
   60MOL   C16512083   8.163   8.317   6.911  0.6947 -0.7475 -0.3143
   60MOL   C16612084   8.301   8.337   6.980  0.9042  0.3810  0.3149
   60MOL   H16712085   8.028   8.202   6.672  0.9878  0.8235 -0.3254
   60MOL   H16812086   8.022   8.356   6.602 -1.1126  0.9708  0.2024
   60MOL   H16912087   8.085   8.277   6.975  0.2964 -1.7027 -1.3901
   60MOL   H17012088   8.377   8.361   6.906 -1.2559 -0.1975 -2.1769
   60MOL   H17112089   8.274   0.007   7.033  0.2679 -0.4414  1.4256
   60MOL   C17212090   8.348   8.218   7.070  0.4348  0.0145 -0.1950
   60MOL   C17312091   8.380   8.104   6.981 -0.2732 -0.7909 -0.1393
   60MOL  Cl17412092   8.264   7.978   7.009  0.3731 -0.3491  0.1867
   60MOL   C17512093   0.062   8.105   6.894 -0.3389 -0.6147  0.3565
   60MOL   C17612094   0.086   7.990   6.797 -0.0337  0.1831  0.1246
   60MOL   H17712095   8.277   8.197   7.150  0.9392 -0.6982  0.0593
   60MOL   H17812096   0.024   8.252   7.106  1.2881 -1.9089 -0.6220
   60MOL   H17912097   0.125   8.193   6.897 -1.4593  0.3762 -2.6161
   60MOL   H18012098   8.414   7.936   6.781 -1.3650  2.7909 -1.2230
   60MOL   H18112099   0.161   7.928   6.846  0.7022  0.9422 -0.0175
   60MOL   C18212100   0.141   8.045   6.659 -0.6541  0.2956 -0.3052
   60MOL   C18312101   0.130   7.939   6.550  0.1860  0.3147  0.1074
   60MOL  Cl18412102   8.409   7.967   6.445  0.0799 -0.2862 -0.0724
   60MOL   C18512103   0.215   7.834   6.534 -0.6421 -0.3275  0.3914
   60MOL   C18612104   0.184   7.719   6.439 -0.2507 -0.1127  0.0387
   60MOL   H18712105   0.086   8.127   6.612 -0.0016 -0.2351 -2.0195
   60MOL   H18812106   0.241   8.075   6.690 -1.0585 -0.3467  1.6688
   60MOL   H18912107   0.309   7.824   6.587  1.1860 -0.9993 -2.8740
   60MOL   H19012108   0.171   7.628   6.497 -1.9690 -0.2969 -0.6098
   60MOL   H19112109   0.098   7.740   6.376  1.0046  0.0977 -1.6340
   60MOL   C19212110   0.304   7.689   6.350  0.0814 -0.3431  0.1563
   60MOL   C19312111   0.293   7.555   6.286  0.3119  0.7745  0.1201
   60MOL  Cl19412112   0.194   7.554   6.144 -0.1175 -0.0543  0.1508
   60MOL   C19512113   0.356   7.440   6.325  0.6955 -0.5276 -0.2129
   60MOL   C19612114   0.441   7.425   6.456 -0.2458 -0.7671 -0.3406
   60MOL   H19712115   0.398   7.695   6.404 -0.4666 -0.8806  1.1980
   60MOL   H19812116   0.311   7.766   6.274 -3.8276  0.8808  0.9132
   60MOL   H19912117   0.340   7.354   6.261 -2.6474 -0.4659  0.4685
   60MOL   H20012118   0.533   7.375   6.425  1.6286  1.8303  0.8335
   60MOL   H20112119   0.388   7.347   6.511  0.9225 -1.8347 -0.7054
   60MOL   H20212120   0.462   7.511   6.520  1.8631 -3.4731  2.7865
   61MOL     C112121   0.243   5.777   3.729 -0.2124 -0.6596  0.0541
   61MOL     C212122   0.295   5.924   3.709 -0.0649 -0.2523  1.2130
   61MOL    Cl312123   0.302   5.953   3.535  0.0522  0.2376 -0.0276
   61MOL     C412124   0.339   6.011   3.802 -0.3587 -0.1070 -0.4298
   61MOL     C512125   0.339   5.974   3.950 -0.8200 -0.5907 -0.7443
   61MOL     H612126   0.136   5.779   3.749  0.2357 -0.3335  2.4820
   61MOL     H712127   0.302   5.745   3.814  2.5719  0.0820 -1.5355
   61MOL     H812128   0.379   6.107   3.773  0.2369  0.4491  2.0907
   61MOL     H912129   0.279   5.886   3.971 -2.4837  0.5022 -0.8631
   61MOL    H1012130   0.440   5.937   3.972 -1.2925 -0.6690  1.3137
   61MOL    H1112131   0.263   5.706   3.648 -2.4987 -1.4101  0.0971
   61MOL    C1212132   0.298   6.081   4.049 -0.8332 -0.0647 -0.1679
   61MOL    C1312133   0.362   6.057   4.183 -0.0944 -0.1183  0.5414
   61MOL   Cl1412134   0.511   6.133   4.191  0.0085 -0.1155  0.0252
   61MOL    C1512135   0.312   5.989   4.287 -0.6391 -0.2238 -0.0145
   61MOL    C1612136   0.190   5.909   4.306 -0.4210  0.3620 -0.7672
   61MOL    H1712137   0.340   6.174   4.012 -0.9811  0.0299 -0.0986
   61MOL    H1812138   0.189   6.088   4.049 -0.7822  0.8773  1.8974
   61MOL    H1912139   0.383   5.979   4.368  2.7894 -1.9746 -3.1132
   61MOL    H2012140   0.130   5.970   4.374  2.3331  2.2041  0.1017
   61MOL    H2112141   0.143   5.903   4.208 -0.8067 -1.0965 -0.5013
   61MOL    C2212142   0.223   5.771   4.368 -0.1308  0.3526  0.2926
   61MOL    C2312143   0.102   5.683   4.375  0.2350 -0.0950 -0.5818
   61MOL   Cl2412144   8.393   5.765   4.449  0.0905  0.1922 -0.1987
   61MOL    C2512145   0.095   5.564   4.308 -0.8053 -0.0211  0.1381
   61MOL    C2612146   8.396   5.476   4.296 -0.2535  0.4233 -0.0250
   61MOL    H2712147   0.296   5.716   4.307 -0.4601  0.0091  0.2052
   61MOL    H2812148   0.270   5.776   4.466 -0.1723  1.0028  0.2810
   61MOL    H2912149   0.179   5.529   4.250  0.0069 -0.0706  1.3245
   61MOL    H3012150   8.412   5.401   4.374  5.0089  0.5900 -0.7580
   61MOL    H3112151   8.309   5.533   4.329 -0.0199  0.2593  0.9112
   61MOL    C3212152   8.370   5.415   4.163  0.0202 -0.0585 -0.0848
   61MOL    C3312153   8.234   5.349   4.156 -0.2017 -0.5996 -0.0706
   61MOL   Cl3412154   8.239   5.201   4.235 -0.2776  0.1380  0.1649
   61MOL    C3512155   8.127   5.387   4.086  0.4570 -0.2694 -0.2545
   61MOL    C3612156   7.998   5.306   4.079  0.8629 -0.4314 -0.1273
   61MOL    H3712157   8.376   5.489   4.083 -2.4359  2.3200  1.7918
   61MOL    H3812158   0.025   5.341   4.141 -0.0763  0.1823 -1.2859
   61MOL    H3912159   8.125   5.473   4.021  0.6835 -0.9841 -1.2332
   61MOL    H4012160   7.990   5.233   4.160  1.0002  0.1117  0.3826
   61MOL    H4112161   7.913   5.374   4.085  2.3111  1.3848  0.4771
   61MOL    C4212162   7.990   5.222   3.950 -0.5241 -0.6213  0.1880
   61MOL    C4312163   7.871   5.134   3.972  0.6796  0.5213 -0.1146
   61MOL   Cl4412164   7.739   5.188   3.878  0.0431 -0.2100 -0.1493
   61MOL    C4512165   7.858   5.026   4.054  0.0894 -0.2206 -0.2818
   61MOL    C4612166   7.959   4.964   4.151  0.3734 -1.0813 -0.3040
   61MOL    H4712167   7.987   5.265   3.850 -0.9761  0.4145  0.6456
   61MOL    H4812168   8.078   5.159   3.965 -0.7484 -0.2919  3.2256
   61MOL    H4912169   7.761   4.978   4.061 -1.1286  2.2125  0.1339
   61MOL    H5012170   8.061   4.996   4.136 -0.1267  0.7331  0.1001
   61MOL    H5112171   7.926   4.998   4.249 -1.5108  0.5880 -1.4745
   61MOL    C5212172   7.927   4.814   4.158  0.0218 -0.2062  0.0589
   61MOL    C5312173   8.040   4.732   4.214  0.6406 -0.2373 -0.3599
   61MOL   Cl5412174   7.985   4.650   4.359 -0.0166 -0.2893  0.1045
   61MOL    C5512175   8.159   4.720   4.162  0.1496 -0.5278 -0.1755
   61MOL    C5612176   8.280   4.652   4.228  0.5670 -0.6130 -0.0436
   61MOL    H5712177   7.832   4.802   4.210 -0.2132  1.9338  0.1830
   61MOL    H5812178   7.920   4.789   4.052  0.1863  0.6726 -0.1619
   61MOL    H5912179   8.170   4.773   4.068 -1.8841  0.8577  0.3386
   61MOL    H6012180   8.319   4.731   4.292 -0.8310  1.4899 -1.7432
   61MOL    H6112181   8.241   4.575   4.294 -0.9729  0.9592  0.9167
   61MOL    C6212182   8.375   4.585   4.128 -0.1131  0.0633 -0.6109
   61MOL    C6312183   0.078   4.523   4.179 -0.9591  0.1189 -0.5333
   61MOL   Cl6412184   0.198   4.640   4.215  0.1876 -0.1036 -0.2180
   61MOL    C6512185   0.107   4.393   4.186  0.4440  0.0937 -0.0298
   61MOL    C6612186   0.232   4.333   4.240 -0.0626  0.2982  0.3465
   61MOL    H6712187   8.305   4.514   4.085 -0.4280 -1.0448  1.6596
   61MOL    H6812188   8.410   4.651   4.049 -1.0750 -1.5651 -2.4340
   61MOL    H6912189   0.027   4.325   4.158  1.1836 -1.1643  0.8884
   61MOL    H7012190   0.201   4.241   4.291 -0.4606  0.9463  1.2844
   61MOL    H7112191   0.271   4.394   4.322 -1.1610  0.4611  0.7484
   61MOL    C7212192   0.335   4.297   4.131  0.8178 -0.7337 -0.1030
   61MOL    C7312193   0.431   4.192   4.180 -0.4149  1.1067 -0.2491
   61MOL   Cl7412194   0.357   4.039   4.207  0.2373  0.2457  0.4923
   61MOL    C7512195   0.562   4.211   4.182  0.5595  0.3922 -0.1577
   61MOL    C7612196   0.673   4.112   4.225  0.2463 -0.0083  0.6436
   61MOL    H7712197   0.366   4.394   4.091  2.5919 -1.9354 -1.7056
   61MOL    H7812198   0.278   4.258   4.047 -0.8814  1.1733  0.1219
   61MOL    H7912199   0.598   4.307   4.149 -1.5571  2.1183  2.3376
   61MOL    H8012200   0.733   4.070   4.143 -2.3157 -0.7234 -0.9042
   61MOL    H8112201   0.635   4.021   4.271  0.9017 -0.1663  0.8845
   61MOL    C8212202   0.781   4.179   4.320  0.7629 -0.4765 -0.3240
   61MOL    C8312203   0.743   4.189   4.468  0.3880 -0.1532  0.0770
   61MOL   Cl8412204   0.881   4.252   4.554 -0.0358  0.2579  0.1016
   61MOL    C8512205   0.625   4.158   4.518 -0.1703  0.8645 -0.1826
   61MOL    C8612206   0.581   4.188   4.665 -0.0316  0.2034  0.4370
   61MOL    H8712207   0.815   4.277   4.286 -0.1187  0.7355  2.1363
   61MOL    H8812208   0.871   4.122   4.300  3.1628  0.9798  5.2156
   61MOL    H8912209   0.544   4.117   4.458 -0.7127  1.3816  0.1905
   61MOL    H9012210   0.572   4.094   4.719  2.6106 -1.1669 -1.4078
   61MOL    H9112211   0.654   4.252   4.714 -0.4761  2.2996 -1.5272
   61MOL    C9212212   0.442   4.251   4.671  0.1798 -0.0318 -0.6637
   61MOL    C9312213   0.400   4.286   4.811 -0.1537  0.2039 -0.4394
   61MOL   Cl9412214   0.460   4.441   4.876  0.2252  0.1342  0.1552
   61MOL    C9512215   0.318   4.205   4.886 -0.1141 -0.1949 -0.4732
   61MOL    C9612216   0.252   4.082   4.844 -0.4950 -0.3072  0.4231
   61MOL    H9712217   0.360   4.188   4.638 -1.3711  1.5937 -0.0018
   61MOL    H9812218   0.433   4.335   4.602  0.1671 -0.4320 -1.1514
   61MOL    H9912219   0.295   4.232   4.988  0.6520 -2.2232  0.2610
   61MOL   H10012220   0.151   4.092   4.883  0.2212  0.6597  2.0459
   61MOL   H10112221   0.243   4.064   4.737 -0.1346 -1.4174  0.5775
   61MOL   C10212222   0.330   3.955   4.894  0.4078 -0.2829  0.1518
   61MOL   C10312223   0.283   3.814   4.851 -0.0625 -0.7424  1.0635
   61MOL  Cl10412224   0.110   3.799   4.859  0.1166  0.1861  0.0134
   61MOL   C10512225   0.364   3.713   4.821 -0.3128  0.1083  0.1473
   61MOL   C10612226   0.309   3.580   4.773 -0.4016  0.1543  0.1272
   61MOL   H10712227   0.438   3.964   4.885  0.3414  0.5970  0.1081
   61MOL   H10812228   0.323   3.951   5.002  0.8508 -1.4817  0.1360
   61MOL   H10912229   0.470   3.730   4.827 -0.2986  0.0875 -0.0660
   61MOL   H11012230   0.211   3.591   4.727 -0.1967 -0.0737 -0.3581
   61MOL   H11112231   0.369   3.545   4.689 -2.5844 -1.2881 -0.8789
   61MOL   C11212232   0.295   3.463   4.869 -0.3773 -0.3044 -0.2182
   61MOL   C11312233   0.201   3.358   4.811 -0.2804 -0.0418 -0.1189
   61MOL  Cl11412234   0.279   3.231   4.721  0.6344  0.3518  0.2576
   61MOL   C11512235   0.065   3.353   4.830  0.4519 -0.6699  0.5127
   61MOL   C11612236   8.389   3.441   4.897 -0.0928 -0.5981 -0.4103
   61MOL   H11712237   0.381   3.407   4.904 -1.2334 -2.8779 -2.0599
   61MOL   H11812238   0.257   3.500   4.964  0.3738 -1.4234  0.5307
   61MOL   H11912239   0.014   3.270   4.784  0.0441 -0.1183 -0.0395
   61MOL   H12012240   8.325   3.497   4.828  0.4265 -0.6847 -0.9669
   61MOL   H12112241   0.017   3.519   4.954  1.7416 -1.6195 -0.5533
   61MOL   C12212242   8.292   3.370   4.996  0.5485 -1.0053  0.3335
   61MOL   C12312243   8.197   3.471   5.056 -0.0805  0.6417 -0.2254
   61MOL  Cl12412244   8.272   3.543   5.198  0.2820  0.2101  0.5603
   61MOL   C12512245   8.068   3.494   5.018 -0.7062  0.3330  0.3140
   61MOL   C12612246   7.995   3.438   4.904 -0.7598 -0.0473 -0.1969
   61MOL   H12712247   8.231   3.291   4.951  2.2076 -2.4355  0.5361
   61MOL   H12812248   8.344   3.320   5.077 -1.8679 -1.3529  1.6966
   61MOL   H12912249   8.008   3.564   5.074 -0.2121  0.4965  0.6368
   61MOL   H13012250   7.946   3.522   4.856 -1.2804 -1.5157 -2.3391
   61MOL   H13112251   8.069   3.396   4.835  0.5193  0.0892  1.0759
   61MOL   C13212252   7.898   3.327   4.949 -0.0443  0.0513  0.2289
   61MOL   C13312253   7.845   3.251   4.835 -0.6744 -0.0474  0.1901
   61MOL  Cl13412254   7.678   3.283   4.796 -0.3178 -0.0748 -0.0424
   61MOL   C13512255   7.902   3.148   4.765  0.0907  0.7455 -0.6839
   61MOL   C13612256   8.032   3.083   4.791  0.1148 -0.0647  0.0500
   61MOL   H13712257   7.956   3.256   5.009 -0.0675 -0.9789 -0.9411
   61MOL   H13812258   7.826   3.354   5.026  0.8614 -0.4199  1.2663
   61MOL   H13912259   7.844   3.113   4.681  1.6488 -0.7527 -1.1635
   61MOL   H14012260   8.069   3.112   4.890 -1.4680  2.1150  0.0206
   61MOL   H14112261   8.026   2.975   4.800  1.7595 -0.2935 -1.2865
   61MOL   C14212262   8.132   3.125   4.686  0.8180 -0.0614 -0.1847
   61MOL   C14312263   8.143   3.033   4.566  0.3631 -0.4742  0.5548
   61MOL  Cl14412264   7.998   3.007   4.486  0.1825  0.1858  0.5908
   61MOL   C14512265   8.254   2.973   4.524  0.3746 -0.5329  0.7865
   61MOL   C14612266   8.268   2.887   4.400  0.7834  0.3272  0.0619
   61MOL   H14712267   8.228   3.132   4.736  0.6938 -0.2738  0.0831
   61MOL   H14812268   8.110   3.226   4.650  0.8046 -0.3410 -0.9688
   61MOL   H14912269   8.346   2.991   4.578  0.4267 -1.4264  1.0088
   61MOL   H15012270   8.168   2.858   4.365  0.7319 -2.6520  2.4490
   61MOL   H15112271   8.304   2.948   4.318 -0.5866  1.5746  0.3590
   61MOL   C15212272   8.362   2.769   4.429  0.5103 -0.0383  0.2237
   61MOL   C15312273   8.378   2.664   4.329 -0.2335 -0.2554 -0.0137
   61MOL  Cl15412274   0.028   2.729   4.186  0.3467 -0.0977  0.5760
   61MOL   C15512275   8.342   2.538   4.341  0.0026 -0.0680 -0.4527
   61MOL   C15612276   8.354   2.437   4.224  0.6023  0.5138 -0.0984
   61MOL   H15712277   0.038   2.815   4.452  0.2402  1.3751 -1.3514
   61MOL   H15812278   8.319   2.730   4.521  1.0587  0.1469  0.5654
   61MOL   H15912279   8.305   2.498   4.434  0.5003 -2.2567 -1.1666
   61MOL   H16012280   8.397   2.351   4.276 -0.9801  1.1185  2.3243
   61MOL   H16112281   8.412   2.473   4.139  0.6693 -1.2762 -0.8247
   61MOL   C16212282   8.213   2.395   4.180 -0.0213 -0.1228 -0.1114
   61MOL   C16312283   8.205   2.299   4.062 -0.2466  0.0499 -0.4471
   61MOL  Cl16412284   8.327   2.336   3.946  0.0711  0.0330  0.5756
   61MOL   C16512285   8.123   2.191   4.056  0.0092 -0.5359  0.4493
   61MOL   C16612286   8.117   2.086   3.942 -0.5028 -0.0043 -0.2113
   61MOL   H16712287   8.148   2.353   4.256 -2.4862 -1.2125 -2.7136
   61MOL   H16812288   8.165   2.488   4.150  2.3523  0.5222 -2.1173
   61MOL   H16912289   8.051   2.182   4.136 -0.5955 -0.7335 -0.1209
   61MOL   H17012290   8.016   2.077   3.901 -0.8081 -0.2753  0.5952
   61MOL   H17112291   8.181   2.130   3.866 -0.2588  0.2386  0.1355
   61MOL   C17212292   8.156   1.948   3.993  0.1841 -0.3397 -0.1053
   61MOL   C17312293   8.306   1.946   4.005 -0.1665 -0.5674  0.4634
   61MOL  Cl17412294   8.380   1.903   3.858 -0.1982 -0.2199 -0.0808
   61MOL   C17512295   8.364   1.962   4.129 -0.0731  0.2630  0.8482
   61MOL   C17612296   0.101   1.950   4.140 -0.0976  0.3710 -0.2757
   61MOL   H17712297   8.121   1.882   3.914  1.2328 -2.0285  0.8187
   61MOL   H17812298   8.097   1.908   4.075 -1.6261  1.4961 -0.4546
   61MOL   H17912299   8.313   1.983   4.222 -0.6308 -0.6049  0.7415
   61MOL   H18012300   0.142   1.897   4.054  2.1292 -1.1171  1.6430
   61MOL   H18112301   0.109   1.883   4.225 -0.7470 -2.3589 -2.3141
   61MOL   C18212302   0.173   2.081   4.169 -0.6722 -0.6495 -0.0018
   61MOL   C18312303   0.314   2.053   4.212 -0.4701 -0.2964 -0.0562
   61MOL  Cl18412304   0.315   2.000   4.377 -0.5063  0.6559 -0.0575
   61MOL   C18512305   0.425   2.069   4.137  0.7938 -0.7577 -0.2856
   61MOL   C18612306   0.565   2.021   4.177 -0.0191  0.6458  0.1406
   61MOL   H18712307   0.186   2.140   4.078  0.0078 -1.0202 -0.1442
   61MOL   H18812308   0.131   2.142   4.250  1.1907  0.3124  0.2579
   61MOL   H18912309   0.412   2.118   4.041 -0.2312  1.1562  0.7939
   61MOL   H19012310   0.632   2.106   4.194  0.5171  0.1457  0.5456
   61MOL   H19112311   0.568   1.968   4.272  0.5828  0.3283 -0.0515
   61MOL   C19212312   0.625   1.931   4.072 -0.0776  0.3242  0.0298
   61MOL   C19312313   0.782   1.916   4.086 -0.2992  0.1261 -0.0598
   61MOL  Cl19412314   0.818   1.775   4.170 -0.5118  0.0351 -0.3580
   61MOL   C19512315   0.874   2.009   4.045  0.2721  0.0396  0.0832
   61MOL   C19612316   0.852   2.144   3.975  0.1130  0.6443  0.1078
   61MOL   H19712317   0.625   1.981   3.975 -0.8315 -0.8607 -0.5861
   61MOL   H19812318   0.563   1.841   4.069  2.8329 -1.6986 -1.5652
   61MOL   H19912319   0.982   2.001   4.051  0.2236 -0.2537  0.6080
   61MOL   H20012320   0.746   2.169   3.973 -0.1058 -0.1946  0.5434
   61MOL   H20112321   0.868   2.139   3.867 -0.8337 -0.9298  0.0173
   61MOL   H20212322   0.922   2.217   4.015 -0.4658 -0.3705  3.0913
   62MOL     C112323   6.206   5.197   5.720  0.5964  0.1471 -0.1163
   62MOL     C212324   6.076   5.125   5.719  0.1078  0.5795  0.2471
   62MOL    Cl312325   6.041   5.078   5.552  0.2511  0.0885 -0.4819
   62MOL     C412326   5.995   5.089   5.817  0.3348 -0.1472  0.4363
   62MOL     C512327   5.999   5.135   5.966  0.8289 -0.1543  0.5102
   62MOL     H612328   6.288   5.145   5.671 -0.3449 -0.2080 -1.3457
   62MOL     H712329   6.237   5.209   5.824 -0.0037 -1.1299  0.2160
   62MOL     H812330   5.916   5.025   5.781 -0.6298  0.7773  0.8716
   62MOL     H912331   6.062   5.221   5.989 -0.4879  1.4904 -1.8428
   62MOL    H1012332   5.898   5.174   5.981  0.5471 -0.5265 -0.4037
   62MOL    H1112333   6.196   5.302   5.691  1.1240  0.4433  0.7430
   62MOL    C1212334   6.020   5.020   6.067  0.1980  0.4876 -0.4756
   62MOL    C1312335   6.159   4.953   6.052 -0.2101 -0.5137 -0.3670
   62MOL   Cl1412336   6.152   4.816   5.957 -0.0694  0.2734 -0.2813
   62MOL    C1512337   6.276   4.991   6.105 -0.0168 -0.2897 -0.4435
   62MOL    C1612338   6.312   5.120   6.177 -0.4318  0.1489 -0.2581
   62MOL    H1712339   6.030   5.059   6.168 -0.1340  0.1443 -0.3100
   62MOL    H1812340   5.939   4.948   6.060  2.1180 -1.7592 -0.1720
   62MOL    H1912341   6.360   4.926   6.091  1.4674  1.1221  1.6610
   62MOL    H2012342   6.227   5.188   6.171  1.0471  2.1257  0.7042
   62MOL    H2112343   6.349   5.090   6.276 -0.2887 -0.2530 -0.4320
   62MOL    C2212344   6.439   5.191   6.117 -0.4241  0.5491  0.2758
   62MOL    C2312345   6.458   5.324   6.182 -0.1460  0.4236 -0.0386
   62MOL   Cl2412346   6.568   5.307   6.306  0.4897 -0.1146  0.4830
   62MOL    C2512347   6.415   5.443   6.138 -0.4630  0.3272 -0.1091
   62MOL    C2612348   6.426   5.578   6.207  0.1964 -0.5513 -0.0740
   62MOL    H2712349   6.526   5.127   6.135  0.0707  1.2962  0.5575
   62MOL    H2812350   6.413   5.196   6.012 -0.0428  2.1034  0.2481
   62MOL    H2912351   6.352   5.441   6.050  1.2644 -1.7401 -1.3216
   62MOL    H3012352   6.322   5.589   6.238  0.1020 -1.1881 -0.1528
   62MOL    H3112353   6.476   5.574   6.304 -0.7360 -2.8162  0.3644
   62MOL    C3212354   6.477   5.693   6.110 -0.1989 -0.1760  0.0755
   62MOL    C3312355   6.502   5.819   6.188 -0.2915  0.4842 -0.1052
   62MOL   Cl3412356   6.644   5.814   6.287  0.2010 -0.3745  0.0332
   62MOL    C3512357   6.419   5.924   6.176 -0.4810 -0.2301 -0.0343
   62MOL    C3612358   6.435   6.054   6.268  0.1872  0.0337 -0.2089
   62MOL    H3712359   6.574   5.664   6.070 -1.7096 -2.6700 -1.9544
   62MOL    H3812360   6.409   5.722   6.030  1.2404 -0.7789 -1.4015
   62MOL    H3912361   6.334   5.915   6.110 -1.2031  0.7614  0.7390
   62MOL    H4012362   6.376   6.044   6.359 -2.3587  2.1423 -1.5435
   62MOL    H4112363   6.537   6.067   6.303  0.7701 -1.3488 -1.3522
   62MOL    C4212364   6.396   6.182   6.196 -0.6549 -0.4530 -0.1468
   62MOL    C4312365   6.443   6.307   6.276 -0.2632 -0.2202 -0.3409
   62MOL   Cl4412366   6.307   6.398   6.336 -0.1743 -0.1268  0.5815
   62MOL    C4512367   6.571   6.347   6.305  0.3049 -0.4000 -0.6794
   62MOL    C4612368   6.707   6.281   6.268  0.2804  0.8722 -0.0970
   62MOL    H4712369   6.458   6.182   6.106 -0.6103 -0.6118 -0.1156
   62MOL    H4812370   6.294   6.191   6.160 -0.4197  0.7592 -0.5392
   62MOL    H4912371   6.578   6.438   6.362  0.5212 -2.6739  3.1198
   62MOL    H5012372   6.683   6.196   6.206 -0.4428  1.7674 -1.0567
   62MOL    H5112373   6.762   6.351   6.205  0.8170  1.5441  1.0958
   62MOL    C5212374   6.781   6.252   6.395 -0.5328 -0.8550 -1.1809
   62MOL    C5312375   6.914   6.181   6.371 -0.4579 -0.1956  0.4668
   62MOL   Cl5412376   6.915   6.012   6.409  0.2757  0.6481  0.4740
   62MOL    C5512377   7.020   6.242   6.315 -0.0693  0.4858 -0.7328
   62MOL    C5612378   7.152   6.176   6.275 -0.1684  0.0750  0.4324
   62MOL    H5712379   6.786   6.343   6.455  0.5519 -0.9547 -1.1257
   62MOL    H5812380   6.713   6.193   6.456 -0.4817  0.5225  0.2472
   62MOL    H5912381   7.004   6.347   6.298 -0.2973  0.4217 -0.9212
   62MOL    H6012382   7.223   6.213   6.349 -0.9253  1.8225  0.3036
   62MOL    H6112383   7.144   6.067   6.280 -1.1169  0.0826 -0.8059
   62MOL    C6212384   7.190   6.239   6.136  0.6787  0.6664 -0.2391
   62MOL    C6312385   7.333   6.219   6.100 -0.1312  0.2413  0.7933
   62MOL   Cl6412386   7.448   6.320   6.190 -0.2934  0.0496 -0.2331
   62MOL    C6512387   7.376   6.120   6.018 -0.2839 -0.3707 -0.5118
   62MOL    C6612388   7.520   6.093   5.988  0.3020 -0.5467  0.0952
   62MOL    H6712389   7.119   6.202   6.061 -0.1314 -0.9651  1.2949
   62MOL    H6812390   7.177   6.347   6.146 -0.1642  0.4510  1.0590
   62MOL    H6912391   7.307   6.049   5.975 -1.4885  0.5904 -0.1978
   62MOL    H7012392   7.536   5.991   6.023  1.8212 -0.0315  0.9675
   62MOL    H7112393   7.592   6.148   6.048  0.7866 -1.6429  0.5307
   62MOL    C7212394   7.543   6.098   5.837 -0.1995 -0.5107 -0.2804
   62MOL    C7312395   7.460   6.001   5.752 -0.3742 -0.1378 -0.9086
   62MOL   Cl7412396   7.516   5.837   5.784 -0.3251  0.3987 -0.0634
   62MOL    C7512397   7.353   6.038   5.684  0.1231 -0.5779  0.0349
   62MOL    C7612398   7.253   5.956   5.609  0.5733  0.0437 -0.7519
   62MOL    H7712399   7.648   6.074   5.821  0.1562  0.5112  0.4479
   62MOL    H7812400   7.526   6.200   5.803 -0.2147 -0.2979  0.3630
   62MOL    H7912401   7.337   6.144   5.682  2.0259 -0.2653  0.2725
   62MOL    H8012402   7.150   5.975   5.638 -0.1024  0.0448 -3.0449
   62MOL    H8112403   7.279   5.850   5.617 -1.2992 -0.3398  0.5320
   62MOL    C8212404   7.255   5.994   5.461 -0.2304  0.2261 -0.0109
   62MOL    C8312405   7.163   5.925   5.367 -0.6966 -0.3328  0.0305
   62MOL   Cl8412406   7.247   5.786   5.297 -0.5777  0.0561  0.2914
   62MOL    C8512407   7.047   5.978   5.333  0.3001  0.7551 -0.4078
   62MOL    C8612408   6.948   5.919   5.239  0.1029 -0.6786 -0.5935
   62MOL    H8712409   7.359   5.985   5.428  0.5950  1.8969  1.9874
   62MOL    H8812410   7.238   6.101   5.449 -1.2904 -0.0995 -1.5162
   62MOL    H8912411   7.019   6.073   5.377  0.7785  1.9651 -2.6440
   62MOL    H9012412   6.934   5.994   5.162 -1.3064  0.8367  1.1006
   62MOL    H9112413   6.991   5.832   5.189 -1.4528 -1.3633 -0.7552
   62MOL    C9212414   6.810   5.879   5.294  0.3457  0.5393 -0.9564
   62MOL    C9312415   6.728   5.796   5.202 -0.1453  0.2273  0.9930
   62MOL   Cl9412416   6.602   5.889   5.130 -0.0401  0.1925  0.3007
   62MOL    C9512417   6.732   5.667   5.178  0.3420 -0.3020  0.2967
   62MOL    C9612418   6.840   5.564   5.228 -0.3010 -0.2693  0.0232
   62MOL    H9712419   6.748   5.966   5.315  0.5180  0.0987  1.4792
   62MOL    H9812420   6.819   5.817   5.383  0.6386  1.4490 -0.3481
   62MOL    H9912421   6.654   5.627   5.114  1.0467 -1.8355  0.3613
   62MOL   H10012422   6.928   5.625   5.247 -0.8295 -0.2406  2.6439
   62MOL   H10112423   6.802   5.533   5.326  0.8582  1.0970  0.9204
   62MOL   C10212424   6.871   5.441   5.141  0.5378 -0.1562 -0.0471
   62MOL   C10312425   6.985   5.365   5.205 -0.4529 -0.1822  0.4279
   62MOL  Cl10412426   6.956   5.298   5.367 -0.0746 -0.2944 -0.2206
   62MOL   C10512427   7.097   5.347   5.135 -0.3661 -0.2292  0.1749
   62MOL   C10612428   7.219   5.279   5.178  0.3108 -0.0928  0.4249
   62MOL   H10712429   6.777   5.390   5.120  0.0289  0.8623 -0.2301
   62MOL   H10812430   6.895   5.476   5.041  1.1058 -1.7305 -0.4824
   62MOL   H10912431   7.113   5.379   5.034  3.4373 -1.0169  0.4749
   62MOL   H11012432   7.230   5.268   5.286  1.1186 -1.9156  0.1703
   62MOL   H11112433   7.234   5.179   5.138 -0.4622 -0.5036  1.1551
   62MOL   C11212434   7.353   5.353   5.141  0.5767 -0.2736 -0.3060
   62MOL   C11312435   7.385   5.352   4.994 -0.3377  0.7073  0.3323
   62MOL  Cl11412436   7.368   5.509   4.926  0.5638  0.0902  0.0110
   62MOL   C11512437   7.415   5.253   4.913 -0.4578 -0.6921  0.0054
   62MOL   C11612438   7.436   5.108   4.943  0.0215  0.2330 -0.3250
   62MOL   H11712439   7.355   5.456   5.176 -0.1018 -0.1109 -0.7402
   62MOL   H11812440   7.433   5.303   5.195  0.3166 -0.7586 -0.3710
   62MOL   H11912441   7.421   5.280   4.808 -0.9916 -0.8366 -0.0636
   62MOL   H12012442   7.381   5.054   4.865  1.3590 -1.0062 -0.4335
   62MOL   H12112443   7.395   5.071   5.037 -0.7981  2.2594  0.1441
   62MOL   C12212444   7.574   5.053   4.916 -0.1995 -0.2992  0.6873
   62MOL   C12312445   7.582   4.898   4.910 -0.1657  0.2986 -0.4282
   62MOL  Cl12412446   7.642   4.830   5.057 -0.1576 -0.3954 -0.7501
   62MOL   C12512447   7.551   4.821   4.808  0.7011  0.4086  0.0640
   62MOL   C12612448   7.494   4.860   4.674  0.2685  0.3255 -0.2636
   62MOL   H12712449   7.613   5.101   4.826 -0.4612 -0.1712  0.6433
   62MOL   H12812450   7.642   5.085   4.996 -0.3340 -0.0592  0.7051
   62MOL   H12912451   7.568   4.716   4.827 -1.9887  0.1228  1.2227
   62MOL   H13012452   7.472   4.967   4.673  0.9768  0.4735 -1.8193
   62MOL   H13112453   7.577   4.848   4.604  2.0453 -0.6591  1.9699
   62MOL   C13212454   7.375   4.769   4.625  0.0930 -0.0193 -0.0208
   62MOL   C13312455   7.287   4.839   4.517  0.6770  0.2084  0.3031
   62MOL  Cl13412456   7.311   4.775   4.360  0.3440 -0.2216 -0.3173
   62MOL   C13512457   7.195   4.930   4.540 -0.0648 -1.0258 -0.4709
   62MOL   C13612458   7.160   4.996   4.670  0.0485 -0.6113 -0.3440
   62MOL   H13712459   7.415   4.674   4.588 -0.2117  0.1953 -0.9164
   62MOL   H13812460   7.313   4.749   4.712  0.6705 -0.8020  0.2156
   62MOL   H13912461   7.145   4.964   4.450  2.4870  1.8975 -0.8606
   62MOL   H14012462   7.188   4.929   4.751  0.7074  0.6868  0.5108
   62MOL   H14112463   7.221   5.085   4.688 -1.0191 -0.1748  1.1525
   62MOL   C14212464   7.007   5.013   4.688  0.4778 -0.0894 -0.4670
   62MOL   C14312465   6.934   4.886   4.699 -0.4213  0.3492 -0.1973
   62MOL  Cl14412466   6.882   4.832   4.540 -0.0894  0.2351  0.0499
   62MOL   C14512467   6.909   4.817   4.811  0.2430  0.0907  0.6762
   62MOL   C14612468   6.832   4.684   4.813 -0.2794  0.0991  0.2764
   62MOL   H14712469   6.962   5.070   4.606  1.3309  2.0892  0.5146
   62MOL   H14812470   6.984   5.067   4.779 -1.4516  1.9511 -2.1079
   62MOL   H14912471   6.943   4.850   4.908  0.6128  1.8987 -0.0359
   62MOL   H15012472   6.845   4.638   4.715  3.6248  1.1745  0.2229
   62MOL   H15112473   6.868   4.620   4.893 -1.5949 -1.5854 -0.4402
   62MOL   C15212474   6.681   4.712   4.834  0.6821 -0.2556 -1.0474
   62MOL   C15312475   6.652   4.753   4.982  0.1255  0.3538 -0.1200
   62MOL  Cl15412476   6.654   4.616   5.098 -0.2602 -0.2656 -0.0648
   62MOL   C15512477   6.597   4.873   5.016  0.0305 -0.4709  0.2862
   62MOL   C15612478   6.554   4.921   5.157 -0.0561  0.4637  0.0696
   62MOL   H15712479   6.657   4.792   4.764 -1.3885 -1.3682 -1.6275
   62MOL   H15812480   6.626   4.623   4.805 -0.9783  0.0124  1.1704
   62MOL   H15912481   6.573   4.955   4.949 -0.5286  0.3337  1.4401
   62MOL   H16012482   6.556   4.842   5.233  0.8234 -0.8951 -1.3340
   62MOL   H16112483   6.449   4.945   5.145 -0.7394 -2.7560 -0.7137
   62MOL   C16212484   6.639   5.034   5.224  0.0475 -0.3063 -0.2669
   62MOL   C16312485   6.598   5.067   5.370 -0.1318  0.1834 -0.1512
   62MOL  Cl16412486   6.433   5.123   5.372 -0.0055  0.2352  0.1620
   62MOL   C16512487   6.685   5.066   5.471 -0.1345  0.7403 -0.5318
   62MOL   C16612488   6.662   5.102   5.615  0.4268 -0.2119  0.1109
   62MOL   H16712489   6.736   4.986   5.239 -0.2882 -0.3481  1.9829
   62MOL   H16812490   6.630   5.127   5.168 -1.6168 -0.3484 -0.0834
   62MOL   H16912491   6.782   5.029   5.442 -0.5122 -0.0116 -0.8289
   62MOL   H17012492   6.555   5.122   5.616  0.9763  2.8984 -0.5345
   62MOL   H17112493   6.700   5.018   5.673 -0.5811  0.2914  1.5224
   62MOL   C17212494   6.743   5.230   5.650  0.8030 -0.3219  0.4247
   62MOL   C17312495   6.724   5.278   5.786 -0.2823 -0.1418 -0.1966
   62MOL  Cl17412496   6.561   5.331   5.817  0.1807  0.3883 -0.0872
   62MOL   C17512497   6.832   5.301   5.866  0.4651 -0.0762 -0.2350
   62MOL   C17612498   6.833   5.367   5.999  0.2236  0.4867  0.1637
   62MOL   H17712499   6.714   5.312   5.585  0.6509  0.4204  1.4127
   62MOL   H17812500   6.850   5.216   5.636  0.7542  2.3005 -3.3786
   62MOL   H17912501   6.931   5.279   5.831  0.3462 -3.4344  1.3080
   62MOL   H18012502   6.890   5.304   6.068 -0.2612 -0.4976 -0.3251
   62MOL   H18112503   6.734   5.367   6.044  0.7996 -2.7247  1.5924
   62MOL   C18212504   6.898   5.504   6.001 -0.4946 -0.3322  0.2901
   62MOL   C18312505   6.926   5.578   6.131 -0.2408  0.2974  0.3790
   62MOL  Cl18412506   7.064   5.683   6.112 -0.2928 -0.3806 -0.2392
   62MOL   C18512507   6.869   5.562   6.253 -0.1423 -0.3524  0.1289
   62MOL   C18612508   6.897   5.641   6.381  0.0797 -0.0191 -0.0864
   62MOL   H18712509   6.995   5.492   5.953 -0.2907 -2.2603  1.1603
   62MOL   H18812510   6.849   5.571   5.931 -1.0845 -1.2797 -0.2115
   62MOL   H18912511   6.786   5.494   6.265 -0.5936  0.6315  3.0891
   62MOL   H19012512   7.006   5.628   6.385  0.3534  1.2135 -2.3543
   62MOL   H19112513   6.884   5.747   6.358  2.0818  0.1539 -0.6016
   62MOL   C19212514   6.821   5.586   6.505 -0.1844 -0.2920 -0.0333
   62MOL   C19312515   6.875   5.648   6.638  0.0514 -0.1482  0.5439
   62MOL  Cl19412516   6.985   5.544   6.709  0.0594  0.3672  0.0901
   62MOL   C19512517   6.821   5.749   6.703  0.1320  0.1973  0.5997
   62MOL   C19612518   6.701   5.831   6.664 -0.1735 -0.6256 -0.1825
   62MOL   H19712519   6.829   5.478   6.519  0.8871  0.0711  2.3840
   62MOL   H19812520   6.714   5.603   6.501 -0.6638 -2.5200  1.8070
   62MOL   H19912521   6.869   5.779   6.795  0.4691  0.1493  0.4393
   62MOL   H20012522   6.740   5.928   6.635  0.4974 -1.3569 -1.8328
   62MOL   H20112523   6.625   5.840   6.742  0.8625 -3.0473  1.1672
   62MOL   H20212524   6.654   5.790   6.574  1.5819 -0.6799 -1.0913
   63MOL     C112525   2.818   1.024   1.573 -0.0546 -0.1102 -0.1627
   63MOL     C212526   2.829   1.094   1.444 -0.1882  0.3327  0.3899
   63MOL    Cl312527   2.890   1.253   1.462 -0.0328 -0.0081 -0.3088
   63MOL     C412528   2.803   1.046   1.316 -0.1249 -0.1626 -0.8242
   63MOL     C512529   2.762   0.903   1.284  0.1683  0.1305 -0.4471
   63MOL     H612530   2.903   0.958   1.593  0.1680  0.0360 -0.6025
   63MOL     H712531   2.717   0.984   1.579 -0.6827  1.7171  2.2480
   63MOL     H812532   2.810   1.106   1.227 -0.2440  0.8316 -0.1636
   63MOL     H912533   2.841   0.850   1.229  1.8564  1.1216  0.9513
   63MOL    H1012534   2.759   0.839   1.373  1.4060 -1.6255 -1.6225
   63MOL    H1112535   2.820   1.107   1.644 -0.0991 -0.8711  0.7330
   63MOL    C1212536   2.625   0.891   1.220 -0.8769 -0.6293  0.5160
   63MOL    C1312537   2.567   0.746   1.215  0.3405 -0.1362  0.2638
   63MOL   Cl1412538   2.432   0.728   1.321 -0.0820 -0.0693 -0.3426
   63MOL    C1512539   2.612   0.639   1.144 -0.7508 -0.3305 -0.3235
   63MOL    C1612540   2.730   0.635   1.050  0.4552  0.1473 -0.8255
   63MOL    H1712541   2.554   0.962   1.262 -0.2614  1.0663 -1.1898
   63MOL    H1812542   2.621   0.927   1.117 -3.2315  1.3471  1.2555
   63MOL    H1912543   2.555   0.547   1.157  1.4857 -1.4069  2.6745
   63MOL    H2012544   2.702   0.723   0.991  1.3683  0.4712 -0.7787
   63MOL    H2112545   2.829   0.648   1.095  1.1446 -0.9613 -1.9854
   63MOL    C2212546   2.724   0.505   0.962  0.1251  0.1870  0.2422
   63MOL    C2312547   2.864   0.466   0.918 -0.1060  0.2414  0.4853
   63MOL   Cl2412548   2.948   0.363   1.028  0.1295 -0.3789 -0.2137
   63MOL    C2512549   2.920   0.516   0.804  0.7279  0.2359  0.4723
   63MOL    C2612550   3.058   0.492   0.754  0.8280  0.2364 -0.8219
   63MOL    H2712551   2.691   0.426   1.029 -1.6109 -2.0693 -3.0772
   63MOL    H2812552   2.659   0.523   0.875 -0.4862  1.7838  1.0050
   63MOL    H2912553   2.867   0.582   0.738 -1.0039  0.0192  1.5964
   63MOL    H3012554   3.113   0.583   0.778  0.2540  0.9247 -2.0542
   63MOL    H3112555   3.093   0.404   0.807  0.6962  1.3499  1.1387
   63MOL    C3212556   3.064   0.475   0.606  0.3704 -0.3857  0.8022
   63MOL    C3312557   3.208   0.454   0.569  0.4953 -0.6812 -0.3619
   63MOL   Cl3412558   3.301   0.603   0.568  0.4463 -0.4241  0.1868
   63MOL    C3512559   3.255   0.340   0.531  0.6174 -0.1764  0.1176
   63MOL    C3612560   3.399   0.321   0.486  0.3510  0.6899  0.1364
   63MOL    H3712561   2.999   0.392   0.578  0.0912  0.2100 -0.3629
   63MOL    H3812562   3.026   0.559   0.547  1.0606 -0.2825  0.4998
   63MOL    H3912563   3.192   0.253   0.526  0.1491  0.2953 -3.3972
   63MOL    H4012564   3.459   0.403   0.524  4.2321 -3.0834  2.7262
   63MOL    H4112565   3.442   0.229   0.527 -0.3165  0.6317  0.7105
   63MOL    C4212566   3.407   0.299   0.332 -0.5734 -0.9500 -0.0165
   63MOL    C4312567   3.546   0.304   0.284  0.5360  0.0126 -0.0349
   63MOL   Cl4412568   3.620   0.455   0.313  0.1036 -0.0019 -0.2343
   63MOL    C4512569   3.599   0.218   0.202 -1.1837  0.0456 -0.1862
   63MOL    C4612570   3.528   0.090   0.156 -0.4899  1.0901 -0.1613
   63MOL    H4712571   3.357   0.203   0.321  1.0127 -1.8057  0.0581
   63MOL    H4812572   3.356   0.380   0.280  0.9997 -0.4931 -0.8603
   63MOL    H4912573   3.699   0.226   0.162 -0.9417  2.9091  0.9233
   63MOL    H5012574   3.433   0.061   0.203 -0.3612 -2.1846 -1.7692
   63MOL    H5112575   3.496   0.091   0.052 -1.1963 -1.6106 -0.0206
   63MOL    C5212576   3.613   8.387   0.161  0.5582  0.7017  0.0119
   63MOL    C5312577   3.530   8.266   0.110  0.5093  0.6450  0.1020
   63MOL   Cl5412578   3.420   8.207   0.241  0.0738  0.3503 -0.1063
   63MOL    C5512579   3.545   8.217   8.407  0.6012 -0.3061  0.2587
   63MOL    C5612580   3.471   8.100   8.346 -0.7980 -0.0744  0.0499
   63MOL    H5712581   3.704   8.397   0.101  0.2908  1.5792 -0.2477
   63MOL    H5812582   3.642   8.357   0.262 -1.5851 -2.9145 -0.3661
   63MOL    H5912583   3.615   8.275   8.348 -0.1656 -0.4958 -0.8695
   63MOL    H6012584   3.398   8.064   8.419  0.0695 -0.4941  0.7237
   63MOL    H6112585   3.421   8.131   8.254  1.0184  0.2723 -0.8486
   63MOL    C6212586   3.564   7.982   8.304 -0.2368  0.0690 -0.1691
   63MOL    C6312587   3.507   7.864   8.224  0.1604  0.3141  0.3023
   63MOL   Cl6412588   3.578   7.719   8.281  0.0583  0.0333 -0.3983
   63MOL    C6512589   3.420   7.872   8.122  0.2573  0.7437  0.0652
   63MOL    C6612590   3.366   7.759   8.037  0.1645  0.0921  0.7931
   63MOL    H6712591   3.659   8.010   8.257  1.1137 -1.9451  1.2779
   63MOL    H6812592   3.599   7.947   8.401  0.3479 -0.3095 -0.5119
   63MOL    H6912593   3.384   7.969   8.091 -1.9294 -0.1472 -0.2226
   63MOL    H7012594   3.416   7.666   8.066  3.9917  1.8466  0.2354
   63MOL    H7112595   3.402   7.778   7.936  0.8616 -1.5936  0.7038
   63MOL    C7212596   3.207   7.763   8.032 -0.6514 -0.4974  0.2441
   63MOL    C7312597   3.139   7.653   7.954  0.4731  0.0806 -0.2887
   63MOL   Cl7412598   3.009   7.725   7.862 -0.4666 -0.3739 -0.8005
   63MOL    C7512599   3.169   7.524   7.966  1.0207 -0.0853  0.5090
   63MOL    C7612600   3.103   7.415   7.892 -0.6935  0.1830  0.5662
   63MOL    H7712601   3.178   7.863   8.000 -0.1055 -0.7986 -1.2620
   63MOL    H7812602   3.176   7.746   8.135  1.1502 -1.4219  0.6565
   63MOL    H7912603   3.251   7.499   8.033  0.5245  0.8175  1.4715
   63MOL    H8012604   3.172   7.381   7.814 -0.4089 -0.4090  1.0705
   63MOL    H8112605   3.022   7.440   7.824 -0.9232  2.8430  1.7934
   63MOL    C8212606   3.042   7.307   7.993  0.1535  0.7457 -0.3128
   63MOL    C8312607   3.136   7.201   8.043 -0.5498  0.2445  0.6152
   63MOL   Cl8412608   3.090   7.152   8.200 -0.0927  0.1909 -0.0662
   63MOL    C8512609   3.250   7.158   7.980  0.2928 -0.6128  0.0365
   63MOL    C8612610   3.352   7.064   8.037  0.1893  0.1647 -0.5662
   63MOL    H8712611   2.959   7.270   7.933  1.1173 -0.8003 -0.7095
   63MOL    H8812612   2.999   7.357   8.080 -1.5371  0.8967 -1.2233
   63MOL    H8912613   3.271   7.189   7.878 -1.0125 -0.3053 -0.1492
   63MOL    H9012614   3.311   7.011   8.122  1.0849 -0.5625 -0.5853
   63MOL    H9112615   3.372   7.001   7.951 -0.2209 -0.3183 -0.3071
   63MOL    C9212616   3.472   7.136   8.089  0.2549 -0.3766  0.7168
   63MOL    C9312617   3.596   7.055   8.133 -0.0133 -1.2005  0.0492
   63MOL   Cl9412618   3.623   6.924   8.021  0.0040 -0.0480 -0.1376
   63MOL    C9512619   3.674   7.071   8.238  0.6492  0.2987 -0.3738
   63MOL    C9612620   3.671   7.177   8.349 -0.5909 -1.1549  0.2176
   63MOL    H9712621   3.438   7.204   8.167  0.4045 -1.0434  1.3766
   63MOL    H9812622   3.514   7.206   8.017 -0.3991  0.3782  1.0605
   63MOL    H9912623   3.751   6.997   8.254 -0.3807 -0.4659  1.1947
   63MOL   H10012624   3.589   7.245   8.325 -0.4731 -0.0479  2.7828
   63MOL   H10112625   3.646   7.129   0.023 -2.4607 -0.1303  0.2586
   63MOL   C10212626   3.805   7.253   8.371 -0.0592 -0.3536 -0.2935
   63MOL   C10312627   3.792   7.362   0.064  0.0914  0.4632  0.8390
   63MOL  Cl10412628   3.933   7.365   0.165 -0.4262 -0.1149 -0.1753
   63MOL   C10512629   3.698   7.460   0.080 -0.4364 -0.0123 -0.3499
   63MOL   C10612630   3.687   7.573   0.187 -0.9577  0.1663  0.1225
   63MOL   H10712631   3.885   7.182   8.393  1.5019  1.5040  0.1768
   63MOL   H10812632   3.841   7.298   8.279  0.3624 -0.7382 -0.3211
   63MOL   H10912633   3.618   7.472   0.008 -1.0374  2.4048  0.6718
   63MOL   H11012634   3.772   7.563   0.253  1.6240 -0.5327 -3.2141
   63MOL   H11112635   3.702   7.671   0.141 -1.0419 -0.3273 -0.9617
   63MOL   C11212636   3.561   7.579   0.277 -0.2711  0.3024 -0.2115
   63MOL   C11312637   3.562   7.675   0.395 -0.4032  0.8229  0.0121
   63MOL  Cl11412638   3.618   7.832   0.352  0.2376 -0.1641 -0.2514
   63MOL   C11512639   3.518   7.648   0.521  0.3519 -0.1407 -0.0103
   63MOL   C11612640   3.465   7.509   0.571  0.0233  0.5274  0.3031
   63MOL   H11712641   3.480   7.606   0.209 -1.2337  0.1374  0.8770
   63MOL   H11812642   3.553   7.473   0.301 -1.0864  1.0099  2.8358
   63MOL   H11912643   3.518   7.724   0.598  0.6748 -0.9631  0.8140
   63MOL   H12012644   3.490   7.489   0.675  0.8797  1.1461  0.2228
   63MOL   H12112645   3.513   7.433   0.509 -1.2661 -0.1592  0.1284
   63MOL   C12212646   3.313   7.472   0.542  0.2695  0.2174  0.4622
   63MOL   C12312647   3.218   7.547   0.628  0.2990  0.3374 -0.3372
   63MOL  Cl12412648   3.177   7.695   0.552 -0.0774  0.3233  0.2542
   63MOL   C12512649   3.159   7.504   0.743 -0.0154 -0.5123  0.4161
   63MOL   C12612650   3.192   7.370   0.812  0.0067  0.6213  0.1410
   63MOL   H12712651   3.307   7.495   0.436  2.2847 -1.0990  0.0248
   63MOL   H12812652   3.287   7.366   0.545 -0.7588  0.4054 -1.1591
   63MOL   H12912653   3.077   7.557   0.789  0.1167 -0.3971  0.5229
   63MOL   H13012654   3.111   7.298   0.806  0.7427 -0.4174  2.0729
   63MOL   H13112655   3.285   7.332   0.770  1.3973  3.2603  0.7103
   63MOL   C13212656   3.213   7.373   0.966  0.5165  0.0274 -0.6682
   63MOL   C13312657   3.269   7.249   1.040 -0.2260  1.0013  0.1856
   63MOL  Cl13412658   3.140   7.149   1.099  0.0256  0.0027  0.1226
   63MOL   C13512659   3.398   7.204   1.046 -0.7201 -0.1744 -0.2577
   63MOL   C13612660   3.509   7.273   0.970 -0.2868  0.9378  0.1137
   63MOL   H13712661   3.269   7.461   0.999 -0.5790 -0.0818  1.5730
   63MOL   H13812662   3.114   7.395   1.004  0.1401  0.3232 -1.7829
   63MOL   H13912663   3.420   7.107   1.086 -0.6706 -0.0912 -0.0863
   63MOL   H14012664   3.561   7.196   0.912  1.8328  2.6270 -0.3110
   63MOL   H14112665   3.465   7.348   0.904 -0.1575 -0.0823 -1.1633
   63MOL   C14212666   3.614   7.338   1.060  0.1262 -1.0883 -0.9347
   63MOL   C14312667   3.733   7.390   0.985  0.4018 -0.1966  0.4869
   63MOL  Cl14412668   3.859   7.282   1.009  0.4131 -0.3010  0.4340
   63MOL   C14512669   3.741   7.497   0.903  0.5980  0.2018  0.2117
   63MOL   C14612670   3.858   7.547   0.819  0.5057  1.2896 -0.1336
   63MOL   H14712671   3.650   7.266   1.133 -0.3381 -2.3600 -1.9534
   63MOL   H14812672   3.574   7.413   1.128  1.0564 -2.1069  0.7790
   63MOL   H14912673   3.651   7.555   0.899 -0.1709 -0.9598  0.4378
   63MOL   H15012674   3.876   7.650   0.851 -0.9974  1.3438  0.5678
   63MOL   H15112675   3.946   7.490   0.849 -1.1343 -0.8864  0.6429
   63MOL   C15212676   3.835   7.553   0.667  0.4788 -0.4760 -0.2770
   63MOL   C15312677   3.948   7.612   0.587 -0.1555 -0.7027 -0.2649
   63MOL  Cl15412678   3.956   7.778   0.624  0.2409  0.2360 -0.2010
   63MOL   C15512679   4.040   7.555   0.505 -0.1924 -0.2804 -0.8082
   63MOL   C15612680   4.159   7.630   0.440  0.3096  0.5214  0.7352
   63MOL   H15712681   3.823   7.450   0.632  0.6599  0.2191 -2.4384
   63MOL   H15812682   3.745   7.613   0.651  2.0832  1.5555 -1.9257
   63MOL   H15912683   4.039   7.448   0.489 -0.5129 -0.4127  0.0837
   63MOL   H16012684   4.249   7.604   0.496 -0.9438 -0.2747  2.4138
   63MOL   H16112685   4.142   7.737   0.451  2.0414  0.7024  1.9039
   63MOL   C16212686   4.172   7.599   0.291 -0.5962 -0.2037  0.3067
   63MOL   C16312687   4.271   7.691   0.221  0.2031  0.6242  0.3535
   63MOL  Cl16412688   4.229   7.720   0.052 -0.1770  0.6313 -0.0175
   63MOL   C16512689   4.377   7.751   0.281 -0.0811 -0.0128 -0.4853
   63MOL   C16612690   4.478   7.848   0.225 -0.1074  0.6619 -0.6065
   63MOL   H16712691   4.187   7.492   0.281  0.5717 -0.2663  2.5803
   63MOL   H16812692   4.074   7.606   0.242  1.1470 -0.6774 -3.4693
   63MOL   H16912693   4.394   7.729   0.386 -0.0056 -0.3193 -0.5618
   63MOL   H17012694   4.575   7.797   0.230  0.3501  1.7034  1.6942
   63MOL   H17112695   4.461   7.845   0.117 -0.3037 -1.5131 -0.5271
   63MOL   C17212696   4.480   7.988   0.289 -0.0866  0.3198 -0.5756
   63MOL   C17312697   4.589   8.080   0.232  0.9123 -0.4654  0.6532
   63MOL  Cl17412698   4.685   8.156   0.358 -0.3455 -0.3012 -0.0626
   63MOL   C17512699   4.626   8.091   0.104  0.1572  0.0983 -0.5841
   63MOL   C17612700   4.737   8.178   0.051  0.8811  0.7677 -0.8298
   63MOL   H17712701   4.486   7.977   0.397  1.8621 -1.5771 -0.8340
   63MOL   H17812702   4.381   8.031   0.275  0.9441  2.8492 -0.2316
   63MOL   H17912703   4.581   8.040   0.020  0.4287 -0.1136 -0.6001
   63MOL   H18012704   4.812   8.190   0.130 -2.9866  0.4546  3.1113
   63MOL   H18112705   4.700   8.281   0.046  1.5054  0.9764 -1.2062
   63MOL   C18212706   4.792   8.134   8.332  0.1870 -0.0124 -0.2281
   63MOL   C18312707   4.930   8.180   8.310 -0.3040  0.7808 -0.3210
   63MOL  Cl18412708   4.945   8.292   8.176  0.2488 -0.0264  0.2288
   63MOL   C18512709   5.040   8.123   8.378 -0.7078 -0.2677 -0.1608
   63MOL   C18612710   5.184   8.152   8.347 -0.2420 -0.2157  0.4240
   63MOL   H18712711   4.787   8.026   8.324 -0.3473  0.0303 -0.5025
   63MOL   H18812712   4.721   8.160   8.253  1.1479 -1.0888 -1.4559
   63MOL   H18912713   5.027   8.046   0.032  0.0714  0.5082  0.7801
   63MOL   H19012714   5.223   8.054   8.319 -2.3467 -0.4631 -1.7718
   63MOL   H19112715   5.179   8.223   8.265  1.0400 -1.9911 -1.2472
   63MOL   C19212716   5.264   8.206   0.051 -0.5405 -0.3211 -0.6920
   63MOL   C19312717   5.400   8.251   0.021 -0.3798 -0.2322 -0.0528
   63MOL  Cl19412718   5.510   8.122   8.407  0.4873  0.3228 -0.2095
   63MOL   C19512719   5.450   8.376   0.017 -0.1652  0.4945 -0.9087
   63MOL   C19612720   5.370   0.081   0.029 -0.4651 -0.2313  0.2708
   63MOL   H19712721   5.272   8.125   0.124 -0.6916  1.3484  1.2198
   63MOL   H19812722   5.224   8.291   0.106  0.5152  1.6356 -2.8618
   63MOL   H19912723   5.556   8.382   8.421  0.1374 -0.9335  0.4178
   63MOL   H20012724   5.382   0.126   0.128 -2.3588  0.1042  0.3681
   63MOL   H20112725   5.263   0.061   0.023 -0.2450 -1.1194 -0.7209
   63MOL   H20212726   5.402   0.145   8.368  1.3803 -0.9407  0.4159
   64MOL     C112727   5.714   8.217   5.112 -0.0191 -0.0596 -0.2396
   64MOL     C212728   5.564   8.186   5.144 -0.0844 -0.5883  0.3099
   64MOL    Cl312729   5.476   8.320   5.192 -0.4456  0.0327 -0.2202
   64MOL     C412730   5.503   8.066   5.130  0.1124 -0.0419  0.4285
   64MOL     C512731   5.574   7.940   5.080 -0.3246 -0.6460  0.0554
   64MOL     H612732   5.758   8.153   5.036  0.0327 -0.5485  0.2026
   64MOL     H712733   5.768   8.183   5.200  1.6617  0.2723 -1.1295
   64MOL     H812734   5.397   8.063   5.150 -0.2481 -0.1612 -1.4245
   64MOL     H912735   5.681   7.942   5.100  0.2338  0.3110 -2.7867
   64MOL    H1012736   5.543   7.862   5.149 -0.2685  0.7241  1.6734
   64MOL    H1112737   5.738   8.321   5.088 -2.0145  0.3565 -0.5499
   64MOL    C1212738   5.548   7.920   4.937 -0.6341  0.2981  0.0384
   64MOL    C1312739   5.643   7.805   4.883 -0.3295 -0.2607  1.1649
   64MOL   Cl1412740   5.624   7.662   4.972 -0.3624  0.3517 -0.5305
   64MOL    C1512741   5.737   7.817   4.789 -0.1068  0.0855  0.3141
   64MOL    C1612742   5.773   7.937   4.699  0.2027 -0.0556  0.6641
   64MOL    H1712743   5.447   7.889   4.911  0.3524 -0.6740 -2.8079
   64MOL    H1812744   5.578   8.013   4.886 -1.4290 -0.1445 -1.2651
   64MOL    H1912745   5.802   7.731   4.779 -1.9740 -1.4148  0.8658
   64MOL    H2012746   5.678   7.982   4.669  0.3905 -0.4760 -0.5957
   64MOL    H2112747   5.834   7.998   4.766  0.6794 -0.3207  0.4736
   64MOL    C2212748   5.861   7.902   4.586  0.7370  0.4859  0.7147
   64MOL    C2312749   5.913   8.018   4.503 -0.2875  0.4860  0.2854
   64MOL   Cl2412750   5.810   8.039   4.363  0.3117 -0.6081 -0.1904
   64MOL    C2512751   6.013   8.109   4.536 -0.2043 -0.4595  0.0879
   64MOL    C2612752   6.052   8.228   4.457 -0.1552  0.0800 -0.2613
   64MOL    H2712753   5.944   7.834   4.607 -0.0006 -0.5173  0.4295
   64MOL    H2812754   5.808   7.828   4.526  2.0725 -0.5780  0.8220
   64MOL    H2912755   6.067   8.088   4.627  0.1451  0.8893  0.2013
   64MOL    H3012756   6.019   8.225   4.353 -0.9547  0.9237 -0.0417
   64MOL    H3112757   5.989   8.309   4.493 -0.0083  0.2484 -0.3848
   64MOL    C3212758   6.205   8.241   4.457  0.4213  0.4764  0.3740
   64MOL    C3312759   6.233   8.379   4.408 -0.3209 -1.1248 -0.7938
   64MOL   Cl3412760   6.285   0.070   4.529 -0.0528  0.5153 -0.0640
   64MOL    C3512761   6.231   8.408   4.278  0.2489  0.0895  0.1775
   64MOL    C3612762   6.270   0.114   4.205  0.9579 -0.4478 -0.3974
   64MOL    H3712763   6.249   8.236   4.557  2.0715 -1.6182 -0.4268
   64MOL    H3812764   6.251   8.158   4.404  1.6055  1.7483 -0.6321
   64MOL    H3912765   6.196   8.332   4.210 -0.3942  0.9969 -0.5096
   64MOL    H4012766   6.205   0.129   4.119  0.6964  1.4628  0.1190
   64MOL    H4112767   6.235   0.198   4.265 -1.0482 -0.3128 -1.7324
   64MOL    C4212768   6.416   0.118   4.166 -0.1950  0.0436 -0.3170
   64MOL    C4312769   6.464   0.263   4.149 -0.4735 -0.6723  0.0909
   64MOL   Cl4412770   6.466   0.312   3.984 -0.2295  0.7072 -0.3637
   64MOL    C4512771   6.508   0.340   4.245  0.9099  0.2113  0.3330
   64MOL    C4612772   6.505   0.300   4.387  0.0622 -0.4084 -1.0370
   64MOL    H4712773   6.481   0.073   4.241 -1.9734 -3.0358 -0.5507
   64MOL    H4812774   6.426   0.071   4.067 -0.0275 -1.7674  0.5333
   64MOL    H4912775   6.543   0.440   4.224  4.7117 -1.1259 -0.0755
   64MOL    H5012776   6.417   0.242   4.415  1.3778 -1.3134  1.4416
   64MOL    H5112777   6.592   0.237   4.403  0.4932  0.8595  1.9886
   64MOL    C5212778   6.513   0.426   4.477 -0.1502  0.3435  0.1713
   64MOL    C5312779   6.378   0.492   4.484 -0.9019 -0.2116  0.1108
   64MOL   Cl5412780   6.373   0.656   4.423 -0.6466  0.4733 -0.3264
   64MOL    C5512781   6.269   0.440   4.546  0.3657  0.2344 -0.6595
   64MOL    C5612782   6.128   0.503   4.559 -0.6296 -0.8499  0.1113
   64MOL    H5712783   6.537   0.397   4.579 -0.8838  2.2879  0.9122
   64MOL    H5812784   6.594   0.483   4.432 -1.0102  1.2451 -0.2731
   64MOL    H5912785   6.274   0.342   4.592 -0.8129 -0.3636 -1.7580
   64MOL    H6012786   6.112   0.557   4.653 -2.0267  1.2488 -1.2992
   64MOL    H6112787   6.123   0.577   4.479  0.0354 -0.6319  0.2633
   64MOL    C6212788   6.019   0.398   4.543  0.3111  0.2398  0.1822
   64MOL    C6312789   5.887   0.466   4.511 -0.1573  0.6005  0.4809
   64MOL   Cl6412790   5.772   0.457   4.644  0.1012  0.0167 -0.2075
   64MOL    C6512791   5.856   0.516   4.393 -0.1010 -0.2994 -0.3023
   64MOL    C6612792   5.728   0.579   4.351  0.3317  0.6157 -0.1593
   64MOL    H6712793   6.049   0.347   4.451  1.2123  1.4280 -0.1848
   64MOL    H6812794   5.998   0.336   4.631  0.4014  2.1592  1.5838
   64MOL    H6912795   5.937   0.507   4.323 -0.2970  2.5504 -0.9214
   64MOL    H7012796   5.725   0.678   4.396  1.0455  0.9247 -0.7702
   64MOL    H7112797   5.642   0.531   4.398  0.5763  0.3001 -0.0293
   64MOL    C7212798   5.710   0.581   4.196 -0.4384 -0.0193  0.0059
   64MOL    C7312799   5.593   0.665   4.147  0.0746  0.2453  0.8140
   64MOL   Cl7412800   5.629   0.702   3.983  0.1132  0.0987  0.0972
   64MOL    C7512801   5.479   0.693   4.209 -0.3769 -0.4752  0.0291
   64MOL    C7612802   5.357   0.770   4.161  0.0688 -0.7664  0.3204
   64MOL    H7712803   5.704   0.486   4.143 -2.7937  1.5288 -2.5589
   64MOL    H7812804   5.796   0.632   4.153 -0.5900 -0.4069 -0.7564
   64MOL    H7912805   5.477   0.637   4.301 -2.2781 -2.4955 -1.2030
   64MOL    H8012806   5.387   0.845   4.087 -2.0946 -1.3654 -1.2143
   64MOL    H8112807   5.312   0.823   4.246 -2.4254 -2.2337 -0.0419
   64MOL    C8212808   5.255   0.674   4.105 -0.3519  0.2244  0.1799
   64MOL    C8312809   5.294   0.592   3.972 -0.1715  0.3947 -0.2426
   64MOL   Cl8412810   5.372   0.444   4.014 -0.1202 -0.3278  0.0952
   64MOL    C8512811   5.262   0.629   3.847 -0.4013 -0.2755 -0.2783
   64MOL    C8612812   5.289   0.551   3.726  0.0516  0.1335 -0.4130
   64MOL    H8712813   5.163   0.730   4.086 -1.0218 -1.2511 -1.0560
   64MOL    H8812814   5.227   0.613   4.191 -0.1238 -0.9081 -0.5439
   64MOL    H8912815   5.218   0.727   3.832  2.4003  1.1046  0.1895
   64MOL    H9012816   5.358   0.470   3.750 -1.1397 -0.3140  1.5762
   64MOL    H9112817   5.196   0.503   3.698 -1.2679  0.4684  3.1767
   64MOL    C9212818   5.359   0.641   3.615 -0.2643  0.0902  0.0797
   64MOL    C9312819   5.391   0.551   3.496  0.3014  0.3921 -0.0657
   64MOL   Cl9412820   5.271   0.577   3.375  0.2464  0.1881 -0.6090
   64MOL    C9512821   5.497   0.471   3.479  1.0473 -0.8320  0.3938
   64MOL    C9612822   5.596   0.429   3.579 -0.0672 -0.1173 -0.1776
   64MOL    H9712823   5.438   0.703   3.658 -0.5717  0.9010 -0.5027
   64MOL    H9812824   5.293   0.719   3.576 -1.0284 -0.4906  0.2005
   64MOL    H9912825   5.518   0.429   3.382 -1.4571  1.0566 -1.0368
   64MOL   H10012826   5.694   0.462   3.546 -0.6993  1.8077 -0.2006
   64MOL   H10112827   5.592   0.492   3.668  0.1335 -0.8986  0.3910
   64MOL   C10212828   5.585   0.275   3.608  0.4122 -0.6262 -0.1571
   64MOL   C10312829   5.687   0.219   3.702 -0.4519  0.1611  0.8099
   64MOL  Cl10412830   5.734   0.055   3.661 -0.0373 -0.0395  0.2418
   64MOL   C10512831   5.706   0.265   3.825 -0.8658  0.1509  0.2263
   64MOL   C10612832   5.796   0.207   3.928 -0.9051  0.5421  0.0385
   64MOL   H10712833   5.487   0.237   3.638 -0.4971  0.2075 -1.9693
   64MOL   H10812834   5.605   0.227   3.513 -1.6605 -1.5510 -0.1620
   64MOL   H10912835   5.655   0.353   3.859  0.1721  1.5692 -1.7481
   64MOL   H11012836   5.845   0.126   3.873  1.4578  1.4604  0.7373
   64MOL   H11112837   5.877   0.280   3.936  0.4412 -0.6211 -2.2732
   64MOL   C11212838   5.718   0.160   4.054  0.2202  0.3042 -0.1431
   64MOL   C11312839   5.802   0.055   4.132  0.9604 -0.1124  0.0249
   64MOL  Cl11412840   5.888   0.140   4.254  0.1882  0.2694 -0.1914
   64MOL   C11512841   5.815   8.346   4.103 -0.3192 -0.4536  0.1083
   64MOL   C11612842   5.742   8.282   3.978 -0.2891 -0.6750 -0.1995
   64MOL   H11712843   5.695   0.244   4.119 -1.3567 -1.2915  1.4232
   64MOL   H11812844   5.625   0.106   4.038  0.1504 -1.0055  3.9571
   64MOL   H11912845   5.875   8.286   4.170 -0.0249 -1.2419 -0.8610
   64MOL   H12012846   5.705   8.348   3.899  1.5367 -0.7994 -1.1799
   64MOL   H12112847   5.654   8.236   4.023 -0.0976 -1.1096 -0.2668
   64MOL   C12212848   5.815   8.167   3.895  0.0849 -0.2204 -0.3396
   64MOL   C12312849   5.829   8.039   3.979  0.0190  0.0229  0.1482
   64MOL  Cl12412850   5.714   7.915   3.936 -0.2596  0.1981 -0.0438
   64MOL   C12512851   5.936   8.000   4.055 -0.5728 -0.4239 -0.6252
   64MOL   C12612852   6.054   8.092   4.079  0.2936 -0.0694  0.2166
   64MOL   H12712853   5.761   8.143   3.803 -0.9577  0.9676 -0.0557
   64MOL   H12812854   5.918   8.191   3.869  1.2013  0.5085  4.4160
   64MOL   H12912855   5.942   7.900   4.095  4.5218  0.0088  0.0248
   64MOL   H13012856   6.047   8.192   4.035  0.5771 -0.5543 -0.9369
   64MOL   H13112857   6.056   8.108   4.187  1.6368  0.7371  0.0940
   64MOL   C13212858   6.181   8.028   4.016 -0.1243  0.2826  0.0298
   64MOL   C13312859   6.303   8.116   4.026  0.8890 -0.6723  0.0541
   64MOL  Cl13412860   6.401   8.091   4.165 -0.4546  0.0552 -0.1160
   64MOL   C13512861   6.338   8.215   3.940 -0.2352  0.0653  0.6992
   64MOL   C13612862   6.258   8.252   3.812  0.4272  0.2828  0.0824
   64MOL   H13712863   6.198   7.931   4.061 -0.7045  0.3724  0.4487
   64MOL   H13812864   6.176   8.014   3.908 -2.9991 -0.5490  0.2274
   64MOL   H13912865   6.431   8.266   3.959  0.4954  0.0855 -2.5338
   64MOL   H14012866   6.278   8.178   3.734 -2.4647 -1.6033  1.0592
   64MOL   H14112867   6.150   8.247   3.825  0.2102  1.8164 -1.0376
   64MOL   C14212868   6.299   8.390   3.761 -0.5974  0.1065 -0.2023
   64MOL   C14312869   6.237   0.028   3.638 -0.5544  0.1548  0.1240
   64MOL  Cl14412870   6.352   0.063   3.515 -0.0110  0.1939  0.3915
   64MOL   C14512871   6.109   0.068   3.627  1.0187 -0.0557  0.2373
   64MOL   C14612872   6.052   0.141   3.505 -0.2187 -0.0803 -0.3053
   64MOL   H14712873   6.408   8.382   3.751 -0.7592 -3.0061 -0.1264
   64MOL   H14812874   6.291   0.039   3.844 -0.2379 -3.1457  2.6913
   64MOL   H14912875   6.047   0.049   3.713  3.9114 -0.2574  2.3690
   64MOL   H15012876   6.124   0.141   3.424 -0.3809  1.3472 -0.4590
   64MOL   H15112877   5.969   0.078   3.473 -0.4846  0.4218 -0.6010
   64MOL   C15212878   6.006   0.282   3.534  0.1951 -0.2445  0.3645
   64MOL   C15312879   5.978   0.363   3.412  0.7692  0.0204 -0.7032
   64MOL  Cl15412880   5.820   0.316   3.351 -0.0321  0.1941  0.1203
   64MOL   C15512881   6.061   0.448   3.357  0.8365  0.0017  0.0833
   64MOL   C15612882   6.029   0.529   3.233 -0.3205  0.3715 -0.4417
   64MOL   H15712883   5.917   0.284   3.596 -0.4695  2.9907 -0.5935
   64MOL   H15812884   6.084   0.334   3.590  2.6908 -1.8600 -1.5077
   64MOL   H15912885   6.158   0.470   3.398  0.1395  0.9985  1.2579
   64MOL   H16012886   6.068   0.629   3.247 -0.8088  0.2924  1.5429
   64MOL   H16112887   5.921   0.536   3.221 -0.3812  0.0962 -0.0677
   64MOL   C16212888   6.094   0.475   3.108 -0.4148  0.4388  0.5603
   64MOL   C16312889   6.059   0.328   3.084  0.3630  1.0405  0.0302
   64MOL  Cl16412890   5.916   0.300   2.992  0.0048  0.0551  0.2249
   64MOL   C16512891   6.137   0.230   3.117  0.6022  0.1426 -0.4094
   64MOL   C16612892   6.127   0.085   3.082 -0.2967 -1.1455 -0.0426
   64MOL   H16712893   6.069   0.523   3.014  1.0282  2.3149  1.1190
   64MOL   H16812894   6.202   0.488   3.110 -0.4978  1.2046  0.3360
   64MOL   H16912895   6.222   0.252   3.180 -0.1138  0.1678  0.5559
   64MOL   H17012896   6.087   0.024   3.163  0.0810  0.5849  1.4795
   64MOL   H17112897   6.043   0.071   3.013 -2.0005 -1.6893  2.0857
   64MOL   C17212898   6.252   0.025   3.027 -0.4744  0.0875  0.2821
   64MOL   C17312899   6.313   0.107   2.915  0.3462  0.7398  0.3650
   64MOL  Cl17412900   6.474   0.142   2.948 -0.3063  0.1274  0.3681
   64MOL   C17512901   6.254   0.165   2.805  0.9125  0.8197 -1.0264
   64MOL   C17612902   6.317   0.259   2.711  0.3056  0.3737  0.5540
   64MOL   H17712903   6.232   8.345   2.991 -2.0115 -0.1869  1.8500
   64MOL   H17812904   6.313   0.009   3.116 -1.1985 -1.4619  0.5053
   64MOL   H17912905   6.149   0.140   2.797  1.2259 -1.5708  1.6008
   64MOL   H18012906   6.251   0.254   2.624 -0.1559 -0.3169  0.9476
   64MOL   H18112907   6.418   0.227   2.684  0.2732  0.6301  0.1224
   64MOL   C18212908   6.311   0.401   2.767  0.0176  0.4081 -0.3808
   64MOL   C18312909   6.316   0.512   2.657 -0.8872  0.1394 -0.4153
   64MOL  Cl18412910   6.479   0.564   2.627 -0.0287  0.1313 -0.3313
   64MOL   C18512911   6.214   0.545   2.576 -0.4126 -0.2784 -0.3068
   64MOL   C18612912   6.229   0.645   2.462 -0.4240  0.1640 -0.1359
   64MOL   H18712913   6.209   0.412   2.805 -0.2259  1.1805 -1.2220
   64MOL   H18812914   6.384   0.417   2.846 -2.4754 -2.2041  2.5960
   64MOL   H18912915   6.117   0.504   2.597 -0.7690  0.5909 -0.2278
   64MOL   H19012916   6.333   0.675   2.450  0.1180 -2.4586 -2.4483
   64MOL   H19112917   6.204   0.595   2.368 -0.4336  1.3284 -0.7569
   64MOL   C19212918   6.149   0.773   2.488  0.4972  0.5434 -0.0797
   64MOL   C19312919   6.146   0.864   2.369  0.4902  0.6373  0.3100
   64MOL  Cl19412920   6.017   0.839   2.259 -0.0528 -0.1300 -0.2223
   64MOL   C19512921   6.230   0.964   2.342  0.2668 -0.0899 -0.2790
   64MOL   C19612922   6.361   0.999   2.418  0.0151  0.9374  0.9594
   64MOL   H19712923   6.196   0.826   2.572 -0.1204 -0.9387  1.2306
   64MOL   H19812924   6.044   0.754   2.510  0.5233  0.5128  0.0224
   64MOL   H19912925   6.213   1.023   2.254 -2.0263 -0.4232 -0.0852
   64MOL   H20012926   6.344   1.076   2.494  0.3952  2.0291 -0.0508
   64MOL   H20112927   6.441   1.018   2.348  0.5221  0.8789  1.5190
   64MOL   H20212928   6.381   0.906   2.472 -1.5965 -1.0083 -1.7029
   65MOL     C112929   7.559   3.676   7.632 -0.1773  0.2213  0.4468
   65MOL     C212930   7.622   3.738   7.508 -0.4122  0.7941 -0.1870
   65MOL    Cl312931   7.718   3.624   7.425 -0.5503 -0.2040  0.1814
   65MOL     C412932   7.638   3.868   7.475  0.4278  0.2528  0.1205
   65MOL     C512933   7.583   3.983   7.557  0.0026 -0.1817  0.3351
   65MOL     H612934   7.544   3.747   7.713  1.7328  0.8920  0.2542
   65MOL     H712935   7.616   3.589   7.665  0.2632 -0.5089 -2.1288
   65MOL     H812936   7.697   3.900   7.391 -1.3015  1.1154 -0.7691
   65MOL     H912937   7.496   3.951   7.614  0.2523 -0.4752  0.5482
   65MOL    H1012938   7.665   4.022   7.616 -1.8700  1.4121  1.9557
   65MOL    H1112939   7.463   3.637   7.599  0.5662 -0.0961 -1.4273
   65MOL    C1212940   7.541   4.084   7.461 -0.1389 -0.0478 -0.6302
   65MOL    C1312941   7.499   4.221   7.517  0.7040 -0.1981 -0.0261
   65MOL   Cl1412942   7.621   4.340   7.488 -0.0427 -0.1913 -0.1138
   65MOL    C1512943   7.375   4.253   7.566  0.0935 -0.5163 -0.0541
   65MOL    C1612944   7.259   4.153   7.580 -0.4546 -0.2502  0.4689
   65MOL    H1712945   7.622   4.095   7.388  0.9406  1.3529  0.7249
   65MOL    H1812946   7.456   4.037   7.412  0.0100 -0.3655 -0.5835
   65MOL    H1912947   7.361   4.355   7.597 -0.7575 -0.6369 -0.0244
   65MOL    H2012948   7.274   4.071   7.510  1.8188  1.1599 -0.7639
   65MOL    H2112949   7.267   4.103   7.677 -0.9006 -0.9284  0.1637
   65MOL    C2212950   7.122   4.213   7.557  0.4753 -0.5672 -0.6077
   65MOL    C2312951   7.051   4.289   7.667 -0.3341  0.0823  0.2681
   65MOL   Cl2412952   6.908   4.363   7.598 -0.2592  0.2271  0.1248
   65MOL    C2512953   7.074   4.276   7.797 -0.3204  0.0066 -0.0738
   65MOL    C2612954   6.993   4.343   7.908 -0.0598 -0.1247 -0.2065
   65MOL    H2712955   7.116   4.274   7.467 -3.1423  3.0045  1.8485
   65MOL    H2812956   7.072   4.116   7.551  1.0819 -0.7700 -2.5252
   65MOL    H2912957   7.159   4.216   7.829 -1.0199 -0.3023  1.2479
   65MOL    H3012958   7.054   4.328   7.997  0.1053 -1.6431 -0.5664
   65MOL    H3112959   6.995   4.449   7.883  0.6710  0.2900  1.5691
   65MOL    C3212960   6.850   4.286   7.924 -0.2096  0.2381  0.8809
   65MOL    C3312961   6.781   4.349   8.037  0.0093  0.4496  0.3048
   65MOL   Cl3412962   6.676   4.228   8.113 -0.2982 -0.0016  0.0122
   65MOL    C3512963   6.779   4.483   8.067  0.0649  0.9954  0.1569
   65MOL    C3612964   6.691   4.544   8.172 -0.2177 -0.1824 -0.0836
   65MOL    H3712965   6.778   4.300   7.844  0.6508 -3.1356 -0.5410
   65MOL    H3812966   6.872   4.180   7.940 -0.8577  0.0869  0.7741
   65MOL    H3912967   6.842   4.553   8.014 -0.8758  2.1493  0.5505
   65MOL    H4012968   6.620   4.476   8.220 -1.1657  0.4207 -0.6104
   65MOL    H4112969   6.754   4.573   8.257  0.7604 -0.7797 -0.5984
   65MOL    C4212970   6.621   4.677   8.129  0.1108  0.2432 -0.3148
   65MOL    C4312971   6.526   4.666   8.015  0.1044  0.5176 -0.2868
   65MOL   Cl4412972   6.398   4.561   8.041  0.4067 -0.2144 -0.0501
   65MOL    C4512973   6.538   4.724   7.891 -0.6307 -0.9617 -0.3779
   65MOL    C4612974   6.658   4.809   7.847  0.1904  0.1614 -0.5219
   65MOL    H4712975   6.568   4.712   8.218  2.8029 -1.5016  2.0601
   65MOL    H4812976   6.691   4.759   8.116 -0.0235  0.4603  0.3374
   65MOL    H4912977   6.456   4.703   7.824 -3.1725  1.7256  1.8056
   65MOL    H5012978   6.737   4.815   7.922 -2.0724  0.4135  1.9455
   65MOL    H5112979   6.686   4.753   7.759 -2.6695  2.0005 -2.7183
   65MOL    C5212980   6.615   4.943   7.784 -0.2683  0.0346  0.5730
   65MOL    C5312981   6.721   5.010   7.703  0.3219 -0.0223  0.1324
   65MOL   Cl5412982   6.693   4.984   7.535 -0.3836  0.2428 -0.3600
   65MOL    C5512983   6.827   5.077   7.746  0.1075  0.6299 -0.9595
   65MOL    C5612984   6.941   5.147   7.665  0.0413 -0.6478 -0.0690
   65MOL    H5712985   6.534   4.934   7.711  0.0107  1.8911 -0.0030
   65MOL    H5812986   6.591   5.006   7.869  2.9193  0.8552  0.9127
   65MOL    H5912987   6.834   5.086   7.853  1.7452  0.4290 -1.0364
   65MOL    H6012988   6.910   5.165   7.562 -1.3518 -1.6477  0.1609
   65MOL    H6112989   6.959   5.243   7.713 -1.7347 -0.8164  1.0022
   65MOL    C6212990   7.074   5.071   7.663  0.2241 -0.4274 -0.2267
   65MOL    C6312991   7.182   5.153   7.599 -0.0938 -0.4871 -0.7955
   65MOL   Cl6412992   7.277   5.226   7.722  0.0018  0.2554 -0.3977
   65MOL    C6512993   7.225   5.151   7.469  0.4241  0.1420  0.0024
   65MOL    C6612994   7.350   5.224   7.408  0.0418  0.8655 -0.2215
   65MOL    H6712995   7.103   5.063   7.768 -0.6698 -2.5075 -0.1054
   65MOL    H6812996   7.057   4.981   7.604 -0.2679 -0.2069 -0.4229
   65MOL    H6912997   7.174   5.091   7.396  2.4002 -0.7584 -0.6909
   65MOL    H7012998   7.413   5.153   7.355 -0.9330 -0.2468  0.1086
   65MOL    H7112999   7.395   5.258   7.502  0.7760 -0.2730 -0.1539
   65MOL    C7213000   7.307   5.335   7.315 -0.2396 -0.4971  0.1867
   65MOL    C7313001   7.415   5.428   7.288  0.6299  0.4356  0.1985
   65MOL   Cl7413002   7.435   5.432   7.115  0.1367 -0.4214 -0.1123
   65MOL    C7513003   7.487   5.499   7.375 -0.8852 -0.1553 -0.3573
   65MOL    C7613004   7.598   5.603   7.339  0.1906  0.6888 -0.6439
   65MOL    H7713005   7.229   5.399   7.355 -1.3027 -1.1360 -0.8315
   65MOL    H7813006   7.267   5.289   7.224  0.3972  1.6771 -1.2339
   65MOL    H7913007   7.466   5.488   7.480 -0.9013  1.2207 -0.2096
   65MOL    H8013008   7.602   5.675   7.420  0.3892 -0.7258  0.6202
   65MOL    H8113009   7.570   5.659   7.249 -2.7576  1.2209  0.5569
   65MOL    C8213010   7.737   5.545   7.323 -0.8714  0.0019 -0.3518
   65MOL    C8313011   7.855   5.645   7.346 -0.0807 -0.3833 -0.2708
   65MOL   Cl8413012   7.862   5.745   7.208  0.1147  0.0996  0.3666
   65MOL    C8513013   7.940   5.662   7.451 -0.0975  0.1412  0.3333
   65MOL    C8613014   8.031   5.783   7.468  0.3516  1.0233 -0.1963
   65MOL    H8713015   7.748   5.527   7.217 -0.7326 -0.6532 -0.2254
   65MOL    H8813016   7.755   5.456   7.383 -0.2215  1.0295  1.0101
   65MOL    H8913017   7.945   5.594   7.535 -0.2373  1.1147  1.1432
   65MOL    H9013018   8.122   5.745   7.515 -0.0711 -0.8585 -0.8358
   65MOL    H9113019   8.058   5.828   7.372  2.0339  1.3644  0.4240
   65MOL    C9213020   7.968   5.881   7.565  0.0450 -0.0345  0.2422
   65MOL    C9313021   8.061   5.999   7.578  0.3927  0.4525 -0.4438
   65MOL   Cl9413022   8.180   5.969   7.689 -0.0634  0.4258  0.2865
   65MOL    C9513023   8.065   6.111   7.504  0.2474  0.6182 -0.4604
   65MOL    C9613024   7.964   6.153   7.401  0.3868 -0.1496  0.5422
   65MOL    H9713025   7.950   5.826   7.657 -0.8042 -0.1828 -0.0082
   65MOL    H9813026   7.869   5.919   7.541  0.3814  0.1646 -0.8505
   65MOL    H9913027   8.151   6.174   7.522 -0.8008  1.8049  0.4944
   65MOL   H10013028   7.865   6.114   7.423 -0.8707 -0.4241 -4.8524
   65MOL   H10113029   7.939   6.258   7.417 -1.0896 -0.1182 -1.6719
   65MOL   C10213030   8.009   6.131   7.264  0.4593 -0.7019  0.1046
   65MOL   C10313031   7.906   6.197   7.171  0.3466 -0.2804  0.3111
   65MOL  Cl10413032   7.936   6.368   7.174 -0.0069  0.1834  0.0510
   65MOL   C10513033   7.809   6.141   7.096 -0.5698  0.5084  0.2091
   65MOL   C10613034   7.701   6.218   7.007 -0.0223  0.0520  0.5680
   65MOL   H10713035   8.104   6.181   7.246 -0.6228  0.8360 -1.5464
   65MOL   H10813036   8.005   6.025   7.242 -1.5487 -0.4436 -0.8784
   65MOL   H10913037   7.786   6.036   7.104 -0.9549  0.6416  0.9527
   65MOL   H11013038   7.710   6.323   7.037 -2.1849 -0.2874  2.5638
   65MOL   H11113039   7.735   6.216   6.904  1.5700 -0.3843  1.0762
   65MOL   C11213040   7.559   6.157   7.001  0.2539 -0.3756 -0.5079
   65MOL   C11313041   7.482   6.157   7.132  0.0177  0.0508  0.2277
   65MOL  Cl11413042   7.530   6.014   7.226 -0.2428  0.0383 -0.2827
   65MOL   C11513043   7.407   6.250   7.192  0.1077 -0.9848 -0.4083
   65MOL   C11613044   7.365   6.384   7.142 -0.0959  0.1910  0.4110
   65MOL   H11713045   7.497   6.218   6.936  0.0667  1.5398  1.3984
   65MOL   H11813046   7.564   6.058   6.955  3.3874  0.0707 -1.2469
   65MOL   H11913047   7.380   6.223   7.293 -2.0244 -1.3044 -1.0331
   65MOL   H12013048   7.415   6.390   7.045  2.7200 -0.4637  1.7601
   65MOL   H12113049   7.420   6.460   7.199 -0.4813 -0.2638  1.3897
   65MOL   C12213050   7.216   6.406   7.125 -0.0533 -0.5508 -0.3307
   65MOL   C12313051   7.134   6.380   7.252  0.1469 -0.0898  0.1839
   65MOL  Cl12413052   7.072   6.218   7.252  0.1409  0.1288 -0.4093
   65MOL   C12513053   7.095   6.465   7.350  0.0084  0.3612 -0.5817
   65MOL   C12613054   7.126   6.610   7.373  0.3958 -0.0271  0.2741
   65MOL   H12713055   7.185   6.502   7.084  1.2798 -0.8058 -1.9641
   65MOL   H12813056   7.184   6.335   7.049 -0.0914  1.1158 -1.9105
   65MOL   H12913057   7.033   6.413   7.421 -0.2945 -1.0586 -1.8604
   65MOL   H13013058   7.184   6.639   7.285 -1.7757 -1.3805 -1.6426
   65MOL   H13113059   7.037   6.670   7.357  1.7407  1.5341 -1.7183
   65MOL   C13213060   7.190   6.640   7.510  0.3684  0.5997  0.1319
   65MOL   C13313061   7.191   6.789   7.518 -0.3201  0.2836  0.3109
   65MOL  Cl13413062   7.351   6.838   7.478  0.4163 -0.5177  0.4262
   65MOL   C13513063   7.099   6.863   7.574  0.0213 -0.3151 -0.0312
   65MOL   C13613064   6.968   6.815   7.629 -0.6467 -0.5365  0.1634
   65MOL   H13713065   7.124   6.611   7.592  0.9716  0.0676  0.4308
   65MOL   H13813066   7.289   6.597   7.524 -0.1033 -0.1466  1.2037
   65MOL   H13913067   7.114   6.970   7.584  0.8289 -0.1368 -2.8032
   65MOL   H14013068   6.921   6.752   7.553 -1.0189  1.0837 -0.9620
   65MOL   H14113069   6.999   6.749   7.710 -1.5936 -1.3728 -0.1322
   65MOL   C14213070   6.869   6.927   7.656  0.0378  0.5385 -0.5710
   65MOL   C14313071   6.734   6.883   7.696 -0.0992  0.2433  0.7044
   65MOL  Cl14413072   6.604   6.992   7.644  0.0017 -0.3435  0.1048
   65MOL   C14513073   6.707   6.775   7.771 -0.1963  0.6372 -0.0628
   65MOL   C14613074   6.568   6.729   7.826 -0.0384 -0.8369 -0.2860
   65MOL   H14713075   6.857   6.978   7.561 -1.5136  0.0239 -0.6565
   65MOL   H14813076   6.913   7.001   7.724 -0.2679 -1.9245  2.4417
   65MOL   H14913077   6.790   6.715   7.807  1.5248  2.3001 -1.1652
   65MOL   H15013078   6.478   6.771   7.781  0.3389  0.8396  0.4688
   65MOL   H15113079   6.555   6.621   7.820 -1.9655 -0.8283  2.4513
   65MOL   C15213080   6.561   6.746   7.978  0.7142 -0.3719  1.0417
   65MOL   C15313081   6.433   6.719   8.054  0.6752 -0.2480  0.0140
   65MOL  Cl15413082   6.424   6.802   8.211  0.0841  0.0001  0.2232
   65MOL   C15513083   6.326   6.665   7.997 -0.8743 -0.1867  0.3338
   65MOL   C15613084   6.193   6.643   8.062 -0.3362 -0.0884  1.0266
   65MOL   H15713085   6.637   6.686   8.027  0.9539 -0.1414  0.9556
   65MOL   H15813086   6.589   6.850   7.996  2.6358 -0.2094 -2.5531
   65MOL   H15913087   6.328   6.625   7.896 -2.9568  0.0194  0.1977
   65MOL   H16013088   6.211   6.652   8.169  0.7848 -0.6307  0.8988
   65MOL   H16113089   6.170   6.537   8.052 -1.6228  0.0926  2.0031
   65MOL   C16213090   6.074   6.736   8.015  0.1613 -0.4711  0.1196
   65MOL   C16313091   6.045   6.762   7.864 -0.7272  0.3821 -0.2539
   65MOL  Cl16413092   6.086   6.619   7.770  0.4014  0.6384 -0.3195
   65MOL   C16513093   5.986   6.872   7.811  0.2213  0.2460  0.0187
   65MOL   C16613094   5.952   6.893   7.669  0.6854 -0.0630  0.1361
   65MOL   H16713095   5.983   6.706   8.066  0.5768 -2.1357 -0.0555
   65MOL   H16813096   6.104   6.831   8.057 -3.7122  0.3852  1.0975
   65MOL   H16913097   5.948   6.951   7.876  0.3974  0.1393  0.2526
   65MOL   H17013098   5.991   6.818   7.599 -0.9279  1.0550 -1.9980
   65MOL   H17113099   5.844   6.882   7.660  0.5062  1.8891 -0.3092
   65MOL   C17213100   6.010   7.032   7.621  0.1760  0.4180  0.0741
   65MOL   C17313101   5.961   7.080   7.488  0.6718 -0.1769  0.2373
   65MOL  Cl17413102   5.980   7.252   7.461 -0.1498 -0.2766 -0.0448
   65MOL   C17513103   5.893   7.003   7.400  0.4811 -0.7638  0.8151
   65MOL   C17613104   5.831   7.044   7.264  0.7365 -0.0959  0.7371
   65MOL   H17713105   6.118   7.017   7.622  0.2055  0.6288  0.4617
   65MOL   H17813106   5.993   7.112   7.693  0.3209  0.7326 -0.2484
   65MOL   H17913107   5.876   6.902   7.434 -0.3640 -0.4773  1.2678
   65MOL   H18013108   5.868   7.142   7.233 -0.9504  0.7721  1.3910
   65MOL   H18113109   5.723   7.053   7.273  0.3908 -2.0306 -1.1498
   65MOL   C18213110   5.871   6.940   7.159  0.3773 -0.1041  0.0999
   65MOL   C18313111   5.845   6.956   7.012 -0.3777 -0.0748  0.4269
   65MOL  Cl18413112   5.758   6.821   6.949 -0.1423  0.0053  0.0886
   65MOL   C18513113   5.865   7.074   6.948 -0.2996  0.2376 -0.4002
   65MOL   C18613114   5.831   7.104   6.802 -0.2392 -0.2958 -0.6001
   65MOL   H18713115   5.975   6.909   7.165  0.9114  1.7593  0.7548
   65MOL   H18813116   5.825   6.845   7.187 -0.2202  0.4540  1.0346
   65MOL   H18913117   5.895   7.160   7.007 -0.6246  0.7324 -0.9496
   65MOL   H19013118   5.761   7.031   6.761 -1.4233 -0.9011  2.3886
   65MOL   H19113119   5.754   7.180   6.807 -0.0421 -0.1869  0.8810
   65MOL   C19213120   5.957   7.131   6.716  1.1661 -0.1164  0.0866
   65MOL   C19313121   5.915   7.179   6.583  0.2644 -0.1722  0.7228
   65MOL  Cl19413122   5.949   7.345   6.559 -0.1298 -0.1841  0.0772
   65MOL   C19513123   5.875   7.098   6.484 -0.1417  0.0583 -0.5644
   65MOL   C19613124   5.855   6.949   6.489  0.1311 -0.2558  0.3597
   65MOL   H19713125   6.017   7.040   6.705 -0.2896 -1.4810  2.9552
   65MOL   H19813126   6.018   7.210   6.761  1.8569 -0.1699 -0.7265
   65MOL   H19913127   5.866   7.146   6.388 -1.2553  0.0936 -0.4559
   65MOL   H20013128   5.934   6.903   6.429 -0.4157 -0.8701  0.1084
   65MOL   H20113129   5.753   6.931   6.456 -0.5097  0.8938  1.6542
   65MOL   H20213130   5.861   6.902   6.587  2.2682  1.4514  1.0986
   66MOL     C113131   3.205   7.224   2.271  0.6014 -0.0985  0.2470
   66MOL     C213132   3.190   7.278   2.410 -0.1058  0.0168  0.0742
   66MOL    Cl313133   3.145   7.446   2.394  0.3086  0.6514  0.0568
   66MOL     C413134   3.208   7.227   2.534  0.4245 -0.1133  0.2553
   66MOL     C513135   3.255   7.084   2.560 -0.5616  0.3809 -0.2165
   66MOL     H613136   3.242   7.284   2.188 -0.1362 -2.6506 -2.0010
   66MOL     H713137   3.112   7.180   2.234  0.2422  1.6865 -1.0308
   66MOL     H813138   3.188   7.295   2.615  2.5371  0.3064  0.4477
   66MOL     H913139   3.264   7.024   2.470 -0.4577 -1.4018  0.9671
   66MOL    H1013140   3.355   7.109   2.597 -0.4622 -0.2462 -0.0567
   66MOL    H1113141   3.266   7.135   2.253  1.8664  0.9951 -1.0103
   66MOL    C1213142   3.172   7.000   2.659 -0.0918  0.0117 -0.1164
   66MOL    C1313143   3.251   6.886   2.729 -0.1982  0.1321 -0.2855
   66MOL   Cl1413144   3.356   6.793   2.626 -0.1949 -0.1642  0.2102
   66MOL    C1513145   3.231   6.847   2.853 -0.2010 -0.4793  0.4216
   66MOL    C1613146   3.135   6.895   2.956  0.1315 -0.2885 -0.3296
   66MOL    H1713147   3.126   7.059   2.738 -0.7420 -1.8071  0.8934
   66MOL    H1813148   3.098   6.953   2.594 -0.2312  1.3703 -0.9494
   66MOL    H1913149   3.299   6.776   2.897 -0.6499 -1.1999 -0.0389
   66MOL    H2013150   3.066   6.970   2.918 -0.4153 -0.6078  0.0334
   66MOL    H2113151   3.081   6.805   2.986 -1.9945  1.2922  0.7269
   66MOL    C2213152   3.207   6.962   3.078  0.2828  0.1895  0.4114
   66MOL    C2313153   3.116   7.033   3.180  0.2993 -0.3972  0.1813
   66MOL   Cl2413154   2.949   7.000   3.151 -0.2210 -0.5408 -0.2596
   66MOL    C2513155   3.159   7.137   3.259 -0.1006  0.1976  0.0627
   66MOL    C2613156   3.069   7.229   3.343  0.7135 -0.1939 -0.5682
   66MOL    H2713157   3.266   6.889   3.132  2.0766  1.5418  0.3277
   66MOL    H2813158   3.284   7.029   3.039  1.3570 -0.7611  0.8882
   66MOL    H2913159   3.263   7.166   3.262 -0.1289  0.4533 -1.1821
   66MOL    H3013160   2.966   7.231   3.306  0.2147 -2.2252  0.5861
   66MOL    H3113161   3.058   7.186   3.443 -0.8551 -0.3523 -0.7919
   66MOL    C3213162   3.124   7.373   3.353  0.4393 -0.4196 -0.0751
   66MOL    C3313163   3.047   7.460   3.447 -0.1809 -0.2879  0.5645
   66MOL   Cl3413164   3.049   7.620   3.385  0.4107  0.3344 -0.0095
   66MOL    C3513165   2.989   7.422   3.568 -1.0687  0.3595 -0.0996
   66MOL    C3613166   2.918   7.515   3.659 -0.3478  0.8300  0.1227
   66MOL    H3713167   3.228   7.372   3.386  0.6532 -0.4893 -0.7488
   66MOL    H3813168   3.130   7.414   3.252  2.8191  1.4086  0.7798
   66MOL    H3913169   2.993   7.318   3.599 -3.4892 -0.0517 -1.0388
   66MOL    H4013170   2.867   7.595   3.606  1.3514  0.9222 -1.4226
   66MOL    H4113171   2.839   7.457   3.707 -0.5037  2.3092  1.7220
   66MOL    C4213172   3.015   7.575   3.761 -0.1133  0.1691 -0.3087
   66MOL    C4313173   2.947   7.673   3.853  1.0807 -0.4891  0.3199
   66MOL   Cl4413174   2.924   7.616   4.017  0.0190 -0.0118  0.6804
   66MOL    C4513175   2.940   7.803   3.837  0.4082  0.3715 -0.0952
   66MOL    C4613176   2.948   7.889   3.707  0.1715 -0.0590  0.5610
   66MOL    H4713177   3.039   7.492   3.826  0.0316  0.4508 -0.0025
   66MOL    H4813178   3.098   7.632   3.719  0.7658  0.6361  1.9842
   66MOL    H4913179   2.917   7.861   3.925 -1.6466 -1.9386  0.9451
   66MOL    H5013180   2.950   7.822   3.621 -1.7373 -1.2715  1.4191
   66MOL    H5113181   2.847   7.929   3.701  0.5951  0.6989 -1.9590
   66MOL    C5213182   3.056   8.006   3.718 -0.0935  0.4088 -0.3242
   66MOL    C5313183   3.045   8.096   3.594  0.2043  0.4766 -0.5460
   66MOL   Cl5413184   2.939   8.227   3.610  0.2720  0.4916  0.0847
   66MOL    C5513185   3.113   8.069   3.488  0.3752 -0.6163  0.4623
   66MOL    C5613186   3.100   8.144   3.351  0.1249 -0.4897  0.0139
   66MOL    H5713187   3.037   8.071   3.804 -2.4852  0.9374 -1.2006
   66MOL    H5813188   3.146   7.945   3.716 -1.2339 -1.2870 -1.9940
   66MOL    H5913189   3.179   7.983   3.479  2.9384  1.2073  1.4261
   66MOL    H6013190   3.072   8.074   3.273 -0.6578 -1.0608  0.7924
   66MOL    H6113191   3.020   8.216   3.368  2.7789  1.8327  3.2265
   66MOL    C6213192   3.234   8.215   3.320 -0.8411 -0.6745  0.1708
   66MOL    C6313193   3.257   8.262   3.174  0.6103 -0.3104  0.0442
   66MOL   Cl6413194   3.411   8.225   3.120  0.2077 -0.1588  0.2034
   66MOL    C6513195   3.163   8.329   3.105 -0.1020  0.0107 -0.2940
   66MOL    C6613196   3.187   8.389   2.969 -0.3227 -0.3462 -0.2319
   66MOL    H6713197   3.242   8.296   3.392  0.4660 -1.3133  0.7611
   66MOL    H6813198   3.318   8.147   3.339  0.4542  0.2159 -2.1100
   66MOL    H6913199   3.077   8.348   3.167  0.6819 -2.0932  1.4999
   66MOL    H7013200   3.286   8.354   2.938  0.5296  1.7584  0.0626
   66MOL    H7113201   3.195   0.076   2.977  0.3310 -0.4038 -0.0695
   66MOL    C7213202   3.071   8.352   2.869 -0.8460 -0.1357 -0.2709
   66MOL    C7313203   3.080   0.017   2.742  0.1985  0.9785 -0.5371
   66MOL   Cl7413204   2.975   8.361   2.622 -0.1735 -0.1389  0.0473
   66MOL    C7513205   3.164   0.114   2.716  0.2971 -0.1086  0.4697
   66MOL    C7613206   3.195   0.193   2.587 -0.4532  0.1039 -0.1299
   66MOL    H7713207   2.973   8.356   2.917 -0.9914 -0.2346 -0.5592
   66MOL    H7813208   3.089   8.249   2.839  2.8843  0.5006 -0.5095
   66MOL    H7913209   3.223   0.146   2.801  0.1450  0.9475  0.1890
   66MOL    H8013210   3.185   0.300   2.599  0.9341  0.3560 -1.0140
   66MOL    H8113211   3.133   0.162   2.503  0.0200  0.0763 -0.4725
   66MOL    C8213212   3.338   0.166   2.546 -0.5471 -0.4830  0.2857
   66MOL    C8313213   3.383   0.276   2.452 -0.0510 -0.3978  0.1700
   66MOL   Cl8413214   3.291   0.270   2.307 -0.1173 -0.0097  0.3256
   66MOL    C8513215   3.471   0.372   2.488 -0.4515 -0.7180 -0.1197
   66MOL    C8613216   3.519   0.486   2.395  0.3567 -0.3864 -0.6100
   66MOL    H8713217   3.346   0.063   2.511 -0.3743 -0.2822 -0.2834
   66MOL    H8813218   3.404   0.162   2.632 -0.7497  1.4255  0.5480
   66MOL    H8913219   3.514   0.378   2.587 -0.5874  3.2414 -0.2410
   66MOL    H9013220   3.626   0.507   2.398  0.5022 -0.8849 -2.0927
   66MOL    H9113221   3.504   0.455   2.292  0.7668 -0.6952 -0.5780
   66MOL    C9213222   3.457   0.622   2.423 -0.0012  0.0714  0.8335
   66MOL    C9313223   3.302   0.617   2.434 -0.1372  0.4197 -0.2902
   66MOL   Cl9413224   3.235   0.659   2.285  0.0330 -0.0595 -0.2308
   66MOL    C9513225   3.228   0.584   2.541 -0.2344  0.0766  0.0580
   66MOL    C9613226   3.276   0.565   2.680 -0.5428  0.0836  0.5676
   66MOL    H9713227   3.494   0.688   2.345  2.3458 -2.0866  0.0613
   66MOL    H9813228   3.500   0.657   2.517 -0.1904 -0.2964  1.0618
   66MOL    H9913229   3.122   0.579   2.520  0.0315 -1.9111 -0.8931
   66MOL   H10013230   3.271   0.461   2.711 -0.5692  0.3263  1.4143
   66MOL   H10113231   3.382   0.587   2.698  0.0932  0.0383 -2.8332
   66MOL   C10213232   3.197   0.657   2.779  0.1541  0.4935  0.3970
   66MOL   C10313233   3.229   0.643   2.922 -0.5982  0.1585  0.2966
   66MOL  Cl10413234   3.214   0.476   2.976 -0.4049  0.2488  0.3481
   66MOL   C10513235   3.260   0.746   2.999 -0.4167 -0.1611  0.5872
   66MOL   C10613236   3.295   0.725   3.147 -0.1398 -0.0541 -0.8056
   66MOL   H10713237   3.208   0.760   2.747 -1.9474  0.2357 -1.2807
   66MOL   H10813238   3.089   0.645   2.782  0.3489 -1.2559  1.1196
   66MOL   H10913239   3.274   0.845   2.956  1.5201 -1.0946 -1.0194
   66MOL   H11013240   3.273   0.621   3.173  1.3413 -0.8231 -2.5614
   66MOL   H11113241   3.398   0.751   3.168 -0.4090 -1.3611  2.4597
   66MOL   C11213242   3.212   0.815   3.237  0.2050  0.7419  0.0605
   66MOL   C11313243   3.263   0.807   3.383 -0.6211 -0.2291 -0.1128
   66MOL  Cl11413244   3.152   0.715   3.486 -0.2980  0.2439  0.3594
   66MOL   C11513245   3.365   0.874   3.438 -0.6927  0.4443 -0.3760
   66MOL   C11613246   3.466   0.961   3.367 -0.1032  0.3685  0.0174
   66MOL   H11713247   3.222   0.920   3.209 -0.0975  0.9448  0.7005
   66MOL   H11813248   3.108   0.784   3.230 -0.1598  1.3936  2.2925
   66MOL   H11913249   3.379   0.864   3.545  0.1371 -0.2753 -0.5460
   66MOL   H12013250   3.464   0.953   3.258  0.9091 -0.3050  0.0454
   66MOL   H12113251   3.562   0.929   3.407  0.3551  2.4355  0.5788
   66MOL   C12213252   3.432   1.104   3.413 -0.3250 -0.0469 -0.8894
   66MOL   C12313253   3.483   1.219   3.334  0.4143 -0.0076 -0.6599
   66MOL  Cl12413254   3.373   1.262   3.200  0.0094 -0.2260 -0.1030
   66MOL   C12513255   3.606   1.282   3.338 -0.7678  1.3618  0.3214
   66MOL   C12613256   3.710   1.261   3.444  0.6085 -0.3146 -0.0659
   66MOL   H12713257   3.326   1.107   3.390 -0.5789 -2.7261 -0.2713
   66MOL   H12813258   3.440   1.123   3.520 -2.0420 -0.0304 -0.7532
   66MOL   H12913259   3.636   1.355   3.265  1.2851 -0.3530 -0.6172
   66MOL   H13013260   3.702   1.348   3.509  2.3567 -0.1414 -0.0574
   66MOL   H13113261   3.675   1.176   3.504  0.2050  0.0393  0.2087
   66MOL   C13213262   3.849   1.245   3.388  0.6323  0.2177 -0.4317
   66MOL   C13313263   3.870   1.136   3.292 -0.2775 -0.1035  0.2006
   66MOL  Cl13413264   3.871   0.985   3.376  0.2278 -0.0528  0.0766
   66MOL   C13513265   3.871   1.144   3.159 -0.3865  0.1823  0.4299
   66MOL   C13613266   3.848   1.268   3.073  0.1498 -0.2977  0.3727
   66MOL   H13713267   3.890   1.337   3.347  2.3139 -0.5965 -0.6286
   66MOL   H13813268   3.917   1.220   3.469 -0.3412 -0.8379  0.0741
   66MOL   H13913269   3.900   1.052   3.109 -0.0722 -0.2162  1.3345
   66MOL   H14013270   3.825   1.355   3.134 -0.2454 -0.7296  0.8442
   66MOL   H14113271   3.944   1.295   3.029  0.1792 -2.7626 -1.1858
   66MOL   C14213272   3.727   1.246   2.984  0.0764  0.6502 -0.4481
   66MOL   C14313273   3.723   1.117   2.903 -0.2317  1.1598 -0.5726
   66MOL  Cl14413274   3.874   1.104   2.809 -0.2085  0.0198 -0.0268
   66MOL   C14513275   3.628   1.029   2.904 -0.4010 -0.0665  0.2505
   66MOL   C14613276   3.623   0.898   2.826  0.0640 -0.4752 -0.0749
   66MOL   H14713277   3.740   1.330   2.916  1.9209 -0.1900 -1.1742
   66MOL   H14813278   3.631   1.253   3.035  0.2514  0.7564 -0.1344
   66MOL   H14913279   3.541   1.047   2.965 -0.6119  0.9349 -0.3420
   66MOL   H15013280   3.516   0.885   2.814  0.0735  0.1652 -0.8697
   66MOL   H15113281   3.673   0.895   2.730  0.9150  0.8542  0.3041
   66MOL   C15213282   3.681   0.787   2.921  0.6118 -0.0946 -0.1519
   66MOL   C15313283   3.649   0.650   2.864  0.0083 -0.7838 -0.1952
   66MOL  Cl15413284   3.733   0.617   2.716  0.2852 -0.2202 -0.1736
   66MOL   C15513285   3.568   0.564   2.926  0.1445 -0.2795 -0.0315
   66MOL   C15613286   3.559   0.419   2.884  0.4047  0.0839  0.4610
   66MOL   H15713287   3.787   0.807   2.940  0.3776 -0.2984  1.3784
   66MOL   H15813288   3.638   0.792   3.020  0.2159  0.8195 -0.3612
   66MOL   H15913289   3.514   0.589   3.016  0.7246 -0.2040  0.2947
   66MOL   H16013290   3.587   0.390   2.783  1.0388  0.9273  0.3918
   66MOL   H16113291   3.452   0.399   2.887  0.6554 -1.4437 -0.4551
   66MOL   C16213292   3.631   0.328   2.983 -0.1045  0.5132 -0.2497
   66MOL   C16313293   3.546   0.269   3.094  0.0733 -0.0589 -0.5973
   66MOL  Cl16413294   3.517   0.103   3.057  0.1987  0.2799 -0.4460
   66MOL   C16513295   3.488   0.338   3.196  0.3148  0.0153  0.2773
   66MOL   C16613296   3.393   0.282   3.303 -0.1168 -0.5580 -0.2591
   66MOL   H16713297   3.663   0.238   2.931  0.6953  0.8341 -0.3355
   66MOL   H16813298   3.724   0.371   3.021 -0.8975  1.2264  0.9002
   66MOL   H16913299   3.510   0.443   3.198  2.6537 -0.4599  1.4912
   66MOL   H17013300   3.384   0.174   3.313  0.6462 -0.8192 -2.2049
   66MOL   H17113301   3.439   0.324   3.393  0.4747 -2.5827  0.4104
   66MOL   C17213302   3.260   0.350   3.301 -0.0925 -0.0917 -0.3809
   66MOL   C17313303   3.161   0.295   3.403  0.2777 -0.1090  0.1980
   66MOL  Cl17413304   3.089   0.142   3.370  0.0196 -0.0505 -0.1225
   66MOL   C17513305   3.141   0.350   3.526 -0.2322 -0.1451 -0.6116
   66MOL   C17613306   3.061   0.295   3.641  0.0995  0.5354  0.8484
   66MOL   H17713307   3.226   0.337   3.199  0.4992 -0.9670 -0.4755
   66MOL   H17813308   3.269   0.458   3.312 -2.2297  0.3095 -2.2639
   66MOL   H17913309   3.182   0.448   3.548  0.6066 -0.2095 -1.8425
   66MOL   H18013310   3.131   0.278   3.723 -0.8611 -1.2312  1.3066
   66MOL   H18113311   3.035   0.191   3.623 -2.0757  1.1146  0.4956
   66MOL   C18213312   2.943   0.380   3.680 -0.4420  0.3003  0.4157
   66MOL   C18313313   2.828   0.338   3.592  0.2263 -0.8928  0.4370
   66MOL  Cl18413314   2.761   0.182   3.629 -0.0815 -0.5469 -0.5607
   66MOL   C18513315   2.787   0.414   3.489 -0.0830 -0.2079 -0.0557
   66MOL   C18613316   2.668   0.390   3.401 -0.0140 -0.1662 -0.0204
   66MOL   H18713317   2.920   0.351   3.782 -0.8436 -1.4520 -0.1630
   66MOL   H18813318   2.969   0.486   3.677  0.5384  0.0462 -2.7118
   66MOL   H18913319   2.849   0.499   3.465  0.3982 -0.7057 -0.5800
   66MOL   H19013320   2.628   0.295   3.439  0.9836 -0.4492  0.3423
   66MOL   H19113321   2.596   0.465   3.433  2.8388  2.2302  0.9352
   66MOL   C19213322   2.709   0.384   3.252 -0.0822 -0.6678  0.3173
   66MOL   C19313323   2.733   0.522   3.191 -0.0160  0.5625 -0.3773
   66MOL  Cl19413324   2.899   0.563   3.204 -0.0501  0.3322 -0.3211
   66MOL   C19513325   2.634   0.595   3.136  0.6661 -0.0488  0.2245
   66MOL   C19613326   2.494   0.555   3.130 -0.0453  0.3264 -0.4279
   66MOL   H19713327   2.636   0.335   3.188  1.8776 -0.6340 -2.0104
   66MOL   H19813328   2.798   0.323   3.243 -1.2302 -2.3672  0.2580
   66MOL   H19913329   2.656   0.692   3.093  2.1424  0.3374  1.7754
   66MOL   H20013330   2.463   0.495   3.045 -1.3284  0.8970 -0.3756
   66MOL   H20113331   2.441   0.649   3.118  1.2944  1.2496  0.6709
   66MOL   H20213332   2.463   0.501   3.219 -2.4674  2.2612 -0.0493
   67MOL     C113333   3.273   4.814   3.951  0.2812 -0.2900 -0.4873
   67MOL     C213334   3.356   4.913   3.884 -0.1537 -0.5469 -0.5671
   67MOL    Cl313335   3.320   5.067   3.950 -0.1414 -0.1143 -0.0356
   67MOL     C413336   3.432   4.899   3.771 -0.4336  0.7558 -0.1592
   67MOL     C513337   3.482   4.771   3.710  0.7192  0.2582  0.1511
   67MOL     H613338   3.173   4.849   3.978 -0.0083 -1.3812 -0.0930
   67MOL     H713339   3.330   4.789   4.041 -0.9797 -0.2707  0.3312
   67MOL     H813340   3.478   4.986   3.727  0.2760 -0.3889 -1.7124
   67MOL     H913341   3.469   4.690   3.782  2.0695  1.0596  1.3229
   67MOL    H1013342   3.414   4.761   3.626  0.2490  2.2642  0.2716
   67MOL    H1113343   3.263   4.733   3.879  1.0866 -0.6521 -0.2049
   67MOL    C1213344   3.623   4.781   3.663  0.1607  0.4333  0.2682
   67MOL    C1313345   3.678   4.661   3.587  0.0007 -0.1636  0.5004
   67MOL   Cl1413346   3.678   4.679   3.414  0.1903 -0.0684 -0.5516
   67MOL    C1513347   3.725   4.547   3.643 -0.9211  0.5418 -0.1136
   67MOL    C1613348   3.747   4.506   3.790  0.1851 -0.1966 -0.6026
   67MOL    H1713349   3.628   4.865   3.594 -1.3425 -0.0451 -0.4360
   67MOL    H1813350   3.680   4.803   3.753  0.2099 -0.3381  0.4342
   67MOL    H1913351   3.761   4.472   3.573  0.8619  1.0077  0.2824
   67MOL    H2013352   3.854   4.489   3.805  0.4520 -0.1840 -2.3624
   67MOL    H2113353   3.717   4.597   3.842  0.4001  0.7787 -2.1323
   67MOL    C2213354   3.654   4.392   3.820 -0.1122  0.0435 -0.5093
   67MOL    C2313355   3.678   4.326   3.958 -0.1135  0.4906  0.2548
   67MOL   Cl2413356   3.531   4.320   4.043  0.0512  0.0188  0.4473
   67MOL    C2513357   3.799   4.305   4.019 -0.8121 -0.1494 -0.1743
   67MOL    C2613358   3.816   4.256   4.164 -0.5163  0.4668 -0.2912
   67MOL    H2713359   3.550   4.421   3.808 -0.0239  0.0589 -1.2334
   67MOL    H2813360   3.675   4.310   3.751 -0.6545 -0.2538 -0.3189
   67MOL    H2913361   3.895   4.326   3.974 -0.7236  1.2076  0.6122
   67MOL    H3013362   3.728   4.202   4.198 -1.0871  1.1002 -0.7506
   67MOL    H3113363   3.895   4.180   4.162 -0.8334  0.0941  1.0174
   67MOL    C3213364   3.871   4.359   4.263  0.3562  0.1823  0.6876
   67MOL    C3313365   3.883   4.312   4.407 -0.3488  0.6486  0.1717
   67MOL   Cl3413366   3.834   4.437   4.519 -0.4257  0.3295 -0.0496
   67MOL    C3513367   3.920   4.194   4.452  0.0775  0.6934  0.5569
   67MOL    C3613368   3.923   4.157   4.600 -0.4589 -0.5245 -0.1345
   67MOL    H3713369   3.968   4.385   4.220  1.4605 -1.8537  1.8420
   67MOL    H3813370   3.797   4.438   4.251  0.8644  0.2147 -2.5403
   67MOL    H3913371   3.953   4.115   4.386  2.2134  0.9527  1.2947
   67MOL    H4013372   3.912   4.241   4.669  3.2594  1.5856 -1.9422
   67MOL    H4113373   3.845   4.084   4.619 -0.4573  0.0264  2.1038
   67MOL    C4213374   4.057   4.093   4.637  0.3336  0.3188  0.5957
   67MOL    C4313375   4.081   3.952   4.578 -0.4030 -0.0725  0.1613
   67MOL   Cl4413376   4.174   3.970   4.434  0.1378 -0.2793  0.0943
   67MOL    C4513377   4.043   3.836   4.626  0.0197 -0.6685  0.8047
   67MOL    C4613378   3.951   3.807   4.745  0.4993 -0.2718  0.1373
   67MOL    H4713379   4.144   4.153   4.610  0.4782  1.0837  2.6707
   67MOL    H4813380   4.056   4.069   4.743  0.2963 -1.2099  0.2556
   67MOL    H4913381   4.080   3.747   4.578  0.9884 -0.3188  0.9058
   67MOL    H5013382   3.923   3.903   4.790 -1.0254 -0.4942 -0.3197
   67MOL    H5113383   3.860   3.771   4.697  1.9048 -0.4613 -2.4604
   67MOL    C5213384   4.008   3.712   4.848  0.1896 -0.0567  0.2627
   67MOL    C5313385   3.912   3.691   4.966  0.0696 -0.1476  0.1646
   67MOL   Cl5413386   3.919   3.810   5.092 -0.2238 -0.3430 -0.2375
   67MOL    C5513387   3.813   3.598   4.967  0.0818  0.6939 -0.0168
   67MOL    C5613388   3.700   3.582   5.064 -0.8676  0.2671 -0.0465
   67MOL    H5713389   4.026   3.615   4.800  0.6495 -0.0355  0.3940
   67MOL    H5813390   4.098   3.756   4.891 -0.0820 -2.1786  3.1903
   67MOL    H5913391   3.809   3.533   4.881 -0.1415  0.9499 -0.2039
   67MOL    H6013392   3.672   3.671   5.120  1.5256 -0.1110  1.7928
   67MOL    H6113393   3.616   3.564   4.996 -1.0544 -0.5239  0.3868
   67MOL    C6213394   3.709   3.449   5.138  0.3630  0.4379  1.0296
   67MOL    C6313395   3.596   3.439   5.240  0.6558  0.2854 -0.6902
   67MOL   Cl6413396   3.472   3.559   5.221 -0.1485  0.3652  0.2285
   67MOL    C6513397   3.599   3.351   5.342  0.0052 -0.0648 -0.1029
   67MOL    C6613398   3.494   3.342   5.452 -0.5653  0.3943 -0.4948
   67MOL    H6713399   3.687   3.373   5.063 -0.3258  2.5801 -1.0300
   67MOL    H6813400   3.812   3.436   5.170 -0.6493 -1.2190  3.7213
   67MOL    H6913401   3.681   3.282   5.351 -1.4966 -1.6567  1.6695
   67MOL    H7013402   3.462   3.238   5.457 -1.0792  0.6417  1.8215
   67MOL    H7113403   3.410   3.400   5.416 -0.2458  1.5484  0.5651
   67MOL    C7213404   3.546   3.407   5.576 -0.2109  0.7056 -0.2283
   67MOL    C7313405   3.446   3.395   5.699 -1.1318 -0.1255  0.5539
   67MOL   Cl7413406   3.494   3.274   5.803 -0.2570 -0.1909 -0.0434
   67MOL    C7513407   3.342   3.471   5.735 -1.1749  0.1194 -0.2389
   67MOL    C7613408   3.266   3.458   5.862  0.9506  0.8742 -0.1242
   67MOL    H7713409   3.560   3.513   5.555 -2.1158  0.9167 -0.4885
   67MOL    H7813410   3.639   3.360   5.608 -0.1487  0.5952 -0.5669
   67MOL    H7913411   3.318   3.552   5.668 -2.5013 -0.6082 -0.6598
   67MOL    H8013412   3.299   3.537   5.929  2.4297 -0.1532  0.3704
   67MOL    H8113413   3.284   3.364   5.915 -0.0402 -0.2545 -1.7397
   67MOL    C8213414   3.116   3.471   5.830 -0.2946 -0.1930 -0.0758
   67MOL    C8313415   3.016   3.427   5.937  0.7773  0.0655 -0.0955
   67MOL   Cl8413416   2.974   3.255   5.922 -0.4886 -0.2071 -0.5061
   67MOL    C8513417   2.958   3.503   6.032  0.0155  0.1777  0.2152
   67MOL    C8613418   2.849   3.461   6.131 -0.0197 -0.2637  0.8350
   67MOL    H8713419   3.096   3.406   5.745  1.5630 -0.4370 -0.3396
   67MOL    H8813420   3.098   3.575   5.801  0.7191 -0.9788 -3.7423
   67MOL    H8913421   2.988   3.605   6.052  2.2354 -0.6469  1.2123
   67MOL    H9013422   2.853   3.354   6.156 -3.5763 -1.3880 -2.8721
   67MOL    H9113423   2.870   3.506   6.228  0.7500  0.1249  0.4876
   67MOL    C9213424   2.708   3.503   6.083 -0.2229  0.6110 -0.5650
   67MOL    C9313425   2.588   3.450   6.166  0.1151 -0.5452 -0.0630
   67MOL   Cl9413426   2.523   3.570   6.274  0.2598 -0.0783  0.0354
   67MOL    C9513427   2.534   3.325   6.153  0.3546 -1.0907  0.1684
   67MOL    C9613428   2.581   3.209   6.066  0.2182 -0.4663  0.3049
   67MOL    H9713429   2.687   3.476   5.980 -3.1536  1.9211 -0.3796
   67MOL    H9813430   2.705   3.612   6.077  0.8914  0.5774 -1.7733
   67MOL    H9913431   2.446   3.301   6.212  0.5845  0.2244  1.0988
   67MOL   H10013432   2.499   3.198   5.995 -1.1377  2.2512  1.3806
   67MOL   H10113433   2.676   3.227   6.016 -1.1094 -0.0848 -2.1777
   67MOL   C10213434   2.611   3.091   6.147 -0.2841 -0.7089 -0.4398
   67MOL   C10313435   2.654   2.969   6.063  0.0391  0.4243  0.0500
   67MOL  Cl10413436   2.820   2.975   6.029 -0.2173  0.0540  0.1542
   67MOL   C10513437   2.575   2.883   6.000 -0.6847 -0.1738 -0.1797
   67MOL   C10613438   2.627   2.777   5.906  0.1295 -0.3575 -0.0846
   67MOL   H10713439   2.686   3.108   6.223  0.4447 -0.1359 -1.2731
   67MOL   H10813440   2.517   3.073   6.200  0.7351 -1.3966  1.1611
   67MOL   H10913441   2.468   2.888   6.012 -0.7858  1.0508 -1.4094
   67MOL   H11013442   2.736   2.767   5.911  0.1586 -0.3792 -0.6538
   67MOL   H11113443   2.598   2.685   5.955 -1.3981 -0.3567 -0.9694
   67MOL   C11213444   2.579   2.779   5.753 -0.3164  0.1641 -0.4222
   67MOL   C11313445   2.599   2.906   5.677  0.6382  0.1066  0.1154
   67MOL  Cl11413446   2.446   2.987   5.659  0.0387 -0.2923 -0.7707
   67MOL   C11513447   2.713   2.952   5.624  0.3366 -0.3359  0.0420
   67MOL   C11613448   2.855   2.904   5.637  0.0999  0.3352 -0.0698
   67MOL   H11713449   2.639   2.704   5.702  0.4504  0.6954 -0.3118
   67MOL   H11813450   2.475   2.746   5.761 -0.3593  0.3690 -0.0938
   67MOL   H11913451   2.702   3.042   5.565 -0.5136 -2.0000 -2.4324
   67MOL   H12013452   2.862   2.830   5.717 -2.0265 -0.1498 -0.3074
   67MOL   H12113453   2.916   2.983   5.682 -0.5710 -0.0970  1.6582
   67MOL   C12213454   2.904   2.851   5.505  0.0162 -0.9601  0.1876
   67MOL   C12313455   3.041   2.792   5.513 -0.1813  0.4654 -0.2045
   67MOL  Cl12413456   3.165   2.905   5.480  0.0455 -0.1902 -0.2486
   67MOL   C12513457   3.058   2.658   5.519 -1.0004 -0.0885 -0.5966
   67MOL   C12613458   2.952   2.548   5.528 -0.7067  0.2471  0.2540
   67MOL   H12713459   2.835   2.775   5.469  0.2815 -2.3393  2.5017
   67MOL   H12813460   2.904   2.924   5.424  0.6502 -0.2141  0.8401
   67MOL   H12913461   3.162   2.629   5.523 -0.7459  0.8595 -0.2150
   67MOL   H13013462   2.859   2.596   5.560 -0.9674  1.8499 -2.7377
   67MOL   H13113463   2.942   2.503   5.429  0.3027  1.1463 -0.2622
   67MOL   C13213464   2.981   2.431   5.633 -0.1148  0.3178  0.0972
   67MOL   C13313465   2.863   2.345   5.634  0.1658 -0.0338  0.0983
   67MOL  Cl13413466   2.752   2.415   5.748 -0.4710 -0.2567 -0.0154
   67MOL   C13513467   2.839   2.236   5.555 -0.4956 -0.1953 -0.3479
   67MOL   C13613468   2.921   2.180   5.442 -0.2019  0.0208 -0.7442
   67MOL   H13713469   3.076   2.380   5.622 -0.7702 -0.8298 -0.3294
   67MOL   H13813470   2.987   2.466   5.736  1.9152  2.6171 -0.7596
   67MOL   H13913471   2.750   2.178   5.573  0.7361 -1.7562  0.9306
   67MOL   H14013472   3.017   2.232   5.441  0.5075 -1.2102  0.9059
   67MOL   H14113473   2.944   2.077   5.470  0.5608  0.6789  1.0981
   67MOL   C14213474   2.859   2.168   5.303  0.2218 -0.1602 -0.4356
   67MOL   C14313475   2.910   2.062   5.210 -0.6681 -0.6990 -0.2775
   67MOL  Cl14413476   2.872   2.106   5.046 -0.0381 -0.3017  0.3625
   67MOL   C14513477   2.984   1.954   5.247 -0.0131 -0.0611  0.0175
   67MOL   C14613478   3.047   1.852   5.152  0.0470 -0.1347  0.4610
   67MOL   H14713479   2.862   2.260   5.246  1.0795  0.4852  0.6290
   67MOL   H14813480   2.752   2.152   5.315  0.7304 -1.3583  3.1374
   67MOL   H14913481   3.011   1.937   5.350  1.3731 -0.4977 -0.4041
   67MOL   H15013482   3.019   1.879   5.050 -0.5446  0.4652  0.7735
   67MOL   H15113483   3.155   1.863   5.160  0.1379 -0.4524 -0.3308
   67MOL   C15213484   2.984   1.709   5.177  0.2639 -0.3871 -0.6842
   67MOL   C15313485   2.997   1.603   5.066  0.3526  0.2782 -0.7778
   67MOL  Cl15413486   2.880   1.472   5.097 -0.2160 -0.2322  0.1911
   67MOL   C15513487   3.093   1.594   4.973 -0.3017 -0.1343  0.5500
   67MOL   C15613488   3.116   1.483   4.870 -0.1613  0.0376  0.2004
   67MOL   H15713489   3.027   1.666   5.267 -1.1932  1.6110  1.0090
   67MOL   H15813490   2.877   1.724   5.190  0.5073  1.9185 -1.1173
   67MOL   H15913491   3.152   1.685   4.970 -0.9395  0.2921  0.7519
   67MOL   H16013492   3.056   1.403   4.912  0.7636 -0.8619 -0.1909
   67MOL   H16113493   3.218   1.447   4.865 -0.7262 -1.6418  0.6396
   67MOL   C16213494   3.056   1.529   4.733  0.8547  0.5542  0.0235
   67MOL   C16313495   3.076   1.426   4.632 -0.3479  0.1264 -0.1701
   67MOL  Cl16413496   3.139   1.489   4.491 -0.1152  0.2099  0.1151
   67MOL   C16513497   3.036   1.301   4.651 -0.2435 -0.3182  0.4042
   67MOL   C16613498   3.044   1.183   4.557 -0.4687  0.2856  0.0035
   67MOL   H16713499   2.947   1.526   4.736  0.8668 -4.0305 -0.3456
   67MOL   H16813500   3.094   1.624   4.695  0.4537  0.4374 -0.6719
   67MOL   H16913501   3.002   1.269   4.748 -0.2587 -1.5000  0.0247
   67MOL   H17013502   2.945   1.176   4.511  0.2444  0.5738 -1.5831
   67MOL   H17113503   3.111   1.206   4.475 -2.5751  1.0539 -1.5496
   67MOL   C17213504   3.076   1.050   4.629  0.7817  1.2662 -0.1334
   67MOL   C17313505   2.963   1.013   4.723  0.2038  0.4145  0.3815
   67MOL  Cl17413506   2.830   0.952   4.636 -0.4536  0.1222  0.1717
   67MOL   C17513507   2.978   1.006   4.854 -0.6635 -0.5340 -0.1011
   67MOL   C17613508   2.878   0.971   4.955  0.4389 -0.0102 -0.7347
   67MOL   H17713509   3.165   1.058   4.691  0.0080  2.9101  0.7809
   67MOL   H17813510   3.088   0.967   4.558  3.2182  1.4114  0.0392
   67MOL   H17913511   3.078   1.029   4.889 -1.0353 -0.3425  0.8461
   67MOL   H18013512   2.925   0.900   5.024  0.4940  0.0092 -0.7521
   67MOL   H18113513   2.799   0.913   4.908  1.4325 -1.4739 -0.6427
   67MOL   C18213514   2.822   1.093   5.037  0.4044  0.3683 -0.3338
   67MOL   C18313515   2.710   1.058   5.138 -0.7921  0.1062  0.2673
   67MOL  Cl18413516   2.620   1.200   5.179 -0.2127 -0.5794 -0.0585
   67MOL   C18513517   2.686   0.944   5.204 -0.1379 -0.1946 -0.7544
   67MOL   C18613518   2.580   0.922   5.313  0.9521  0.1649 -1.0364
   67MOL   H18713519   2.915   1.136   5.075 -0.1767  0.4911  0.9500
   67MOL   H18813520   2.799   1.172   4.965  0.5306  1.0037  0.3137
   67MOL   H18913521   2.756   0.869   5.172 -0.8218 -0.7388 -0.9747
   67MOL   H19013522   2.532   1.017   5.333 -0.4462 -0.5864 -0.7667
   67MOL   H19113523   2.502   0.857   5.272 -2.9482  2.7358  1.9634
   67MOL   C19213524   2.644   0.866   5.447  0.9089  0.4368 -0.4197
   67MOL   C19313525   2.541   0.866   5.558  0.6030 -0.1064 -0.6886
   67MOL  Cl19413526   2.471   0.708   5.579 -0.0763 -0.1671 -0.0543
   67MOL   C19513527   2.514   0.963   5.647  0.2807  0.4159  0.2119
   67MOL   C19613528   2.552   1.111   5.632 -0.1404  0.6347 -0.1951
   67MOL   H19713529   2.733   0.922   5.475  0.8472  0.2729  0.1152
   67MOL   H19813530   2.676   0.763   5.437  0.9388  0.6715 -2.8837
   67MOL   H19913531   2.452   0.934   5.730  1.8900 -1.4656  0.8020
   67MOL   H20013532   2.612   1.146   5.716  1.6757 -0.5443 -0.9784
   67MOL   H20113533   2.460   1.169   5.624 -0.9815 -0.6877 -0.3485
   67MOL   H20213534   2.617   1.127   5.546  1.7702 -1.5998  0.8001
   68MOL     C113535   1.207   2.099   6.746  0.7609  0.2828 -0.4264
   68MOL     C213536   1.163   2.236   6.706  0.7707 -0.0942 -0.2487
   68MOL    Cl313537   1.244   2.287   6.560 -0.0130  0.1498  0.0223
   68MOL     C413538   1.074   2.315   6.764  0.3973 -0.4503 -0.3186
   68MOL     C513539   0.996   2.279   6.893 -0.1362  0.7214 -0.2231
   68MOL     H613540   1.119   2.038   6.763  0.3375  1.1069  0.3392
   68MOL     H713541   1.250   2.110   6.846 -2.3387 -1.4868  1.1485
   68MOL     H813542   1.060   2.413   6.722 -3.8119 -0.6019  0.5214
   68MOL     H913543   0.889   2.293   6.875 -0.5752  0.1786  1.9174
   68MOL    H1013544   1.014   2.173   6.914  1.4424  1.3427  1.7200
   68MOL    H1113545   1.281   2.047   6.684  0.0577 -1.1695 -0.0773
   68MOL    C1213546   1.038   2.360   7.015  0.1317  0.7522  0.0841
   68MOL    C1313547   0.973   2.320   7.150  0.0738  0.1027 -0.6230
   68MOL   Cl1413548   0.816   2.258   7.122  0.2146 -0.2419 -0.2085
   68MOL    C1513549   1.028   2.325   7.274  0.0803 -1.1884  0.7090
   68MOL    C1613550   1.167   2.370   7.321 -0.2206 -0.2665  0.5014
   68MOL    H1713551   1.144   2.336   7.018  0.0922  0.2998 -1.6819
   68MOL    H1813552   1.018   2.464   6.989  0.4396  0.7605 -0.1189
   68MOL    H1913553   0.962   2.306   7.358 -0.9867  1.1749  0.4609
   68MOL    H2013554   1.233   2.380   7.235 -1.1902 -0.8452 -0.3252
   68MOL    H2113555   1.164   2.469   7.366 -0.0247 -0.1135  0.1780
   68MOL    C2213556   1.212   2.270   7.427 -0.6465 -0.0598  0.4994
   68MOL    C2313557   1.258   2.137   7.368 -0.0289 -0.1786 -0.2579
   68MOL   Cl2413558   1.128   2.021   7.363 -0.0405 -0.3593 -0.5366
   68MOL    C2513559   1.375   2.111   7.307  0.3667 -0.0542 -0.2206
   68MOL    C2613560   1.420   1.981   7.253  0.3788  0.4126  0.6435
   68MOL    H2713561   1.304   2.296   7.479 -0.1318 -3.3667  1.3433
   68MOL    H2813562   1.139   2.255   7.506 -0.4966 -0.2255  0.6069
   68MOL    H2913563   1.448   2.189   7.296  1.6846 -1.4296 -1.5409
   68MOL    H3013564   1.502   1.960   7.321  0.0925 -0.3083  0.7684
   68MOL    H3113565   1.346   1.901   7.263  1.2575 -0.2421  2.0742
   68MOL    C3213566   1.450   2.004   7.104  0.4052  0.6883 -0.2325
   68MOL    C3313567   1.514   1.879   7.041  0.0234 -0.4097  0.3516
   68MOL   Cl3413568   1.517   1.892   6.869  0.1195  0.2672  0.0820
   68MOL    C3513569   1.574   1.778   7.104 -0.5636 -0.1781  0.1559
   68MOL    C3613570   1.647   1.665   7.034  0.0459  0.7040 -0.2223
   68MOL    H3713571   1.357   2.025   7.052 -0.7781 -0.0456  1.5313
   68MOL    H3813572   1.513   2.088   7.077  1.6761  0.1687  1.0813
   68MOL    H3913573   1.576   1.777   7.212  0.9701 -1.1002  0.1321
   68MOL    H4013574   1.652   1.681   6.926  1.0730 -1.1477 -0.4658
   68MOL    H4113575   1.745   1.681   7.078 -1.1446 -0.1721  2.8858
   68MOL    C4213576   1.589   1.531   7.057 -0.0862  0.3321  0.1047
   68MOL    C4313577   1.666   1.431   6.979 -0.0386 -0.2391  0.2754
   68MOL   Cl4413578   1.786   1.348   7.071  0.2404 -0.2374 -0.1926
   68MOL    C4513579   1.655   1.401   6.849 -1.0050  0.1399  0.2488
   68MOL    C4613580   1.568   1.477   6.744  0.2882 -0.2232 -0.4464
   68MOL    H4713581   1.581   1.508   7.163 -1.1994  0.2772  0.0211
   68MOL    H4813582   1.486   1.518   7.023  0.1782 -0.2917 -0.4656
   68MOL    H4913583   1.722   1.321   6.820 -0.5766  0.5081  0.2222
   68MOL    H5013584   1.506   1.546   6.801 -0.5562 -1.7137  0.4555
   68MOL    H5113585   1.645   1.529   6.686 -0.5187  0.1889 -1.1557
   68MOL    C5213586   1.480   1.384   6.664 -0.2582  0.6931 -0.3030
   68MOL    C5313587   1.408   1.463   6.552  0.2482 -0.3174 -0.7696
   68MOL   Cl5413588   1.248   1.406   6.524  0.1127  0.3564  0.2489
   68MOL    C5513589   1.455   1.569   6.488  0.2071 -0.8864  0.6158
   68MOL    C5613590   1.378   1.644   6.378  0.3376  0.0070 -0.3501
   68MOL    H5713591   1.529   1.292   6.633 -0.5273 -0.1908  1.8375
   68MOL    H5813592   1.411   1.355   6.743  1.5928 -0.7489  0.8221
   68MOL    H5913593   1.560   1.593   6.503  0.1603  0.7773 -1.3809
   68MOL    H6013594   1.409   1.595   6.286 -1.8496  0.5821 -1.4046
   68MOL    H6113595   1.271   1.636   6.393  0.4283  0.3143  0.4938
   68MOL    C6213596   1.434   1.783   6.372 -0.5656 -1.0334 -0.4238
   68MOL    C6313597   1.342   1.875   6.289  0.1583 -0.0157  0.4693
   68MOL   Cl6413598   1.273   2.004   6.381  0.1983  0.3429 -0.0468
   68MOL    C6513599   1.329   1.874   6.155 -0.5756  0.4785 -0.3995
   68MOL    C6613600   1.234   1.969   6.077 -0.0584 -0.1183  0.3629
   68MOL    H6713601   1.454   1.824   6.471  0.3323 -2.0092 -0.1810
   68MOL    H6813602   1.536   1.786   6.332 -0.5840 -0.9471 -0.4634
   68MOL    H6913603   1.391   1.802   6.104  1.1615  1.4932  0.2607
   68MOL    H7013604   1.176   2.032   6.145  0.4834 -1.3471  1.9996
   68MOL    H7113605   1.157   1.915   6.023  0.0633 -1.0948  1.1595
   68MOL    C7213606   1.315   2.057   5.973 -0.0248 -0.4351 -0.2717
   68MOL    C7313607   1.236   2.180   5.937 -0.2687  0.5436  0.3582
   68MOL   Cl7413608   1.187   2.178   5.770  0.0948 -0.1554  0.3152
   68MOL    C7513609   1.215   2.283   6.023 -0.1616 -0.4763 -0.1443
   68MOL    C7613610   1.136   2.405   5.984 -0.5679 -0.0579 -0.2985
   68MOL    H7713611   1.334   2.005   5.879  0.7424  1.3871 -1.1527
   68MOL    H7813612   1.412   2.083   6.016 -0.4812  1.7391 -0.4635
   68MOL    H7913613   1.264   2.288   6.120 -2.7255  2.0293  1.0750
   68MOL    H8013614   1.081   2.385   5.892  2.8459 -1.3325 -2.1340
   68MOL    H8113615   1.202   2.487   5.957  1.6874 -1.9271 -0.5499
   68MOL    C8213616   1.035   2.449   6.103  0.4246 -0.1261  0.3369
   68MOL    C8313617   0.941   2.340   6.156  0.5095 -0.1936 -0.7930
   68MOL   Cl8413618   0.793   2.331   6.068 -0.1543 -0.3632 -0.1896
   68MOL    C8513619   0.959   2.272   6.269  0.0616 -0.1486  0.1149
   68MOL    C8613620   0.863   2.178   6.341 -0.1298  0.2670  0.2254
   68MOL    H8713621   0.975   2.529   6.059  1.5745 -0.0888 -1.2269
   68MOL    H8813622   1.082   2.502   6.185 -1.8275  1.3099  0.7189
   68MOL    H8913623   1.052   2.278   6.323 -0.4326  0.4043  0.9091
   68MOL    H9013624   0.776   2.159   6.278 -1.1865 -3.0494  2.5632
   68MOL    H9113625   0.894   2.075   6.360 -0.3722  0.2237  0.3879
   68MOL    C9213626   0.828   2.244   6.476 -0.3360  0.3068  0.2430
   68MOL    C9313627   0.713   2.180   6.548 -0.1871  0.0296 -0.0590
   68MOL   Cl9413628   0.564   2.264   6.537  0.0040  0.0240  0.1841
   68MOL    C9513629   0.722   2.061   6.612 -0.2299 -0.8162 -0.8654
   68MOL    C9613630   0.837   1.974   6.645 -0.0106  0.0256 -0.6742
   68MOL    H9713631   0.825   2.353   6.474  2.2993  0.4451  1.7091
   68MOL    H9813632   0.915   2.218   6.537 -0.4725  0.9264  0.7061
   68MOL    H9913633   0.632   2.028   6.662 -1.4323 -1.0107 -3.0832
   68MOL   H10013634   0.929   2.012   6.601  0.4772  3.0984  2.7572
   68MOL   H10113635   0.845   1.991   6.752 -0.0251 -2.5530 -0.2391
   68MOL   C10213636   0.809   1.834   6.606  0.8210 -0.3276 -0.4133
   68MOL   C10313637   0.932   1.762   6.649  0.2444 -0.8747  0.4520
   68MOL  Cl10413638   1.030   1.715   6.516  0.0180 -0.5196 -0.0082
   68MOL   C10513639   0.972   1.738   6.775 -0.5861  0.8839 -0.1420
   68MOL   C10613640   1.108   1.668   6.809 -0.0818  0.3430 -0.3209
   68MOL   H10713641   0.723   1.788   6.654  1.5744 -0.3718  0.9125
   68MOL   H10813642   0.786   1.846   6.500 -0.7709 -3.4574 -0.4836
   68MOL   H10913643   0.913   1.775   6.858 -1.1264 -2.0245  0.8640
   68MOL   H11013644   1.087   1.573   6.859 -2.2133  0.9054 -0.1076
   68MOL   H11113645   1.164   1.645   6.718 -0.8939  0.4150 -0.8426
   68MOL   C11213646   1.200   1.758   6.898  0.0060 -0.0873 -0.1263
   68MOL   C11313647   1.149   1.786   7.037  0.1528 -0.0097 -0.5426
   68MOL  Cl11413648   1.060   1.932   7.042  0.1290 -0.2779  0.2818
   68MOL   C11513649   1.165   1.713   7.147 -0.4625  0.2276 -0.6882
   68MOL   C11613650   1.232   1.576   7.139  0.6174  0.6307  0.3142
   68MOL   H11713651   1.296   1.708   6.913 -0.2786 -0.2737  1.1076
   68MOL   H11813652   1.214   1.848   6.838  2.2868  0.1970  0.7777
   68MOL   H11913653   1.125   1.745   7.242 -0.5721 -0.6166 -0.4388
   68MOL   H12013654   1.315   1.582   7.210 -0.3172 -0.5310  1.5431
   68MOL   H12113655   1.278   1.557   7.042 -0.5726  0.8363 -0.2955
   68MOL   C12213656   1.137   1.461   7.184  0.4811  0.0887 -0.6521
   68MOL   C12313657   1.100   1.467   7.336  0.4581  0.2281  0.7217
   68MOL  Cl12413658   1.206   1.370   7.433 -0.0322 -0.2075 -0.0515
   68MOL   C12513659   0.994   1.532   7.386  0.1845  0.4770  0.4965
   68MOL   C12613660   0.890   1.622   7.315  0.1198  0.5815 -0.1716
   68MOL   H12713661   1.044   1.457   7.127 -0.2521  1.4425  0.4453
   68MOL   H12813662   1.178   1.361   7.165 -1.8436 -1.0538  0.2145
   68MOL   H12913663   0.974   1.529   7.492 -1.5602  0.1644  0.1825
   68MOL   H13013664   0.893   1.720   7.360 -0.0776 -0.1316  1.4171
   68MOL   H13113665   0.923   1.626   7.211  0.4174 -0.4984 -0.1293
   68MOL   C13213666   0.748   1.567   7.333  0.2361 -0.6690  0.0363
   68MOL   C13313667   0.646   1.633   7.239 -0.8354 -0.7436  0.0351
   68MOL  Cl13413668   0.601   1.536   7.101 -0.1628  0.3741  0.1663
   68MOL   C13513669   0.592   1.755   7.259  0.0188  0.1461 -0.1829
   68MOL   C13613670   0.633   1.840   7.378  0.7168  0.1069  0.0093
   68MOL   H13713671   0.750   1.461   7.309 -0.0873 -0.6930  0.1176
   68MOL   H13813672   0.711   1.563   7.436  0.9647  1.7931  0.4354
   68MOL   H13913673   0.516   1.788   7.191  0.2558 -0.4268 -0.7349
   68MOL   H14013674   0.548   1.856   7.444  1.2194  0.7173  0.5142
   68MOL   H14113675   0.699   1.782   7.443 -0.6642 -0.9933  0.4338
   68MOL   C14213676   0.695   1.976   7.328  0.1034  0.3009  0.8978
   68MOL   C14313677   0.733   2.069   7.437 -0.0042 -0.1545  0.1835
   68MOL  Cl14413678   0.844   2.004   7.550 -0.0734  0.0312  0.4221
   68MOL   C14513679   0.702   2.197   7.442 -0.5507 -0.3039 -0.6829
   68MOL   C14613680   0.745   2.302   7.538 -0.0586 -0.0126  0.7316
   68MOL   H14713681   0.628   2.022   7.256 -0.1650 -0.7005  0.4957
   68MOL   H14813682   0.789   1.945   7.283 -1.4728  0.0992 -2.3946
   68MOL   H14913683   0.634   2.234   7.366 -0.0435  0.0343 -0.9693
   68MOL   H15013684   0.705   2.291   7.639 -2.5753  0.8765 -0.1371
   68MOL   H15113685   0.850   2.283   7.562  0.5330 -0.7790 -2.2185
   68MOL   C15213686   0.706   2.444   7.492 -0.3264 -0.0095  0.0099
   68MOL   C15313687   0.769   2.558   7.571 -0.2604 -0.2441  0.6343
   68MOL  Cl15413688   0.681   2.623   7.700  0.0406  0.3008  0.1869
   68MOL   C15513689   0.882   2.620   7.532 -0.2292  0.4852  0.2598
   68MOL   C15613690   0.946   2.744   7.589  0.1086 -0.0733  0.3863
   68MOL   H15713691   0.722   2.453   7.385  1.0928 -0.4085  0.1710
   68MOL   H15813692   0.597   2.445   7.489 -0.2970  1.3842 -0.8370
   68MOL   H15913693   0.919   2.575   7.441 -1.4154 -0.5513  0.2849
   68MOL   H16013694   0.921   2.755   7.695 -1.2682 -0.3267  0.0997
   68MOL   H16113695   0.917   2.839   7.546 -1.6167 -0.7681 -0.0468
   68MOL   C16213696   1.097   2.729   7.582  0.2388 -0.1662  0.1104
   68MOL   C16313697   1.150   2.609   7.661  0.2522  0.3595  0.3703
   68MOL  Cl16413698   1.297   2.540   7.592 -0.6096  0.1726 -0.0278
   68MOL   C16513699   1.092   2.546   7.764 -0.0400  0.1478 -0.1867
   68MOL   C16613700   1.134   2.409   7.833 -0.5062 -0.2061 -0.4016
   68MOL   H16713701   1.136   2.729   7.480 -2.0529 -1.1655 -0.7805
   68MOL   H16813702   1.150   2.813   7.626  0.7595 -1.0386  1.1707
   68MOL   H16913703   1.005   2.586   7.814 -1.2394 -2.3447 -0.2161
   68MOL   H17013704   1.234   2.384   7.801 -0.7098  0.5839 -1.6886
   68MOL   H17113705   1.150   2.412   7.941  2.2284 -0.8587 -0.7627
   68MOL   C17213706   1.029   2.299   7.804  0.6086  0.2809  0.2376
   68MOL   C17313707   1.074   2.167   7.846 -0.8915  0.6881  0.1790
   68MOL  Cl17413708   0.982   2.102   7.984 -0.3016  0.1528  0.1850
   68MOL   C17513709   1.154   2.085   7.771 -0.1518  0.3999 -0.2405
   68MOL   C17613710   1.197   1.944   7.805 -0.1030  0.0495  0.7161
   68MOL   H17713711   1.019   2.308   7.696 -1.9746  1.3397  0.5246
   68MOL   H17813712   0.932   2.320   7.849  0.1663  0.7998 -0.9355
   68MOL   H17913713   1.201   2.125   7.683  0.0004  1.4990  0.3291
   68MOL   H18013714   1.127   1.908   7.880 -0.6704  0.3492  0.3311
   68MOL   H18113715   1.293   1.957   7.856  0.0164  1.8563  0.0786
   68MOL   C18213716   1.195   1.848   7.685 -0.0793  0.9747 -0.4781
   68MOL   C18313717   1.240   1.708   7.713 -0.2623 -0.7451 -0.4795
   68MOL  Cl18413718   1.386   1.661   7.624  0.2914 -0.2823 -0.0101
   68MOL   C18513719   1.165   1.622   7.792 -0.4393  0.7647 -0.5330
   68MOL   C18613720   1.199   1.478   7.827 -1.2137  0.3722  0.6235
   68MOL   H18713721   1.095   1.841   7.643  0.5191  0.8148 -1.9047
   68MOL   H18813722   1.259   1.897   7.611  0.5624  1.7657  0.5922
   68MOL   H18913723   1.071   1.662   7.827  1.3505  1.1647  4.0711
   68MOL   H19013724   1.275   1.460   7.750 -1.5796  0.8518  0.1412
   68MOL   H19113725   1.234   1.472   7.930 -1.7568  3.8449  1.0737
   68MOL   C19213726   1.083   1.379   7.795 -0.9655  0.3888  0.5159
   68MOL   C19313727   1.123   1.234   7.828  0.3220  0.3541  0.5778
   68MOL  Cl19413728   1.267   1.183   7.740 -0.0519 -0.0690 -0.0406
   68MOL   C19513729   1.056   1.144   7.902  0.5483 -0.1884 -0.2882
   68MOL   C19613730   0.913   1.172   7.963 -0.5007  0.0197  0.3401
   68MOL   H19713731   1.046   1.382   7.693  2.8206 -1.3269 -1.0334
   68MOL   H19813732   0.993   1.406   7.849 -3.0649 -1.8298 -1.7609
   68MOL   H19913733   1.096   1.045   7.916 -0.2147 -0.5443 -0.5536
   68MOL   H20013734   0.915   1.136   8.066  1.4381  2.7403  1.3049
   68MOL   H20113735   0.835   1.116   7.912 -0.0670 -0.5924  0.3447
   68MOL   H20213736   0.890   1.278   7.965 -1.4665 -0.1636 -0.7637
   69MOL     C113737   1.861   1.840   6.391 -0.2945  0.1161 -0.0972
   69MOL     C213738   1.784   1.919   6.500  0.3178  0.2657 -0.2194
   69MOL    Cl313739   1.757   1.828   6.644 -0.6065  0.0747  0.1037
   69MOL     C413740   1.724   2.040   6.488 -0.1871  0.1333 -0.2514
   69MOL     C513741   1.735   2.125   6.360  0.3719 -0.2494 -0.5845
   69MOL     H613742   1.908   1.901   6.314 -0.1153  0.7174  0.4855
   69MOL     H713743   1.804   1.759   6.345 -1.1888 -0.2877  1.7058
   69MOL     H813744   1.664   2.077   6.570  0.6296 -0.1512  0.4852
   69MOL     H913745   1.738   2.227   6.396 -0.4394 -0.9758  1.6126
   69MOL    H1013746   1.830   2.104   6.311  1.1258  1.0698  0.3090
   69MOL    H1113747   1.948   1.789   6.433 -0.1865  1.4005  1.2847
   69MOL    C1213748   1.619   2.110   6.265 -0.0017 -0.2024 -0.2444
   69MOL    C1313749   1.642   2.179   6.134 -0.3374 -0.4757 -0.3806
   69MOL   Cl1413750   1.585   2.340   6.149 -0.3988 -0.4139  0.1252
   69MOL    C1513751   1.719   2.144   6.031 -0.9902 -0.4986 -0.8598
   69MOL    C1613752   1.801   2.013   6.028 -0.1410 -0.5189  0.5240
   69MOL    H1713753   1.591   2.007   6.244  2.6051 -1.3269  1.5701
   69MOL    H1813754   1.534   2.154   6.317 -0.3346 -1.7651  0.5530
   69MOL    H1913755   1.736   2.218   5.954 -1.3975 -1.2478 -1.6814
   69MOL    H2013756   1.900   2.034   6.070 -0.3484 -2.1514  1.8993
   69MOL    H2113757   1.757   1.959   6.112 -3.9893  0.9483 -0.4441
   69MOL    C2213758   1.790   1.941   5.894 -0.9083  0.0103  0.0402
   69MOL    C2313759   1.835   1.801   5.893 -0.4062 -0.5639  0.1926
   69MOL   Cl2413760   1.715   1.697   5.965  0.0603  0.0947 -0.5697
   69MOL    C2513761   1.957   1.763   5.848 -0.2154  0.8461 -0.8177
   69MOL    C2613762   2.011   1.619   5.852  0.7364 -0.4624  0.1314
   69MOL    H2713763   1.687   1.943   5.856 -0.7299 -0.4866 -0.4841
   69MOL    H2813764   1.846   1.997   5.818 -0.6061  0.9832  0.9701
   69MOL    H2913765   2.025   1.836   5.806 -0.2752  1.0449 -0.5701
   69MOL    H3013766   1.955   1.561   5.925 -0.9202  1.9020  0.8110
   69MOL    H3113767   2.001   1.576   5.753 -0.0142  0.9833 -0.4394
   69MOL    C3213768   2.158   1.602   5.892 -0.2408  0.0130  0.3133
   69MOL    C3313769   2.206   1.461   5.869  0.3015  0.2058 -0.9046
   69MOL   Cl3413770   2.346   1.465   5.774 -0.0326 -0.2390  0.2492
   69MOL    C3513771   2.157   1.347   5.922 -0.2559 -0.1211 -0.0520
   69MOL    C3613772   2.205   1.203   5.897  0.1757 -0.3660  0.5179
   69MOL    H3713773   2.219   1.668   5.831  1.6598 -1.9332  0.0381
   69MOL    H3813774   2.171   1.620   5.999  1.1002 -1.5149  0.4329
   69MOL    H3913775   2.070   1.346   5.986 -0.6739 -0.7420 -0.6160
   69MOL    H4013776   2.298   1.215   5.842 -0.8867  1.6353 -0.8812
   69MOL    H4113777   2.233   1.169   5.997  0.6315  1.5727  1.0792
   69MOL    C4213778   2.102   1.114   5.830  0.2161  0.6025 -0.1067
   69MOL    C4313779   2.129   0.961   5.825 -0.5953  0.7292  0.0349
   69MOL   Cl4413780   2.245   0.907   5.944 -0.0165 -0.5630  0.5998
   69MOL    C4513781   2.062   0.880   5.741 -0.6446 -0.0203  0.4906
   69MOL    C4613782   1.958   0.919   5.641  0.2564  0.5638  0.2724
   69MOL    H4713783   2.011   1.142   5.882 -0.8987 -1.6903 -0.7391
   69MOL    H4813784   2.096   1.160   5.732 -0.1663  2.8458  0.9451
   69MOL    H4913785   2.075   0.774   5.752 -0.7526  0.0135  0.9506
   69MOL    H5013786   1.865   0.862   5.647  1.1963 -1.2848 -1.6295
   69MOL    H5113787   1.925   1.019   5.666 -0.8703  0.1334  0.5526
   69MOL    C5213788   2.000   0.918   5.487 -0.2906  0.2371  0.3177
   69MOL    C5313789   2.040   0.784   5.431 -0.9737  0.6398  0.1330
   69MOL   Cl5413790   1.955   0.646   5.490  0.2839 -0.1039  0.1160
   69MOL    C5513791   2.149   0.769   5.346 -0.0681 -0.0834 -0.3633
   69MOL    C5613792   2.204   0.637   5.298  0.1229 -0.2351 -0.3724
   69MOL    H5713793   1.909   0.940   5.431  0.9362  0.8101 -1.5092
   69MOL    H5813794   2.068   0.996   5.453 -1.8169  1.5514  0.2019
   69MOL    H5913795   2.192   0.864   5.317  0.6094 -0.2545  0.0796
   69MOL    H6013796   2.311   0.650   5.280 -0.0597  0.7662 -0.7839
   69MOL    H6113797   2.205   0.571   5.384  2.8194  0.3956  0.1157
   69MOL    C6213798   2.139   0.577   5.169 -0.0228  0.6963 -0.3759
   69MOL    C6313799   2.204   0.448   5.126  0.1944 -0.4641  0.2528
   69MOL   Cl6413800   2.339   0.478   5.014 -0.0323  0.0105  0.0449
   69MOL    C6513801   2.158   0.329   5.156 -0.3568 -0.3461  0.6320
   69MOL    C6613802   2.221   0.203   5.107  0.3149  0.1871 -0.2629
   69MOL    H6713803   2.034   0.572   5.196  0.1943  1.2608  0.6020
   69MOL    H6813804   2.150   0.648   5.087  2.0830  0.1447 -0.6175
   69MOL    H6913805   2.067   0.318   5.213 -0.2484  0.2329  0.9140
   69MOL    H7013806   2.201   0.131   5.186  4.2244 -0.1780  0.4574
   69MOL    H7113807   2.330   0.208   5.102  0.2008  0.3159 -4.5164
   69MOL    C7213808   2.159   0.170   4.974  1.1241  0.3360  0.8680
   69MOL    C7313809   2.196   0.033   4.915  0.9896  0.0938 -1.1447
   69MOL   Cl7413810   2.109   8.329   4.994  0.4678 -0.1932  0.0153
   69MOL    C7513811   2.281   0.009   4.811  0.7659 -0.6220  0.2016
   69MOL    C7613812   2.323   8.302   4.741  0.0816 -0.2636 -0.5943
   69MOL    H7713813   2.188   0.244   4.900  0.9191  0.1407  0.5897
   69MOL    H7813814   2.051   0.169   4.983  1.1518  0.0846  1.1705
   69MOL    H7913815   2.341   0.087   4.767  0.6587 -0.1131  0.9497
   69MOL    H8013816   2.283   8.289   4.640 -0.1611 -1.8843 -0.3029
   69MOL    H8113817   2.276   8.224   4.801 -0.7848  1.2182  0.7049
   69MOL    C8213818   2.471   8.270   4.753  0.4375  0.3718  0.3959
   69MOL    C8313819   2.557   8.375   4.693 -0.0684  0.7057 -0.2323
   69MOL   Cl8413820   2.652   0.018   4.823  0.0064 -0.3375  0.2364
   69MOL    C8513821   2.561   8.415   4.566 -0.0813  0.1624  0.5101
   69MOL    C8613822   2.641   0.118   4.515  0.3967 -0.2042  0.4588
   69MOL    H8713823   2.504   8.171   4.722  1.0413  0.0217  2.1013
   69MOL    H8813824   2.498   8.260   4.858  1.2112  0.8194  0.2428
   69MOL    H8913825   2.503   8.358   4.496  0.0375  1.7035 -0.8841
   69MOL    H9013826   2.567   0.192   4.484 -0.4025 -1.3602 -0.4776
   69MOL    H9113827   2.690   0.156   4.604 -0.6757 -1.2987  1.5343
   69MOL    C9213828   2.750   0.096   4.413  0.8532 -0.0656 -0.3224
   69MOL    C9313829   2.814   0.225   4.373  0.3556 -0.0201 -0.7037
   69MOL   Cl9413830   2.750   0.269   4.220  0.0684  0.4538  0.0754
   69MOL    C9513831   2.906   0.298   4.440  0.0984 -0.0686  0.1545
   69MOL    C9613832   2.972   0.262   4.571  0.1675 -0.6770  0.1701
   69MOL    H9713833   2.708   0.048   4.324  1.1999  0.1460 -0.5986
   69MOL    H9813834   2.827   0.030   4.454 -0.1277 -3.1502 -3.1957
   69MOL    H9913835   2.944   0.388   4.393 -0.4099 -0.0934 -0.3001
   69MOL   H10013836   2.973   0.342   4.645  0.2047 -1.6073  1.1932
   69MOL   H10113837   2.910   0.191   4.626 -0.5895  1.7795  2.6367
   69MOL   C10213838   3.115   0.215   4.553 -0.2207  0.5932  0.6126
   69MOL   C10313839   3.190   0.203   4.679  0.9674 -0.1214 -0.8015
   69MOL  Cl10413840   3.302   0.334   4.707  0.0103  0.1125  0.1488
   69MOL   C10513841   3.171   0.106   4.770 -0.6813  0.4345 -0.4298
   69MOL   C10613842   3.235   0.091   4.906  0.3123 -0.1875 -0.0880
   69MOL   H10713843   3.109   0.121   4.499 -0.0838  0.0924  1.4658
   69MOL   H10813844   3.169   0.296   4.504 -1.8744  1.5971  0.4084
   69MOL   H10913845   3.099   0.030   4.745 -0.5237  0.5496 -1.2449
   69MOL   H11013846   3.205   8.415   4.947  0.4790  0.9191  2.7899
   69MOL   H11113847   3.341   0.078   4.885  0.1113 -2.0064 -0.1251
   69MOL   C11213848   3.191   0.202   5.005  0.0726  0.3167  0.3387
   69MOL   C11313849   3.303   0.230   5.105  0.9285  0.9138 -0.6433
   69MOL  Cl11413850   3.416   0.346   5.056 -0.4051 -0.3641  0.2032
   69MOL   C11513851   3.307   0.173   5.229  0.0547  0.3644 -0.3572
   69MOL   C11613852   3.218   0.071   5.290 -0.0967  0.1683  0.3898
   69MOL   H11713853   3.185   0.295   4.949 -1.2552  0.7435  1.1703
   69MOL   H11813854   3.103   0.182   5.066  0.0054  1.6316  0.6927
   69MOL   H11913855   3.379   0.198   5.305 -1.0519 -1.0110  1.1793
   69MOL   H12013856   3.272   8.413   5.341  1.3327  0.3646 -0.7724
   69MOL   H12113857   3.184   0.005   5.210  1.1959 -0.3281  0.2413
   69MOL   C12213858   3.102   0.136   5.374  0.4262  0.0322 -0.2943
   69MOL   C12313859   3.011   0.033   5.438 -0.0022 -0.6724  0.5981
   69MOL  Cl12413860   3.045   0.010   5.612  0.3872  0.2205  0.1200
   69MOL   C12513861   2.921   8.379   5.383  0.0970  0.2777  0.1353
   69MOL   C12613862   2.887   8.384   5.233 -0.2620 -0.3613  0.3570
   69MOL   H12713863   3.138   0.201   5.454  1.4099  0.8339 -1.3729
   69MOL   H12813864   3.049   0.206   5.310 -1.8126  0.2954  1.7911
   69MOL   H12913865   2.862   8.314   5.446  0.3332 -0.1520 -0.0839
   69MOL   H13013866   2.778   8.376   5.227 -0.2878 -0.2353  0.6330
   69MOL   H13113867   2.923   0.049   5.178  1.2343 -1.1040  0.1500
   69MOL   C13213868   2.952   8.256   5.171  0.2139 -0.5508 -0.3669
   69MOL   C13313869   2.888   8.224   5.037  0.7669 -0.2789  0.2109
   69MOL  Cl13413870   3.005   8.240   4.906 -0.1892  0.1761 -0.2205
   69MOL   C13513871   2.759   8.194   5.018 -0.2722 -0.2888 -0.1037
   69MOL   C13613872   2.656   8.167   5.124 -0.6025 -0.1464 -0.7213
   69MOL   H13713873   3.058   8.268   5.151  0.1890  1.4435  0.5677
   69MOL   H13813874   2.949   8.176   5.246 -2.7640  1.0958  1.3688
   69MOL   H13913875   2.723   8.189   4.916 -0.9657  0.7590  0.0806
   69MOL   H14013876   2.694   8.162   5.227 -0.8562 -1.3184 -0.6759
   69MOL   H14113877   2.604   8.262   5.123  1.0628  0.8448  1.6476
   69MOL   C14213878   2.565   8.047   5.071  0.4503  0.1260 -0.4045
   69MOL   C14313879   2.473   7.993   5.177  0.4141 -0.2130  0.2576
   69MOL  Cl14413880   2.545   7.861   5.262  0.1439 -0.2635  0.0152
   69MOL   C14513881   2.347   8.037   5.192 -0.1857  0.6399 -0.3371
   69MOL   C14613882   2.250   7.996   5.306  0.0417 -0.3687  0.1473
   69MOL   H14713883   2.639   7.977   5.034 -0.5585 -0.6558 -0.9697
   69MOL   H14813884   2.504   8.088   4.990 -0.9650  0.3230  0.7389
   69MOL   H14913885   2.312   8.112   5.122 -1.1154 -1.8561 -2.6202
   69MOL   H15013886   2.174   7.929   5.267 -1.2912  2.0401 -1.4838
   69MOL   H15113887   2.310   7.928   5.366 -0.1554 -0.8448 -0.1940
   69MOL   C15213888   2.166   8.105   5.377  1.0381 -0.2074 -0.0075
   69MOL   C15313889   2.240   8.209   5.455 -0.1408 -0.3567 -0.1074
   69MOL  Cl15413890   2.237   8.368   5.386  0.5456  0.2198 -0.2864
   69MOL   C15513891   2.304   8.186   5.573  0.1141 -0.4365 -0.1715
   69MOL   C15613892   2.369   8.284   5.666 -0.1719 -0.5263 -0.3386
   69MOL   H15713893   2.110   8.155   5.297 -0.0365  1.3058  1.6550
   69MOL   H15813894   2.091   8.057   5.440 -2.3583  1.2815 -2.7552
   69MOL   H15913895   2.304   8.090   5.622  0.4557  0.2989  1.2657
   69MOL   H16013896   2.363   8.390   5.641  1.3224 -0.7392 -1.7145
   69MOL   H16113897   2.475   8.258   5.678  0.1913  0.4855 -1.3356
   69MOL   C16213898   2.302   8.287   5.802  0.0106 -0.1670  0.0124
   69MOL   C16313899   2.370   8.368   5.911 -0.2123  0.1523 -0.1486
   69MOL  Cl16413900   2.324   0.110   5.919  0.2963  0.0447  0.0656
   69MOL   C16513901   2.461   8.320   5.998 -0.4826  0.1350  0.3336
   69MOL   C16613902   2.543   8.394   6.098  0.1316  0.2822  0.4797
   69MOL   H16713903   2.201   8.327   5.804 -0.0727 -0.3733 -0.1437
   69MOL   H16813904   2.310   8.181   5.827 -1.7844 -0.2522  0.2992
   69MOL   H16913905   2.468   8.212   5.989 -1.4491  0.0027  1.0101
   69MOL   H17013906   2.515   0.079   6.105  1.0896  0.3900  3.0528
   69MOL   H17113907   2.519   8.354   6.196  1.7719  1.5005  1.4008
   69MOL   C17213908   2.690   8.370   6.072  0.3083  0.2656 -0.2904
   69MOL   C17313909   2.739   0.028   5.952 -0.5179 -0.3156  0.6205
   69MOL  Cl17413910   2.722   8.351   5.807  0.1384  0.0557 -0.0817
   69MOL   C17513911   2.790   0.155   5.953  0.4284  1.0609  0.4749
   69MOL   C17613912   2.835   0.227   5.834  0.2228  0.2003 -0.2367
   69MOL   H17713913   2.734   8.271   6.055  1.9595  0.5351  2.0134
   69MOL   H17813914   2.756   8.406   6.151  0.6376 -1.2294  0.1427
   69MOL   H17913915   2.801   0.210   6.046  1.2660  0.6993  0.5990
   69MOL   H18013916   2.840   0.153   5.753  0.4107 -0.0578  0.0083
   69MOL   H18113917   2.937   0.259   5.856  0.7416 -1.7355  0.2778
   69MOL   C18213918   2.733   0.338   5.801 -0.3315 -0.3752 -0.4688
   69MOL   C18313919   2.800   0.449   5.717  0.1648 -0.1876  0.3758
   69MOL  Cl18413920   2.753   0.600   5.781 -0.0896  0.1510  0.4460
   69MOL   C18513921   2.889   0.444   5.618  0.1299 -0.4527  0.4524
   69MOL   C18613922   2.971   0.553   5.551 -0.2240 -0.6476 -0.1855
   69MOL   H18713923   2.645   0.296   5.751 -1.8851  1.4961  0.6353
   69MOL   H18813924   2.679   0.389   5.880  0.2136  1.6479 -1.3721
   69MOL   H18913925   2.912   0.347   5.577 -2.3498 -1.2869  0.9276
   69MOL   H19013926   2.962   0.538   5.443 -3.7448  1.6978 -0.3012
   69MOL   H19113927   2.932   0.652   5.573 -0.2432 -0.8825  0.8251
   69MOL   C19213928   3.118   0.533   5.602  0.0244 -0.5971 -0.3035
   69MOL   C19313929   3.219   0.643   5.565  0.0674  0.3313  0.7837
   69MOL  Cl19413930   3.194   0.789   5.649  0.8114 -0.2037 -0.1249
   69MOL   C19513931   3.294   0.635   5.451 -0.0606  0.2390 -0.5568
   69MOL   C19613932   3.307   0.507   5.367  0.4045 -0.5379 -0.4538
   69MOL   H19713933   3.151   0.431   5.580 -0.3529 -0.7864 -0.0021
   69MOL   H19813934   3.111   0.533   5.711  3.5164  1.8920 -0.0202
   69MOL   H19913935   3.348   0.718   5.408  0.5484  0.6594  1.0020
   69MOL   H20013936   3.412   0.480   5.360  0.3513 -1.0948  0.6412
   69MOL   H20113937   3.263   0.522   5.269  0.5438 -1.8122 -0.7279
   69MOL   H20213938   3.262   0.416   5.408  1.8434 -0.1026  2.2187
   70MOL     C113939   3.038   5.524   6.032  0.4960 -0.6653  0.5811
   70MOL     C213940   3.049   5.664   5.987  0.9226  0.1728 -0.0293
   70MOL    Cl313941   3.145   5.759   6.094 -0.5173  0.1773 -0.2404
   70MOL     C413942   2.981   5.713   5.886  0.2628 -0.7193 -0.0730
   70MOL     C513943   2.892   5.631   5.789  0.4444 -0.1696  0.8249
   70MOL     H613944   3.093   5.455   5.967  0.6935  0.1639 -0.1394
   70MOL     H713945   2.940   5.475   6.037 -0.9834  2.0101 -1.0678
   70MOL     H813946   2.977   5.819   5.866 -3.5791 -1.1200 -1.7039
   70MOL     H913947   2.914   5.663   5.688  0.3414 -0.3851  0.7347
   70MOL    H1013948   2.912   5.524   5.796  0.2736 -0.2421  0.2260
   70MOL    H1113949   3.093   5.524   6.126  0.3993  0.5237  0.6424
   70MOL    C1213950   2.739   5.645   5.815 -0.7347 -0.2854 -0.1363
   70MOL    C1313951   2.654   5.553   5.730  0.7037 -0.5671  0.0439
   70MOL   Cl1413952   2.630   5.403   5.808  0.3511  0.1437  0.0612
   70MOL    C1513953   2.598   5.582   5.610 -0.1937 -0.1849 -0.0839
   70MOL    C1613954   2.639   5.705   5.529  0.6112 -0.4838 -0.2602
   70MOL    H1713955   2.724   5.605   5.916  0.4160  1.1184  0.6112
   70MOL    H1813956   2.696   5.744   5.828 -2.3851 -1.0278  0.1367
   70MOL    H1913957   2.525   5.522   5.557 -1.4213  0.9955  0.2187
   70MOL    H2013958   2.717   5.756   5.585  0.2367  0.7646 -0.8579
   70MOL    H2113959   2.681   5.666   5.436  0.4729  1.7327 -1.2857
   70MOL    C2213960   2.514   5.799   5.509 -0.0728 -0.2242  0.2393
   70MOL    C2313961   2.563   5.932   5.458 -0.4469  0.1396 -0.1975
   70MOL   Cl2413962   2.627   6.030   5.582  0.1114 -0.0224 -0.1950
   70MOL    C2513963   2.540   5.986   5.339 -0.2274  0.1083  0.2283
   70MOL    C2613964   2.584   6.128   5.294  0.7953  0.2716 -0.1593
   70MOL    H2713965   2.441   5.768   5.435 -0.2402 -1.0034  0.7279
   70MOL    H2813966   2.456   5.804   5.601 -0.8539 -1.2909 -0.1883
   70MOL    H2913967   2.486   5.939   5.259 -1.1976  3.0844 -0.9222
   70MOL    H3013968   2.677   6.160   5.340  0.9127 -0.5383  0.1735
   70MOL    H3113969   2.595   6.127   5.185 -0.8042  1.7888 -0.3569
   70MOL    C3213970   2.481   6.240   5.325  0.2663 -0.4872 -0.1432
   70MOL    C3313971   2.367   6.253   5.224 -0.0911 -0.2157 -0.0429
   70MOL   Cl3413972   2.238   6.149   5.260 -0.0985 -0.0753 -0.0032
   70MOL    C3513973   2.352   6.354   5.135 -0.3294  0.0166  0.5746
   70MOL    C3613974   2.238   6.387   5.043 -0.1505  0.3752 -0.3357
   70MOL    H3713975   2.447   6.228   5.427  0.9656 -1.1132  0.0143
   70MOL    H3813976   2.534   6.335   5.317 -2.2079  0.7637 -2.7242
   70MOL    H3913977   2.426   6.433   5.127 -1.2249  0.6374 -2.0978
   70MOL    H4013978   2.279   6.393   4.942  0.1973  1.7640 -0.1194
   70MOL    H4113979   2.162   6.309   5.050 -1.2475  1.4539 -0.0307
   70MOL    C4213980   2.172   6.525   5.072  0.5660 -0.5986  0.3011
   70MOL    C4313981   2.044   6.545   4.994 -0.1399 -0.0248  0.5307
   70MOL   Cl4413982   2.076   6.619   4.834 -0.1235 -0.3087  0.1259
   70MOL    C4513983   1.914   6.540   5.038 -0.6962 -0.8005 -0.0324
   70MOL    C4613984   1.876   6.479   5.174  0.3831  0.0471 -0.3742
   70MOL    H4713985   2.177   6.549   5.178  0.8549 -1.0043  0.3793
   70MOL    H4813986   2.240   6.606   5.043 -1.2726  1.5118  1.6924
   70MOL    H4913987   1.837   6.570   4.969  0.3377  0.9242 -0.4676
   70MOL    H5013988   1.969   6.447   5.220  0.2028  0.7093  0.4757
   70MOL    H5113989   1.834   6.553   5.242  0.8723  0.6043 -0.6780
   70MOL    C5213990   1.782   6.361   5.156  0.8322  0.6590 -1.0879
   70MOL    C5313991   1.753   6.290   5.284 -0.6005  0.4675  0.6127
   70MOL   Cl5413992   1.618   6.364   5.357  0.0772  0.0575  0.2502
   70MOL    C5513993   1.827   6.187   5.335  0.2626 -0.5315  0.1819
   70MOL    C5613994   1.812   6.104   5.461  0.1881 -0.7343  0.6575
   70MOL    H5713995   1.689   6.378   5.103  0.1625 -0.9624 -0.4594
   70MOL    H5813996   1.845   6.300   5.091  0.9024  0.1095 -0.5136
   70MOL    H5913997   1.913   6.152   5.279  0.3738 -1.6570  1.0429
   70MOL    H6013998   1.725   6.127   5.522  0.9372  1.3770  0.9675
   70MOL    H6113999   1.793   6.001   5.429 -1.3555 -0.2344 -0.0984
   70MOL    C6214000   1.941   6.089   5.528 -0.6422  0.6718  0.4326
   70MOL    C6314001   1.960   6.023   5.664  0.2334  0.0841  0.0071
   70MOL   Cl6414002   1.810   6.003   5.751  0.1763  0.0108 -0.2331
   70MOL    C6514003   2.085   5.968   5.694 -0.0904  0.2855  0.8419
   70MOL    C6614004   2.109   5.907   5.832  0.3282  0.5647  0.9574
   70MOL    H6714005   2.006   6.028   5.465  0.9296  1.4721  1.2513
   70MOL    H6814006   1.984   6.189   5.534 -0.5826  0.6475  0.4207
   70MOL    H6914007   2.170   5.966   5.629 -0.3402 -2.0234  0.5632
   70MOL    H7014008   2.036   5.942   5.904  1.4045 -0.5658  2.6201
   70MOL    H7114009   2.195   5.954   5.878  1.4175  0.0831 -0.5309
   70MOL    C7214010   2.124   5.755   5.825  0.4415 -0.4191 -0.2764
   70MOL    C7314011   2.170   5.710   5.965  0.7435 -0.2318  0.2383
   70MOL   Cl7414012   2.054   5.749   6.089  0.5834  0.2907  0.2911
   70MOL    C7514013   2.283   5.643   5.990  0.5876 -0.2875 -0.4804
   70MOL    C7614014   2.324   5.581   6.127  0.3323  0.6435  0.0508
   70MOL    H7714015   2.197   5.722   5.750  0.1904 -0.3550 -0.5480
   70MOL    H7814016   2.024   5.715   5.808  0.7414 -0.8171 -1.1659
   70MOL    H7914017   2.352   5.634   5.907 -1.8612  1.3219 -2.7741
   70MOL    H8014018   2.237   5.539   6.177  1.0522  0.1150  0.8774
   70MOL    H8114019   2.363   5.650   6.201  0.4179  0.2160  0.4118
   70MOL    C8214020   2.427   5.475   6.110 -0.3186 -0.2141  0.0596
   70MOL    C8314021   2.474   5.409   6.241  0.1441 -0.3660 -0.2326
   70MOL   Cl8414022   2.626   5.342   6.220 -0.4975  0.0558  0.0273
   70MOL    C8514023   2.415   5.422   6.365 -0.1790  0.6234 -0.0129
   70MOL    C8614024   2.476   5.370   6.491 -0.8822  0.2502 -0.1275
   70MOL    H8714025   2.508   5.514   6.048 -0.1602  1.3643  1.2245
   70MOL    H8814026   2.382   5.396   6.051  1.1328 -2.6815  2.1295
   70MOL    H8914027   2.316   5.465   6.366 -0.9595 -1.0991  0.0746
   70MOL    H9014028   2.585   5.367   6.484 -0.7430  0.8421  1.4763
   70MOL    H9114029   2.456   5.433   6.577  0.3760  0.6931 -0.1522
   70MOL    C9214030   2.430   5.223   6.518  0.6472 -0.5065  0.0740
   70MOL    C9314031   2.301   5.210   6.601 -0.1735 -0.3099  0.4133
   70MOL   Cl9414032   2.329   5.222   6.772  0.1747 -0.4834  0.0793
   70MOL    C9514033   2.185   5.175   6.543  0.3665 -0.1550  0.0526
   70MOL    C9614034   2.165   5.145   6.396 -0.3312  0.3690 -0.5799
   70MOL    H9714035   2.511   5.183   6.579  2.1806  0.1930 -1.4505
   70MOL    H9814036   2.436   5.156   6.432  0.8220 -1.5387  0.8809
   70MOL    H9914037   2.099   5.151   6.604 -1.3142 -1.3154 -2.6925
   70MOL   H10014038   2.253   5.169   6.336  0.3629 -0.2679  0.1626
   70MOL   H10114039   2.147   5.040   6.378  2.3262 -0.2978  0.3567
   70MOL   C10214040   2.051   5.234   6.346 -0.0427  0.2764 -0.1704
   70MOL   C10314041   1.996   5.191   6.209 -0.2054 -0.3759  0.5795
   70MOL  Cl10414042   2.102   5.264   6.089  0.1725  0.0227 -0.4460
   70MOL   C10514043   1.885   5.119   6.184  0.4684 -0.5199  0.4198
   70MOL   C10614044   1.831   5.079   6.056  0.4650 -0.2840 -0.1869
   70MOL   H10714045   1.976   5.238   6.425  1.0177  1.8220  0.7722
   70MOL   H10814046   2.083   5.337   6.333  1.6924 -0.1268  0.6509
   70MOL   H10914047   1.835   5.077   6.270 -0.8792  1.5461  0.6687
   70MOL   H11014048   1.731   5.123   6.050  1.3775  2.0309  1.0668
   70MOL   H11114049   1.890   5.131   5.981 -1.5809 -0.8225 -2.2382
   70MOL   C11214050   1.836   4.922   6.039 -0.0734 -0.0407 -0.0302
   70MOL   C11314051   1.754   4.859   5.932  0.0476 -0.2937  0.4511
   70MOL  Cl11414052   1.592   4.830   5.996  0.1381  0.0726 -0.2374
   70MOL   C11514053   1.783   4.806   5.811 -0.0411  0.0644 -0.0808
   70MOL   C11614054   1.919   4.811   5.743  0.1210 -0.0921  0.2993
   70MOL   H11714055   1.937   4.885   6.024  0.0098  0.4761 -0.7540
   70MOL   H11814056   1.810   4.879   6.136 -0.8232  0.3635 -0.0440
   70MOL   H11914057   1.709   4.757   5.750 -1.4964  0.4955  1.2892
   70MOL   H12014058   1.952   4.712   5.712  0.1483  0.5831 -1.9133
   70MOL   H12114059   1.997   4.860   5.801 -1.7506  2.3486  0.8420
   70MOL   C12214060   1.907   4.911   5.630 -0.2780  0.1662 -0.8067
   70MOL   C12314061   2.011   4.883   5.524  0.2106 -0.1851  0.1668
   70MOL  Cl12414062   2.129   5.000   5.521  0.0791 -0.0470  0.5604
   70MOL   C12514063   2.001   4.776   5.447 -0.6158 -0.3992 -0.0066
   70MOL   C12614064   1.885   4.670   5.443  0.5853  0.5855 -0.4259
   70MOL   H12714065   1.807   4.915   5.587 -0.3025 -1.9495 -1.0027
   70MOL   H12814066   1.928   5.009   5.672  0.9223  0.6960 -2.5748
   70MOL   H12914067   2.091   4.756   5.391 -1.3056 -1.7087 -0.6750
   70MOL   H13014068   1.799   4.706   5.499 -0.0380  1.1937 -1.7390
   70MOL   H13114069   1.858   4.656   5.338  0.5303  1.3298 -0.5162
   70MOL   C13214070   1.923   4.525   5.486 -0.0155 -0.2250  0.4815
   70MOL   C13314071   1.794   4.444   5.485 -0.2761 -0.0161  0.4554
   70MOL  Cl13414072   1.698   4.463   5.633  0.2130 -0.0637  0.1691
   70MOL   C13514073   1.759   4.359   5.387  0.6661 -0.0220 -0.1293
   70MOL   C13614074   1.824   4.332   5.258 -0.4365 -0.3096 -0.1283
   70MOL   H13714075   1.998   4.471   5.427  0.0148  1.0423 -0.6631
   70MOL   H13814076   1.958   4.526   5.589 -0.7496 -2.8679  0.8002
   70MOL   H13914077   1.667   4.304   5.401 -0.5990  1.6313 -1.8294
   70MOL   H14014078   1.886   4.418   5.236  0.5301 -0.8390  0.4830
   70MOL   H14114079   1.882   4.240   5.268 -0.0835  0.1452  2.4269
   70MOL   C14214080   1.724   4.330   5.141  0.3503 -0.2637 -0.3581
   70MOL   C14314081   1.776   4.292   5.004  0.7405  0.0303 -0.2647
   70MOL  Cl14414082   1.698   4.384   4.882  0.0821  0.0650  0.1103
   70MOL   C14514083   1.880   4.209   4.992 -0.5070 -0.0820 -0.1129
   70MOL   C14614084   1.963   4.172   4.878 -0.5441  0.0245  0.3263
   70MOL   H14714085   1.681   4.429   5.125 -0.0104 -0.2846  0.4332
   70MOL   H14814086   1.637   4.265   5.151  0.2971 -0.5147 -2.1616
   70MOL   H14914087   1.910   4.165   5.086  1.6281  2.5074  0.4640
   70MOL   H15014088   1.971   4.063   4.882 -0.3390  0.1040  2.2553
   70MOL   H15114089   1.920   4.187   4.779  0.2694 -1.9813 -0.3628
   70MOL   C15214090   2.102   4.244   4.885  0.2869  0.0164 -0.2845
   70MOL   C15314091   2.093   4.394   4.905 -0.3849  0.2828 -0.0091
   70MOL  Cl15414092   2.097   4.469   4.753 -0.2657  0.2554 -0.4469
   70MOL   C15514093   2.097   4.461   5.019  1.0124  1.1578  0.0225
   70MOL   C15614094   2.104   4.610   5.037 -0.1899 -0.2805  0.2727
   70MOL   H15714095   2.139   4.207   4.981 -1.0109  0.8681  0.5466
   70MOL   H15814096   2.179   4.225   4.810  0.3239 -1.5498  0.1199
   70MOL   H15914097   2.106   4.411   5.114 -0.4287 -0.1049 -0.4767
   70MOL   H16014098   2.041   4.631   5.123 -0.7038  4.7210 -1.1674
   70MOL   H16114099   2.050   4.671   4.965 -2.5046 -0.0902  2.0951
   70MOL   C16214100   2.249   4.656   5.050 -0.1132  0.1833  0.1547
   70MOL   C16314101   2.250   4.802   5.046  0.3327 -0.3224  0.3966
   70MOL  Cl16414102   2.228   4.869   5.200 -0.2072  0.5122  0.0705
   70MOL   C16514103   2.287   4.878   4.947 -0.5806  0.3288 -0.3485
   70MOL   C16614104   2.291   5.028   4.945  0.6980 -0.3623  0.7295
   70MOL   H16714105   2.286   4.623   5.147  0.1241 -3.0121 -0.9366
   70MOL   H16814106   2.308   4.619   4.966  1.9843  1.9213  0.8276
   70MOL   H16914107   2.313   4.843   4.848 -0.6121 -0.4837 -0.0725
   70MOL   H17014108   2.251   5.072   5.036 -0.2879 -0.0106  0.1291
   70MOL   H17114109   2.396   5.058   4.938  0.4301  0.4567  0.2325
   70MOL   C17214110   2.222   5.091   4.829  0.1319 -1.1375  0.0685
   70MOL   C17314111   2.230   5.239   4.805 -0.4085 -0.0258 -0.1107
   70MOL  Cl17414112   2.392   5.300   4.774 -0.1491 -0.0431  0.1024
   70MOL   C17514113   2.119   5.314   4.818  0.0191  0.0804  0.5679
   70MOL   C17614114   2.090   5.465   4.811  0.3991 -0.2810 -0.4039
   70MOL   H17714115   2.119   5.060   4.846  0.2332 -0.1384  2.8072
   70MOL   H17814116   2.251   5.033   4.741  1.0591 -1.0211  0.2915
   70MOL   H17914117   2.026   5.265   4.842 -0.4775 -0.2430 -1.8891
   70MOL   H18014118   2.167   5.541   4.823  0.4676 -0.1776 -1.4475
   70MOL   H18114119   2.021   5.492   4.891  1.0670 -1.8284  0.7126
   70MOL   C18214120   2.005   5.490   4.682 -0.3560 -0.4479 -0.3495
   70MOL   C18314121   1.961   5.630   4.652 -0.2447 -0.3737 -0.7480
   70MOL  Cl18414122   2.092   5.717   4.564  0.3632 -0.1896 -0.2662
   70MOL   C18514123   1.842   5.683   4.687  0.1981 -0.3926  0.1459
   70MOL   C18614124   1.799   5.831   4.661  0.7074 -0.1320  0.4500
   70MOL   H18714125   2.063   5.470   4.592  1.6800 -1.7450  1.2165
   70MOL   H18814126   1.919   5.423   4.678 -1.6709  0.9903  2.5420
   70MOL   H18914127   1.777   5.620   4.745  0.2602 -0.9884 -0.4293
   70MOL   H19014128   1.750   5.879   4.746 -0.9993  0.5887 -0.9296
   70MOL   H19114129   1.884   5.895   4.637  0.0169  1.1294  1.3036
   70MOL   C19214130   1.703   5.813   4.541  0.8394  0.1150 -0.0002
   70MOL   C19314131   1.616   5.938   4.527 -0.1504 -0.0221 -0.4937
   70MOL  Cl19414132   1.645   6.040   4.390 -0.0820 -0.4723 -0.4613
   70MOL   C19514133   1.526   5.974   4.614  0.5638  0.5982  0.6100
   70MOL   C19614134   1.494   5.902   4.739  0.2696  0.2998  0.0515
   70MOL   H19714135   1.637   5.727   4.545  0.0915  0.6735 -0.0483
   70MOL   H19814136   1.739   5.807   4.439 -0.0665 -0.8361 -0.2719
   70MOL   H19914137   1.471   6.065   4.597 -2.4447 -1.4117 -0.7900
   70MOL   H20014138   1.386   5.909   4.756  0.1756 -0.5442 -0.1589
   70MOL   H20114139   1.540   5.941   4.830  3.3379 -1.8860 -0.4818
   70MOL   H20214140   1.521   5.797   4.725  0.8008  0.5517 -0.8749
   71MOL     C114141   4.696   0.092   5.922 -0.4152 -0.4149 -0.1095
   71MOL     C214142   4.578   8.418   5.892  0.6595 -0.0015  0.1370
   71MOL    Cl314143   4.618   8.254   5.901 -0.7367  0.1163  0.4645
   71MOL     C414144   4.459   0.039   5.857  0.5894  0.0209 -0.1019
   71MOL     C514145   4.418   0.190   5.869  0.1572 -0.8713  0.5000
   71MOL     H614146   4.783   0.033   5.951 -0.7878 -0.6010  0.6460
   71MOL     H714147   4.678   0.162   6.003 -1.0817 -0.0822 -0.5390
   71MOL     H814148   4.379   8.391   5.832  1.5471 -1.5814  1.1673
   71MOL     H914149   4.433   0.231   5.968 -1.0616  1.0255 -0.0714
   71MOL    H1014150   4.486   0.242   5.802 -1.8841  1.1809 -0.0651
   71MOL    H1114151   4.731   0.139   5.830  0.1871 -2.8081 -1.1406
   71MOL    C1214152   4.277   0.211   5.813 -0.5994 -0.4691  0.1743
   71MOL    C1314153   4.251   0.361   5.781 -0.5277  0.2009 -0.2792
   71MOL   Cl1414154   4.251   0.413   5.617 -0.2194 -0.3650  0.0967
   71MOL    C1514155   4.213   0.454   5.878 -0.4696  0.1081  0.0415
   71MOL    C1614156   4.183   0.421   6.024  0.3228 -0.5017 -0.1203
   71MOL    H1714157   4.269   0.154   5.721  1.7075  0.7619 -0.8286
   71MOL    H1814158   4.194   0.186   5.879 -0.3426  0.2730  0.7856
   71MOL    H1914159   4.192   0.557   5.855  0.8648  0.2345 -0.6830
   71MOL    H2014160   4.241   0.339   6.066 -1.3610 -2.4569 -1.4931
   71MOL    H2114161   4.217   0.501   6.090 -2.0530 -0.3450  0.9881
   71MOL    C2214162   4.035   0.399   6.055 -0.1462 -0.2545 -0.2373
   71MOL    C2314163   4.006   0.311   6.183 -1.1616 -0.5685 -0.1766
   71MOL   Cl2414164   4.085   0.366   6.325 -0.3674  0.1386  0.0748
   71MOL    C2514165   3.934   0.201   6.176 -1.0574 -0.3628  0.1844
   71MOL    C2614166   3.907   0.101   6.278  0.4767  0.8316 -0.2279
   71MOL    H2714167   3.984   0.494   6.066 -0.9703 -0.4145 -2.3875
   71MOL    H2814168   3.984   0.348   5.973  1.8690  0.7037 -2.1175
   71MOL    H2914169   3.896   0.170   6.080 -0.8476  2.0342 -0.6977
   71MOL    H3014170   3.976   0.020   6.259 -0.6770  0.5164 -3.4460
   71MOL    H3114171   3.934   0.153   6.370  2.2013 -2.1167  0.9580
   71MOL    C3214172   3.769   0.041   6.269 -0.1400 -0.1434  0.2739
   71MOL    C3314173   3.731   8.361   6.375  0.3236 -0.0126 -0.0368
   71MOL   Cl3414174   3.815   8.373   6.526 -0.0359 -0.1850 -0.0528
   71MOL    C3514175   3.659   8.252   6.353 -0.4720 -0.0057 -0.7149
   71MOL    C3614176   3.635   8.147   6.462  0.4428 -0.2745 -0.4608
   71MOL    H3714177   3.694   0.120   6.269 -3.4239 -3.1549  1.1589
   71MOL    H3814178   3.774   8.413   6.172  0.7036  0.0325  0.2261
   71MOL    H3914179   3.612   8.242   6.257  0.4371 -0.7845 -1.0939
   71MOL    H4014180   3.704   8.151   6.546  0.2430  0.6796 -0.3303
   71MOL    H4114181   3.536   8.171   6.500  0.4342  1.6912 -1.6810
   71MOL    C4214182   3.632   8.002   6.403 -0.0114 -0.4442  0.0212
   71MOL    C4314183   3.755   7.968   6.317  0.5190  0.3029 -0.2240
   71MOL   Cl4414184   3.895   7.916   6.408 -0.1225 -0.4928  0.1855
   71MOL    C4514185   3.759   7.962   6.180  0.0165  0.0181 -0.3480
   71MOL    C4614186   3.639   7.998   6.086 -0.2710 -0.0895 -0.0860
   71MOL    H4714187   3.612   7.922   6.475 -1.2621 -0.7839 -0.7061
   71MOL    H4814188   3.549   7.997   6.334  0.5738  0.7768 -0.7877
   71MOL    H4914189   3.851   7.925   6.137  0.0882  2.0485 -1.9504
   71MOL    H5014190   3.547   7.962   6.131 -0.1785  0.4427  0.5315
   71MOL    H5114191   3.635   8.106   6.075 -1.5592 -0.0817  0.4817
   71MOL    C5214192   3.672   7.951   5.938 -0.1540  0.3020 -0.7889
   71MOL    C5314193   3.575   7.994   5.836 -0.3422  0.8141  0.3767
   71MOL   Cl5414194   3.611   8.153   5.774 -0.2656 -0.0816 -0.0008
   71MOL    C5514195   3.478   7.907   5.803  0.6803 -1.1694  0.2558
   71MOL    C5614196   3.368   7.935   5.701  0.2417  1.0532  0.3306
   71MOL    H5714197   3.774   7.985   5.921  0.0868 -1.1131 -2.3249
   71MOL    H5814198   3.679   7.842   5.933 -1.7271  0.1961 -0.9965
   71MOL    H5914199   3.475   7.813   5.856  1.2381 -0.5394  1.4328
   71MOL    H6014200   3.280   7.873   5.717  0.1381  1.0255 -0.3184
   71MOL    H6114201   3.331   8.034   5.728  0.9808  1.6888 -0.9310
   71MOL    C6214202   3.420   7.919   5.553 -0.3203 -0.2004 -0.4966
   71MOL    C6314203   3.422   8.058   5.483 -0.1189  0.8118 -0.3930
   71MOL   Cl6414204   3.263   8.108   5.446 -0.0047 -0.6318  0.1946
   71MOL    C6514205   3.529   8.135   5.453  0.0319  0.0079 -0.3154
   71MOL    C6614206   3.535   8.273   5.395  0.3070 -0.7717 -0.0037
   71MOL    H6714207   3.515   7.865   5.556  0.9763  1.8917 -2.3884
   71MOL    H6814208   3.341   7.865   5.500  0.9859 -0.5645 -2.1161
   71MOL    H6914209   3.623   8.089   5.477  1.8979  2.8660 -1.8890
   71MOL    H7014210   3.452   8.273   5.325 -0.1824  2.8212  0.4692
   71MOL    H7114211   3.631   8.277   5.342  0.9235  0.5434  1.1951
   71MOL    C7214212   3.519   8.380   5.506 -0.0049  0.4227  0.1440
   71MOL    C7314213   3.567   0.103   5.474 -0.1222  1.4747  0.0118
   71MOL   Cl7414214   3.486   0.219   5.575 -0.0242  0.0597  0.2920
   71MOL    C7514215   3.660   0.137   5.380 -0.0372  0.4736  0.4315
   71MOL    C7614216   3.707   0.277   5.352 -0.1634 -0.8659  0.7127
   71MOL    H7714217   3.586   8.363   5.590  3.6123 -0.9634 -2.8979
   71MOL    H7814218   3.416   8.384   5.542  0.2151 -1.0436  0.9654
   71MOL    H7914219   3.705   0.063   5.315 -2.4092 -0.8247  0.2259
   71MOL    H8014220   3.643   0.332   5.421  0.1484  0.1092  0.2185
   71MOL    H8114221   3.700   0.311   5.249 -1.0055 -2.5026  0.2055
   71MOL    C8214222   3.858   0.285   5.401  0.3260  0.4754 -0.3434
   71MOL    C8314223   3.912   0.425   5.401  0.0144 -0.0595  0.1448
   71MOL   Cl8414224   4.024   0.453   5.268 -0.0917 -0.3884 -0.6320
   71MOL    C8514225   3.897   0.516   5.502 -0.6253  0.1519  0.4811
   71MOL    C8614226   3.954   0.660   5.497  0.1587 -0.3265 -1.4195
   71MOL    H8714227   3.928   0.236   5.335  0.0066  0.0745 -0.3887
   71MOL    H8814228   3.872   0.246   5.502  2.0879 -1.5558 -1.3602
   71MOL    H8914229   3.835   0.497   5.589 -1.0420  2.1212  0.6354
   71MOL    H9014230   4.004   0.679   5.592  1.9999 -0.6025 -2.3224
   71MOL    H9114231   4.023   0.673   5.414 -2.3757 -0.4461 -3.6115
   71MOL    C9214232   3.846   0.766   5.471 -0.0371 -0.2975  0.6086
   71MOL    C9314233   3.748   0.791   5.584  0.5012 -0.0706 -0.1665
   71MOL   Cl9414234   3.608   0.685   5.584 -0.0640 -0.3627  0.2484
   71MOL    C9514235   3.762   0.893   5.665 -0.1587  0.2563 -0.2647
   71MOL    C9614236   3.880   0.992   5.670 -0.0692  0.1347 -0.2238
   71MOL    H9714237   3.787   0.745   5.382  0.2968  0.1742  0.2759
   71MOL    H9814238   3.897   0.856   5.438 -0.9723 -0.6290 -1.8755
   71MOL    H9914239   3.682   0.910   5.735 -2.4916 -0.3304 -2.6935
   71MOL   H10014240   3.967   0.926   5.665  0.5965  1.0362 -0.8561
   71MOL   H10114241   3.899   1.064   5.590  1.2465 -0.4341 -0.4350
   71MOL   C10214242   3.851   1.083   5.795 -0.1976 -0.6974  0.4956
   71MOL   C10314243   3.935   1.202   5.809 -0.3787  0.6095 -0.2246
   71MOL  Cl10414244   4.084   1.150   5.886  0.0573  0.0397  0.3142
   71MOL   C10514245   3.913   1.328   5.774 -0.0143 -0.2969  0.5474
   71MOL   C10614246   3.997   1.452   5.793  0.0660  0.1688  0.4190
   71MOL   H10714247   3.748   1.120   5.789 -0.2994 -1.1607 -0.6382
   71MOL   H10814248   3.862   1.022   5.885  1.0752 -0.0037  0.8233
   71MOL   H10914249   3.817   1.349   5.730  0.7810 -2.3174 -2.3120
   71MOL   H11014250   3.931   1.526   5.839  0.4391  0.6215  0.2260
   71MOL   H11114251   4.078   1.439   5.864 -1.6175 -1.5262  2.0975
   71MOL   C11214252   4.056   1.484   5.652 -0.3607 -0.2495  0.1175
   71MOL   C11314253   4.163   1.593   5.667 -0.0777  0.2402  0.0367
   71MOL  Cl11414254   4.108   1.750   5.622 -0.0367  0.2733  0.3164
   71MOL   C11514255   4.294   1.569   5.682 -0.3583  0.4328 -0.3424
   71MOL   C11614256   4.353   1.429   5.699  0.2237  0.1685 -0.2262
   71MOL   H11714257   4.089   1.392   5.605 -2.6662 -0.2145 -1.6999
   71MOL   H11814258   3.972   1.518   5.590 -0.9148  1.9507  2.0091
   71MOL   H11914259   4.363   1.652   5.689 -1.3742  1.1345  1.8133
   71MOL   H12014260   4.377   1.389   5.601 -0.6667 -2.0380  0.4282
   71MOL   H12114261   4.279   1.359   5.738 -0.9697  0.9913 -0.9605
   71MOL   C12214262   4.479   1.427   5.784  0.1737 -0.8414 -0.1956
   71MOL   C12314263   4.511   1.281   5.803 -0.2412  0.4891 -0.1034
   71MOL  Cl12414264   4.432   1.220   5.946  0.3813  0.7721  0.1061
   71MOL   C12514265   4.608   1.203   5.750  0.4593 -0.0143  0.3203
   71MOL   C12614266   4.700   1.243   5.635  0.5874 -0.1557  0.0524
   71MOL   H12714267   4.563   1.473   5.732  0.3370 -1.0678 -0.1342
   71MOL   H12814268   4.468   1.470   5.883  0.9965  0.0109 -0.4716
   71MOL   H12914269   4.614   1.103   5.790  0.0417 -0.2415 -0.1672
   71MOL   H13014270   4.667   1.338   5.592  3.5066  1.2346  0.7643
   71MOL   H13114271   4.804   1.257   5.665 -0.2013  1.4803  2.1244
   71MOL   C13214272   4.691   1.132   5.532 -0.1124  0.0440 -0.2656
   71MOL   C13314273   4.807   1.128   5.445  0.6778  0.1391 -0.1640
   71MOL  Cl13414274   4.799   1.249   5.328  0.0219  0.0523 -0.1515
   71MOL   C13514275   4.905   1.041   5.449  0.0358 -0.2092 -0.3667
   71MOL   C13614276   4.921   0.914   5.527 -0.3535 -0.3530  0.1708
   71MOL   H13714277   4.671   1.035   5.579 -0.7819 -0.0607 -0.7595
   71MOL   H13814278   4.607   1.152   5.466 -0.4945 -0.2876  0.1120
   71MOL   H13914279   4.990   1.056   5.383 -0.4048  1.1453 -0.6337
   71MOL   H14014280   4.858   0.916   5.616 -0.3263  1.5012  0.1524
   71MOL   H14114281   4.876   0.831   5.472 -0.1889 -0.2844 -0.0644
   71MOL   C14214282   5.072   0.889   5.556 -0.0270 -0.4356  0.6060
   71MOL   C14314283   5.108   0.771   5.630  0.2311  0.2210 -0.2304
   71MOL  Cl14414284   5.077   0.640   5.525  0.0216  0.3511  0.0908
   71MOL   C14514285   5.152   0.762   5.760  0.3259  0.2772  0.7157
   71MOL   C14614286   5.161   0.633   5.839 -0.2226 -0.3425  0.0804
   71MOL   H14714287   5.113   0.969   5.617 -1.8040  1.8196 -1.0953
   71MOL   H14814288   5.121   0.881   5.458  0.5160  0.6972  0.7780
   71MOL   H14914289   5.176   0.849   5.819 -1.6356  1.0644  0.4240
   71MOL   H15014290   5.078   0.621   5.910  0.9263 -1.3993  1.2692
   71MOL   H15114291   5.166   0.554   5.764 -1.5939  2.5659 -3.2443
   71MOL   C15214292   5.289   0.639   5.928 -0.4429 -0.5846 -0.1223
   71MOL   C15314293   5.345   0.517   5.985  0.2768 -0.1850 -0.0606
   71MOL  Cl15414294   5.399   0.541   6.146 -0.0522 -0.3182 -0.5356
   71MOL   C15514295   5.354   0.398   5.932 -0.6376 -0.0101 -0.2388
   71MOL   C15614296   5.420   0.268   5.978 -0.6386  0.0395 -0.0385
   71MOL   H15714297   5.369   0.668   5.861 -1.2715 -0.2159 -0.9658
   71MOL   H15814298   5.268   0.704   6.013 -0.9999 -1.0316  0.0839
   71MOL   H15914299   5.308   0.383   5.835  0.0939 -1.1078 -0.4291
   71MOL   H16014300   5.466   0.286   6.075 -0.1717  1.0142 -0.4323
   71MOL   H16114301   5.501   0.233   5.913  2.3996  2.3331  2.3776
   71MOL   C16214302   5.312   0.160   5.998 -0.3261 -0.2245  0.2214
   71MOL   C16314303   5.199   0.192   6.102 -0.0042 -0.0090  0.4634
   71MOL  Cl16414304   5.053   0.120   6.052 -0.2532 -0.3193 -0.0647
   71MOL   C16514305   5.215   0.264   6.212 -0.3686  0.5628 -0.8703
   71MOL   C16614306   5.107   0.299   6.321 -0.1577  0.1952  0.4690
   71MOL   H16714307   5.262   0.147   5.902  0.1664  2.1398 -0.3778
   71MOL   H16814308   5.356   0.063   6.019  0.8994  0.0587 -0.9139
   71MOL   H16914309   5.312   0.309   6.226 -0.2749  0.5449 -1.4275
   71MOL   H17014310   5.015   0.245   6.299  1.0895 -1.8789  0.2096
   71MOL   H17114311   5.152   0.260   6.412  1.2127 -0.0365 -0.2843
   71MOL   C17214312   5.105   0.449   6.351  0.1768 -0.2072 -0.8488
   71MOL   C17314313   5.038   0.493   6.476 -0.0020  0.0777 -0.0951
   71MOL  Cl17414314   5.140   0.588   6.583  0.2829 -0.1923  0.5334
   71MOL   C17514315   4.905   0.462   6.506  0.2835 -0.0504 -0.1992
   71MOL   C17614316   4.836   0.500   6.639 -0.5099 -0.1290  0.1263
   71MOL   H17714317   5.067   0.511   6.269  0.6360  0.0417 -0.8698
   71MOL   H17814318   5.206   0.489   6.354  0.4788 -0.9862 -0.7834
   71MOL   H17914319   4.850   0.410   6.429 -0.1422  2.3972 -1.6242
   71MOL   H18014320   4.785   0.596   6.631  0.9922  0.6487 -0.3315
   71MOL   H18114321   4.914   0.520   6.712 -1.2100  0.6374  0.6663
   71MOL   C18214322   4.752   0.387   6.703  0.5561 -0.1281 -0.1482
   71MOL   C18314323   4.650   0.316   6.614 -0.2114  0.3692  0.4580
   71MOL  Cl18414324   4.649   0.143   6.628 -0.0619 -0.0949 -0.0136
   71MOL   C18514325   4.563   0.386   6.541 -0.8811 -0.0211  1.1890
   71MOL   C18614326   4.453   0.331   6.453 -0.2527 -0.5002  0.2970
   71MOL   H18714327   4.826   0.315   6.737  2.6238  3.0629  2.4032
   71MOL   H18814328   4.701   0.425   6.792  0.5510  1.0716 -0.6441
   71MOL   H18914329   4.565   0.494   6.542 -1.8999  0.0028  0.9700
   71MOL   H19014330   4.412   0.234   6.479 -0.0995 -0.2422  1.5309
   71MOL   H19114331   4.356   0.377   6.472 -1.8873 -4.0361  0.9373
   71MOL   C19214332   4.481   0.349   6.303  0.1344 -0.6798 -0.2491
   71MOL   C19314333   4.538   0.221   6.241 -0.4361 -0.0118  0.0235
   71MOL  Cl19414334   4.710   0.213   6.259 -0.4140 -0.1738 -0.1755
   71MOL   C19514335   4.461   0.112   6.216 -0.1841  0.5947 -0.2808
   71MOL   C19614336   4.312   0.098   6.227 -0.1668 -0.1369 -0.6653
   71MOL   H19714337   4.554   0.431   6.295  2.2513 -2.6142 -1.2983
   71MOL   H19814338   4.398   0.385   6.243  1.3148 -2.1295 -2.8359
   71MOL   H19914339   4.516   0.020   6.197  0.7036  1.4131 -1.8198
   71MOL   H20014340   4.256   0.192   6.215  0.7028  0.7939  2.1943
   71MOL   H20114341   4.271   0.035   6.305 -0.5158  2.3726  1.2465
   71MOL   H20214342   4.288   0.051   6.131 -0.4073 -1.0743 -0.1448
   72MOL     C114343   0.318   2.031   7.370  0.3777 -0.0161 -0.5559
   72MOL     C214344   0.184   2.067   7.307  0.7323  0.1979  0.0556
   72MOL    Cl314345   0.132   1.924   7.218 -0.0741  0.4582  0.5021
   72MOL     C414346   0.113   2.184   7.307  0.8789  0.1806  0.4072
   72MOL     C514347   0.147   2.305   7.386 -1.3192  0.1715 -0.0387
   72MOL     H614348   0.305   2.017   7.477  0.5744 -0.2339 -0.5593
   72MOL     H714349   0.379   2.120   7.354  0.1616  0.2808  0.2707
   72MOL     H814350   0.019   2.193   7.254  0.6764 -1.5518  0.4242
   72MOL     H914351   0.235   2.277   7.443  0.3911  3.0560 -1.1284
   72MOL    H1014352   0.172   2.400   7.338  1.5551  0.0629  1.1765
   72MOL    H1114353   0.364   1.943   7.323 -0.1587  0.1621 -1.4123
   72MOL    C1214354   0.032   2.339   7.477  0.2586  0.1868  0.1081
   72MOL    C1314355   0.062   2.461   7.561  0.0872  0.0587 -0.0538
   72MOL   Cl1414356   8.395   2.600   7.508  0.1879 -0.2200  0.0006
   72MOL    C1514357   0.148   2.466   7.656  0.3754  0.5198  0.0346
   72MOL    C1614358   0.242   2.354   7.707 -0.3798  0.4735 -0.6668
   72MOL    H1714359   8.359   2.359   7.425 -1.4574 -0.6057  2.7393
   72MOL    H1814360   0.008   2.263   7.552 -0.6678  2.0337  1.7502
   72MOL    H1914361   0.163   2.557   7.713  0.7470  0.5142 -0.0581
   72MOL    H2014362   0.235   2.365   7.816 -2.2225  1.5771 -0.8674
   72MOL    H2114363   0.202   2.254   7.693 -0.1490  0.6541 -2.7577
   72MOL    C2214364   0.391   2.362   7.671  0.5299 -0.1821 -0.1574
   72MOL    C2314365   0.469   2.268   7.764 -0.0074 -0.1789  0.1826
   72MOL   Cl2414366   0.561   2.344   7.895  0.4275  0.3387  0.2019
   72MOL    C2514367   0.477   2.136   7.743 -0.3033 -0.0206  0.3117
   72MOL    C2614368   0.560   2.041   7.824 -0.8623 -0.0908 -0.8856
   72MOL    H2714369   0.399   2.327   7.568 -0.9891 -0.1439 -0.2930
   72MOL    H2814370   0.433   2.462   7.682  0.4620 -0.2157  0.4462
   72MOL    H2914371   0.415   2.095   7.665  1.6419 -2.4035 -0.0179
   72MOL    H3014372   0.637   2.006   7.756  1.5062 -2.2618  2.7618
   72MOL    H3114373   0.617   2.089   7.903  0.5219 -2.3328 -0.5035
   72MOL    C3214374   0.461   1.927   7.866 -0.0677 -0.4672 -0.0939
   72MOL    C3314375   0.545   1.822   7.937  0.0657 -0.9080  0.0136
   72MOL   Cl3414376   0.562   1.690   7.827 -0.0600 -0.0730  0.1815
   72MOL    C3514377   0.611   1.838   8.048 -0.1528 -0.2528 -0.3022
   72MOL    C3614378   0.698   1.729   8.113  0.0834  1.2332 -0.0570
   72MOL    H3714379   0.382   1.956   7.935 -1.1479  1.1060 -1.9588
   72MOL    H3814380   0.427   1.886   7.771 -1.4245 -0.6007  0.4472
   72MOL    H3914381   0.608   1.931   8.103  2.0549  0.9189 -2.0821
   72MOL    H4014382   0.666   1.722   8.217  0.9681  0.9474  0.2022
   72MOL    H4114383   0.700   1.636   8.056 -0.4151  1.8255 -1.0525
   72MOL    C4214384   0.844   1.776   8.094  0.2117 -0.3355 -0.5097
   72MOL    C4314385   0.933   1.719   8.202 -0.3584 -0.2425  0.1051
   72MOL   Cl4414386   1.036   1.598   8.146 -0.3635  0.0246  0.4671
   72MOL    C4514387   0.937   1.764   8.334  0.1834  0.2208 -0.0112
   72MOL    C4614388   0.862   1.872   8.406 -0.1107 -0.3250  0.2632
   72MOL    H4714389   0.889   1.737   8.002  0.9687  0.0047 -0.2806
   72MOL    H4814390   0.860   1.883   8.086  0.0855 -0.2662  0.1572
   72MOL    H4914391   1.004   1.722   8.408 -0.9432 -0.7260  0.4722
   72MOL    H5014392   0.805   1.933   8.336 -0.8017 -1.4146 -0.1294
   72MOL    H5114393   0.797   1.822   0.057  0.7325  0.8230  1.8625
   72MOL    C5214394   0.961   1.968   0.055 -0.2879  0.1046 -0.6886
   72MOL    C5314395   0.889   2.099   0.092  0.0494  0.3497 -0.0495
   72MOL   Cl5414396   0.837   2.112   0.257  0.6219 -0.2429  0.0615
   72MOL    C5514397   0.841   2.190   0.007 -0.0189  0.2868  0.1475
   72MOL    C5614398   0.757   2.313   0.040  0.0660  0.0071  0.4737
   72MOL    H5714399   1.016   1.922   0.138 -2.4752 -0.5802  0.4258
   72MOL    H5814400   1.038   1.997   8.405  1.1280 -1.0640  0.3192
   72MOL    H5914401   0.865   2.182   8.322 -1.0408 -1.0519  0.0049
   72MOL    H6014402   0.789   2.376   0.124 -2.5510  0.5215  1.1255
   72MOL    H6114403   0.768   2.398   8.392  0.1095  0.3741  0.9281
   72MOL    C6214404   0.609   2.286   0.064 -0.5836 -0.1741  0.3450
   72MOL    C6314405   0.534   2.261   8.354 -0.5887  0.0449 -0.5217
   72MOL   Cl6414406   0.581   2.355   8.222  0.4233 -0.2089 -0.2056
   72MOL    C6514407   0.445   2.158   8.340 -0.0259 -1.3063 -0.2507
   72MOL    C6614408   0.356   2.132   8.220  0.0830  0.0662 -0.3511
   72MOL    H6714409   0.599   2.204   0.135 -0.5805 -2.0548 -1.7420
   72MOL    H6814410   0.564   2.369   0.117 -0.7097 -1.6133  2.5626
   72MOL    H6914411   0.413   2.103   0.006 -1.3510  0.6461  0.5353
   72MOL    H7014412   0.356   2.024   8.215 -0.2640  0.1039 -1.2231
   72MOL    H7114413   0.405   2.168   8.130  1.3873  1.3859  0.8538
   72MOL    C7214414   0.219   2.181   8.246 -0.1349 -0.7601 -0.4149
   72MOL    C7314415   0.119   2.153   8.138  1.1020  0.3468 -0.0305
   72MOL   Cl7414416   0.089   2.276   8.025 -0.8070 -0.1162 -0.0925
   72MOL    C7514417   0.063   2.031   8.127 -0.6544  0.1106 -0.0795
   72MOL    C7614418   8.393   1.988   8.019  0.8076  0.2615  0.7686
   72MOL    H7714419   0.226   2.288   8.267  1.1805 -1.2748  1.8600
   72MOL    H7814420   0.174   2.129   8.330 -0.6805  0.5907  0.1487
   72MOL    H7914421   0.089   1.955   8.199  3.6168  1.8810  0.3904
   72MOL    H8014422   0.035   1.938   7.945 -1.1276 -0.5417 -0.3951
   72MOL    H8114423   8.346   2.069   7.963  2.7456 -0.0908 -1.4685
   72MOL    C8214424   8.289   1.887   8.070 -0.0322  0.5164 -0.1333
   72MOL    C8314425   8.232   1.785   7.966  0.8426 -0.5770  0.2589
   72MOL   Cl8414426   8.280   1.620   7.982 -0.1232 -0.3547  0.1984
   72MOL    C8514427   8.146   1.830   7.870 -0.2572  0.0199  0.3303
   72MOL    C8614428   8.086   1.735   7.766  0.3519  0.0664 -0.0194
   72MOL    H8714429   8.200   1.926   8.119  0.4422 -0.4986  1.6016
   72MOL    H8814430   8.330   1.821   8.146 -3.1695 -0.7419  0.5609
   72MOL    H8914431   8.116   1.932   7.852  0.3551 -0.1850 -2.0119
   72MOL    H9014432   8.138   1.640   7.766  1.8315  0.8559 -0.1679
   72MOL    H9114433   7.981   1.716   7.792  0.5641 -0.2013  0.6546
   72MOL    C9214434   8.085   1.798   7.621 -0.2034 -0.2958 -0.5371
   72MOL    C9314435   8.210   1.849   7.563  0.1116 -0.0512 -0.6289
   72MOL   Cl9414436   8.222   2.022   7.567  0.0527 -0.1260 -0.0204
   72MOL    C9514437   8.304   1.786   7.496 -0.0890 -0.3508  0.7337
   72MOL    C9614438   8.296   1.636   7.473  0.5579 -0.1861  0.0467
   72MOL    H9714439   8.023   1.889   7.617  1.3333  0.7081 -2.9149
   72MOL    H9814440   8.032   1.747   7.540  0.1261  0.1662 -1.0519
   72MOL    H9914441   8.384   1.841   7.450 -0.2690  0.2616  1.1368
   72MOL   H10014442   8.368   1.598   7.545 -1.1324  0.7962  2.3141
   72MOL   H10114443   8.196   1.597   7.491  1.9206 -4.0806 -0.2859
   72MOL   C10214444   8.330   1.591   7.334 -0.5076 -0.2668 -0.1054
   72MOL   C10314445   8.226   1.633   7.232 -0.1956  0.2691 -0.0686
   72MOL  Cl10414446   8.080   1.538   7.231  0.1173 -0.3885 -0.2802
   72MOL   C10514447   8.251   1.727   7.136  0.1791 -0.1842  0.3840
   72MOL   C10614448   8.148   1.767   7.024  0.3824 -0.4159 -0.5733
   72MOL   H10714449   0.003   1.645   7.321 -1.3075  1.1788 -0.0340
   72MOL   H10814450   8.347   1.484   7.327 -0.9298 -0.2291 -2.0363
   72MOL   H10914451   8.342   1.785   7.142  1.0282 -1.5462  0.9736
   72MOL   H11014452   8.051   1.744   7.068  1.1220 -1.9093  0.3488
   72MOL   H11114453   8.156   1.873   7.004  1.1865  0.2440  2.9876
   72MOL   C11214454   8.180   1.684   6.898 -0.1575 -0.5486 -0.0568
   72MOL   C11314455   8.059   1.670   6.809  0.6245 -0.2992  0.1060
   72MOL  Cl11414456   7.982   1.514   6.830 -0.1597  0.0486 -0.2097
   72MOL   C11514457   8.013   1.757   6.722  0.0542 -0.1197 -0.5762
   72MOL   C11614458   8.071   1.892   6.689 -0.3977 -0.0700  0.5307
   72MOL   H11714459   8.260   1.742   6.853 -0.4586  0.0753  0.1948
   72MOL   H11814460   8.215   1.584   6.924 -3.0942 -1.9490 -1.2456
   72MOL   H11914461   7.920   1.729   6.673  0.8009  0.0838 -2.1394
   72MOL   H12014462   8.063   1.910   6.582 -0.0923  1.3379  0.7402
   72MOL   H12114463   8.178   1.895   6.712 -0.4468  0.4046  0.6908
   72MOL   C12214464   7.997   1.996   6.752 -0.0093  0.3897  0.0825
   72MOL   C12314465   8.050   2.135   6.715 -0.5310  0.6522 -0.1288
   72MOL  Cl12414466   7.951   2.192   6.585 -0.2300  0.0795 -0.1008
   72MOL   C12514467   8.139   2.205   6.786 -2.2999 -0.4376 -1.1451
   72MOL   C12614468   8.217   2.157   6.907 -0.3239  0.3231 -0.3223
   72MOL   H12714469   7.893   1.985   6.722 -0.3901  0.8730  1.2015
   72MOL   H12814470   8.008   1.974   6.858  0.5553  0.2732  0.0013
   72MOL   H12914471   8.162   2.307   6.758  3.3453 -0.9657  0.8249
   72MOL   H13014472   8.173   2.191   7.001  0.3154 -1.5523  0.6870
   72MOL   H13114473   8.213   2.049   6.902 -2.4322  0.3945 -0.5982
   72MOL   C13214474   8.369   2.182   6.915  0.6081  0.5811  0.4028
   72MOL   C13314475   0.017   2.167   6.789 -0.2046  0.5878 -0.1110
   72MOL  Cl13414476   0.023   2.002   6.742  0.1183  0.1200 -0.0433
   72MOL   C13514477   0.089   2.255   6.711  0.3022 -0.1638  0.3329
   72MOL   C13614478   0.115   2.399   6.740  0.5514  0.5638 -0.8055
   72MOL   H13714479   8.389   2.281   6.955 -1.9891  0.6329  1.6877
   72MOL   H13814480   8.414   2.110   6.983  0.5956 -1.5495 -1.7892
   72MOL   H13914481   0.142   2.230   6.620  0.4571  2.0579 -0.2088
   72MOL   H14014482   0.071   2.457   6.659  1.5027 -0.1890 -1.8829
   72MOL   H14114483   0.059   2.427   6.828 -1.6295 -1.0861 -1.6138
   72MOL   C14214484   0.262   2.443   6.745 -0.3296  0.1954  0.5465
   72MOL   C14314485   0.280   2.595   6.747  0.7341 -0.3555  0.8615
   72MOL  Cl14414486   0.294   2.670   6.590 -0.5313  0.3412 -0.2471
   72MOL   C14514487   0.283   2.670   6.859 -0.6717 -0.2073  0.5468
   72MOL   C14614488   0.298   2.820   6.874  0.4283  0.3892  0.5497
   72MOL   H14714489   0.308   2.427   6.648 -1.4140 -0.2514  0.0998
   72MOL   H14814490   0.313   2.392   6.827  0.0485 -0.3223 -0.0087
   72MOL   H14914491   0.281   2.623   6.956  3.2498 -2.1966 -0.2277
   72MOL   H15014492   0.294   2.863   6.774  3.2493  0.3443  0.3599
   72MOL   H15114493   0.221   2.854   6.942  0.7073  1.6813  0.2266
   72MOL   C15214494   0.429   2.843   6.940 -0.5166 -0.4954 -0.5457
   72MOL   C15314495   0.481   2.975   6.892  0.5095 -0.5232 -0.1901
   72MOL  Cl15414496   0.462   3.099   7.013  0.0151  0.1782 -0.1214
   72MOL   C15514497   0.550   3.003   6.775 -0.7977  0.0280  0.5188
   72MOL   C15614498   0.607   3.133   6.730 -0.3276 -0.1408 -0.0497
   72MOL   H15714499   0.419   2.842   7.048 -0.5679  0.9164 -0.5273
   72MOL   H15814500   0.499   2.762   6.919  0.0377 -0.4245  0.9570
   72MOL   H15914501   0.575   2.925   6.704  0.3062 -0.1545  1.1003
   72MOL   H16014502   0.715   3.122   6.730 -0.1951  1.0585  0.6143
   72MOL   H16114503   0.587   3.220   6.793 -1.9316  1.0626 -2.1371
   72MOL   C16214504   0.558   3.168   6.585  0.1293 -0.5087 -0.8610
   72MOL   C16314505   0.660   3.244   6.506 -0.2455  0.5977 -0.3919
   72MOL  Cl16414506   0.579   3.370   6.415  0.5388  0.0507 -0.0759
   72MOL   C16514507   0.789   3.219   6.497  0.6306 -0.0701  0.2006
   72MOL   C16614508   0.881   3.298   6.408  0.1518  0.3772 -0.2196
   72MOL   H16714509   0.544   3.075   6.530 -1.6070 -0.8038  0.0364
   72MOL   H16814510   0.462   3.219   6.584 -0.5227 -1.6152  1.3670
   72MOL   H16914511   0.827   3.134   6.552 -3.2889 -3.2038 -1.6526
   72MOL   H17014512   0.938   3.240   6.336 -2.0113 -1.0431 -0.8613
   72MOL   H17114513   0.822   3.372   6.355 -0.1910  0.5939  0.4540
   72MOL   C17214514   0.982   3.391   6.479  0.2524  0.4359  0.5509
   72MOL   C17314515   1.044   3.491   6.389 -0.0438 -0.2115 -0.4860
   72MOL  Cl17414516   0.948   3.634   6.379 -0.0421  0.2109  0.2743
   72MOL   C17514517   1.160   3.476   6.322  1.2278 -0.2898  0.0272
   72MOL   C17614518   1.224   3.574   6.221  0.2295 -0.5204  0.3948
   72MOL   H17714519   1.058   3.323   6.516 -0.9170 -2.2444 -1.7743
   72MOL   H17814520   0.945   3.437   6.570 -1.1832  1.6095 -0.5825
   72MOL   H17914521   1.208   3.383   6.348 -1.2636 -1.2515  1.4608
   72MOL   H18014522   1.138   3.613   6.166  0.3036 -1.3019 -0.2891
   72MOL   H18114523   1.287   3.512   6.157  1.1570  0.3452  0.4645
   72MOL   C18214524   1.299   3.681   6.296 -0.1758 -0.1873 -0.3280
   72MOL   C18314525   1.422   3.738   6.225 -0.5644  0.5790 -0.3843
   72MOL  Cl18414526   1.384   3.881   6.138  0.3780  0.3267 -0.1060
   72MOL   C18514527   1.545   3.700   6.252  0.4592  0.1401  0.3763
   72MOL   C18614528   1.670   3.777   6.214  0.5454  0.7641 -0.9959
   72MOL   H18714529   1.244   3.773   6.313 -0.5377 -0.5687  0.6004
   72MOL   H18814530   1.333   3.644   6.393 -0.9386 -0.4560 -0.1586
   72MOL   H18914531   1.561   3.608   6.306  1.2116  0.1400  0.1622
   72MOL   H19014532   1.654   3.877   6.174 -2.0222  0.6116 -0.4011
   72MOL   H19114533   1.727   3.797   6.305  0.2396 -0.8720 -0.4324
   72MOL   C19214534   1.745   3.687   6.113 -0.6246  0.1340  0.1365
   72MOL   C19314535   1.882   3.742   6.084 -0.3544 -0.6364 -0.1610
   72MOL  Cl19414536   1.890   3.894   6.007 -0.2250  0.2589  0.0311
   72MOL   C19514537   1.999   3.686   6.120  0.0446  0.0169 -0.2473
   72MOL   C19614538   2.026   3.550   6.182  0.2600  0.5132  0.4278
   72MOL   H19714539   1.685   3.695   6.023 -0.9389  1.6794  0.4739
   72MOL   H19814540   1.747   3.583   6.147 -1.5838 -0.1482 -0.6398
   72MOL   H19914541   2.086   3.746   6.100 -1.7664  2.7204 -0.3307
   72MOL   H20014542   1.952   3.470   6.178 -1.2942  1.7870  2.5930
   72MOL   H20114543   2.037   3.554   6.290 -3.1790 -0.5512  0.8670
   72MOL   H20214544   2.119   3.511   6.141 -1.0845 -2.2080 -0.1532
   73MOL     C114545   0.014   4.666   7.245  0.5996 -0.2013  0.6050
   73MOL     C214546   0.117   4.554   7.255  0.3223  0.1593  0.1747
   73MOL    Cl314547   0.138   4.522   7.429  0.6152 -0.1937 -0.2943
   73MOL     C414548   0.181   4.497   7.156  0.1264 -0.8752 -0.5247
   73MOL     C514549   0.167   4.529   7.007 -0.5849 -0.1829  0.0411
   73MOL     H614550   0.073   4.756   7.227 -1.0324  0.4542 -1.6507
   73MOL     H714551   8.384   4.669   7.342  1.0033  0.7017  0.7969
   73MOL     H814552   0.254   4.418   7.169  1.6370  0.3565 -1.4231
   73MOL     H914553   0.126   4.449   6.945  1.5359  0.7159 -2.6216
   73MOL    H1014554   0.094   4.610   7.004  1.3712  1.6642  1.0260
   73MOL    H1114555   8.363   4.647   7.166  1.3244  0.7169 -0.2844
   73MOL    C1214556   0.300   4.583   6.943  0.5262 -0.4258  0.0671
   73MOL    C1314557   0.275   4.630   6.798 -0.4006  0.2512 -0.0457
   73MOL   Cl1414558   0.334   4.515   6.688 -0.0232  0.4101  0.1336
   73MOL    C1514559   0.205   4.735   6.751  0.0684  0.0125  0.8760
   73MOL    C1614560   0.123   4.835   6.827 -0.0491  0.0082  0.1174
   73MOL    H1714561   0.334   4.671   6.996  2.3570  0.0660 -1.8551
   73MOL    H1814562   0.378   4.507   6.952  2.7425  1.8991  1.1152
   73MOL    H1914563   0.203   4.742   6.644 -0.9014 -2.3609  0.7066
   73MOL    H2014564   0.138   4.832   6.935 -1.0012 -0.4987  0.2399
   73MOL    H2114565   0.173   4.926   6.795  0.5650 -0.3132  0.1345
   73MOL    C2214566   8.397   4.825   6.790  0.1364  0.4756  0.0520
   73MOL    C2314567   8.318   4.927   6.854 -0.4054  0.0926  0.1217
   73MOL   Cl2414568   8.289   4.909   7.020 -0.1166  0.6295  0.5914
   73MOL    C2514569   8.268   5.036   6.789 -1.0751  0.6412 -0.2047
   73MOL    C2614570   8.199   5.157   6.842 -0.4408 -0.0542 -0.4595
   73MOL    H2714571   8.378   4.834   6.684 -0.5865  0.4143  0.1775
   73MOL    H2814572   8.348   4.729   6.802  1.4650 -0.1795  0.3192
   73MOL    H2914573   8.275   5.031   6.681 -3.2316  0.3477 -0.3643
   73MOL    H3014574   8.112   5.183   6.782 -0.2560  1.2891 -0.1732
   73MOL    H3114575   8.159   5.137   6.941  1.4018 -0.0305  0.3084
   73MOL    C3214576   8.300   5.275   6.851 -0.3809 -0.1791 -0.6364
   73MOL    C3314577   8.413   5.242   6.950 -0.5466  0.4476 -1.3714
   73MOL   Cl3414578   0.136   5.213   6.859  0.2803  0.1737 -0.1464
   73MOL    C3514579   8.396   5.233   7.080  0.4724 -0.1817  0.8215
   73MOL    C3614580   0.087   5.203   7.178  0.5430 -0.0445 -0.8553
   73MOL    H3714581   8.360   5.299   6.763  0.8820 -1.0734 -0.0521
   73MOL    H3814582   8.267   5.374   6.882 -1.3479 -1.8116  4.0055
   73MOL    H3914583   8.296   5.237   7.121  0.3893 -0.2465  0.6223
   73MOL    H4014584   0.177   5.238   7.128  2.3180 -0.6845  1.7733
   73MOL    H4114585   0.087   5.268   7.266  1.4164 -2.4247  0.9694
   73MOL    C4214586   0.095   5.053   7.211  0.4043  0.9089 -0.0946
   73MOL    C4314587   0.196   5.023   7.325 -0.1046  0.0435 -0.4510
   73MOL   Cl4414588   0.135   5.062   7.483  0.1931 -0.1039  0.2229
   73MOL    C4514589   0.317   4.964   7.310  0.0760 -0.3383 -0.7491
   73MOL    C4614590   0.388   4.925   7.183 -0.1761  0.0895 -0.3286
   73MOL    H4714591   8.419   5.018   7.248  0.3118  1.6202  0.3623
   73MOL    H4814592   0.113   4.999   7.119 -0.9264  0.2527  0.0216
   73MOL    H4914593   0.360   4.940   7.406 -3.7025 -1.2829  0.8125
   73MOL    H5014594   0.405   4.820   7.203  2.4531  0.8178  1.6033
   73MOL    H5114595   0.323   4.923   7.095 -0.9094 -1.6468  0.2333
   73MOL    C5214596   0.511   5.010   7.155  0.5691  0.0512  0.1414
   73MOL    C5314597   0.574   4.987   7.024  0.2674  0.4570 -0.0412
   73MOL   Cl5414598   0.525   5.096   6.898 -0.0910  0.2649  0.0293
   73MOL    C5514599   0.646   4.882   6.992  0.2165  0.5327 -0.4086
   73MOL    C5614600   0.717   4.845   6.860  0.1744 -0.6758 -0.5798
   73MOL    H5714601   0.502   5.119   7.159  1.3870  0.1827 -1.2561
   73MOL    H5814602   0.588   4.986   7.229 -0.3628  0.5610  1.2898
   73MOL    H5914603   0.662   4.809   7.071  1.4799 -0.6364 -1.7242
   73MOL    H6014604   0.748   4.934   6.805 -1.5236 -0.0531 -0.5497
   73MOL    H6114605   0.816   4.800   6.876 -0.4024 -1.3689  1.2074
   73MOL    C6214606   0.644   4.742   6.776 -0.0254 -0.0309 -1.2257
   73MOL    C6314607   0.737   4.663   6.686  0.2339 -0.0342  0.2746
   73MOL   Cl6414608   0.756   4.499   6.727 -0.0386 -0.3859  0.1966
   73MOL    C6514609   0.805   4.719   6.588  0.6740 -0.3387 -0.1067
   73MOL    C6614610   0.897   4.656   6.485  0.1319  0.1095  0.3367
   73MOL    H6714611   0.588   4.675   6.841 -0.5066  1.7041  0.1662
   73MOL    H6814612   0.564   4.794   6.724 -0.7229 -1.2871 -1.4113
   73MOL    H6914613   0.783   4.823   6.568  1.8561 -0.2841 -1.1943
   73MOL    H7014614   0.938   4.563   6.525 -0.2550 -0.1054  0.2337
   73MOL    H7114615   0.987   4.714   6.468  0.8715 -0.5333  1.8925
   73MOL    C7214616   0.814   4.643   6.358 -0.3963 -0.1858  0.6970
   73MOL    C7314617   0.881   4.554   6.245 -1.1745 -0.8785  0.7488
   73MOL   Cl7414618   0.762   4.467   6.152  0.1496  0.2153  0.1848
   73MOL    C7514619   1.013   4.548   6.224 -0.0996  0.3373  0.0283
   73MOL    C7614620   1.075   4.476   6.104 -0.0196  0.3127 -0.2978
   73MOL    H7714621   0.775   4.740   6.326 -2.9765 -1.6670 -0.8348
   73MOL    H7814622   0.728   4.583   6.390  0.6470 -3.4721 -2.2629
   73MOL    H7914623   1.071   4.610   6.291  0.0584 -1.1442  1.2953
   73MOL    H8014624   0.999   4.437   6.037  2.9514 -2.3895 -2.2736
   73MOL    H8114625   1.145   4.401   6.142 -0.1732  1.1103  1.6421
   73MOL    C8214626   1.158   4.579   6.025  0.3959  0.3996 -0.4854
   73MOL    C8314627   1.260   4.512   5.926  0.1379 -0.3050 -0.1794
   73MOL   Cl8414628   1.343   4.639   5.849 -0.4214  0.1118  0.1841
   73MOL    C8514629   1.264   4.384   5.881 -0.7097 -0.2954  0.1456
   73MOL    C8614630   1.359   4.323   5.767 -0.0305 -0.6321 -1.3861
   73MOL    H8714631   1.218   4.650   6.082  1.9847 -0.2018 -1.3836
   73MOL    H8814632   1.083   4.637   5.970  1.1337  0.2128 -1.7159
   73MOL    H8914633   1.192   4.315   5.922 -0.6173  0.2705  1.2926
   73MOL    H9014634   1.450   4.380   5.785 -0.9243  0.4848 -0.3816
   73MOL    H9114635   1.378   4.220   5.796 -1.6644 -0.2575  1.1131
   73MOL    C9214636   1.285   4.342   5.634 -0.5098  0.1088 -0.7834
   73MOL    C9314637   1.372   4.302   5.519  0.0567  0.1211 -0.1975
   73MOL   Cl9414638   1.434   4.436   5.442 -0.0763 -0.2669  0.0358
   73MOL    C9514639   1.387   4.180   5.467 -0.4851 -0.1283 -0.0669
   73MOL    C9614640   1.330   4.049   5.520  0.3029  0.2276 -0.0237
   73MOL    H9714641   1.263   4.448   5.624  2.3357  0.8313  0.2591
   73MOL    H9814642   1.189   4.290   5.628 -0.6296  0.4086 -1.4636
   73MOL    H9914643   1.455   4.172   5.384  0.5231  1.0229  0.6326
   73MOL   H10014644   1.248   4.067   5.590 -0.2671 -1.5652 -0.2072
   73MOL   H10114645   1.282   3.988   5.443 -1.4915  2.1936 -0.5164
   73MOL   C10214646   1.435   3.962   5.591 -0.2110 -0.3877  0.3058
   73MOL   C10314647   1.386   3.817   5.610  0.2793 -0.1114 -0.3026
   73MOL  Cl10414648   1.425   3.706   5.481  0.0354 -0.1593 -0.1066
   73MOL   C10514649   1.319   3.770   5.714 -0.0781  0.3967  0.1961
   73MOL   C10614650   1.270   3.627   5.740 -0.2071  0.3249  0.3495
   73MOL   H10714651   1.528   3.948   5.536  0.7492  1.1309  1.4907
   73MOL   H10814652   1.466   4.011   5.683  1.4085  1.0799 -0.9884
   73MOL   H10914653   1.291   3.844   5.788 -1.4403  1.5020 -1.3640
   73MOL   H11014654   1.167   3.614   5.772 -0.3922 -2.4065 -1.2011
   73MOL   H11114655   1.265   3.573   5.646  2.6817  1.7878 -0.7241
   73MOL   C11214656   1.366   3.567   5.842  0.5206  0.4648  0.1084
   73MOL   C11314657   1.354   3.420   5.871 -0.5450  0.2812  0.3674
   73MOL  Cl11414658   1.232   3.335   5.792 -0.0201 -0.1704  0.1071
   73MOL   C11514659   1.420   3.348   5.963 -0.1635  0.5368  0.3504
   73MOL   C11614660   1.540   3.383   6.045 -0.7585 -0.0291 -0.2748
   73MOL   H11714661   1.469   3.584   5.811 -0.0160  0.5516 -1.6870
   73MOL   H11814662   1.357   3.619   5.938 -1.4686 -2.5923  1.6504
   73MOL   H11914663   1.389   3.245   5.969  1.4297  0.0336  0.2232
   73MOL   H12014664   1.505   3.401   6.147 -0.5663 -0.3546 -0.1544
   73MOL   H12114665   1.564   3.482   6.005  0.3084 -0.3874 -0.5219
   73MOL   C12214666   1.666   3.290   6.033 -0.1511 -0.6546 -0.5376
   73MOL   C12314667   1.648   3.144   6.058  0.0904  0.4158  0.3960
   73MOL  Cl12414668   1.624   3.052   5.914  0.1372 -0.3510 -0.1826
   73MOL   C12514669   1.644   3.079   6.176  0.0407  0.4930  1.2331
   73MOL   C12614670   1.676   3.142   6.308 -0.0564  0.4088  0.1915
   73MOL   H12714671   1.697   3.298   5.928  0.8803 -0.8948 -0.2589
   73MOL   H12814672   1.754   3.326   6.086 -0.4176  0.8147 -1.0736
   73MOL   H12914673   1.630   2.972   6.179 -1.9989  0.6437 -0.7004
   73MOL   H13014674   1.780   3.119   6.333 -0.3880 -0.7321  0.5707
   73MOL   H13114675   1.651   3.247   6.297 -1.3631  0.0672 -0.2205
   73MOL   C13214676   1.588   3.097   6.425  0.4327 -0.2749 -0.3201
   73MOL   C13314677   1.577   3.210   6.526 -0.9696  0.0718  0.2296
   73MOL  Cl13414678   1.463   3.332   6.468  0.1705  0.1208 -0.0729
   73MOL   C13514679   1.639   3.219   6.644  0.1357 -0.0030 -0.0699
   73MOL   C13614680   1.742   3.119   6.699  0.5528  0.1590 -0.3195
   73MOL   H13714681   1.488   3.067   6.393  0.5882 -0.2393 -0.8387
   73MOL   H13814682   1.623   3.004   6.471 -0.2050  0.0523  0.8393
   73MOL   H13914683   1.607   3.304   6.704  1.8937  0.0987  0.7598
   73MOL   H14014684   1.774   3.055   6.617  0.5373 -0.0521 -0.1593
   73MOL   H14114685   1.826   3.175   6.740  1.0125  0.3789 -1.5262
   73MOL   C14214686   1.699   3.020   6.802 -0.4599  0.2272  0.3349
   73MOL   C14314687   1.811   2.928   6.852  0.4720  0.3607  0.3302
   73MOL  Cl14414688   1.842   2.804   6.745 -0.1874  0.5544 -0.0083
   73MOL   C14514689   1.875   2.949   6.969 -0.3815  0.1342  0.3803
   73MOL   C14614690   1.996   2.865   7.023  0.1703  0.0284  0.4564
   73MOL   H14714691   1.621   2.955   6.763 -0.2962  0.9418 -1.2697
   73MOL   H14814692   1.666   3.059   6.898 -2.3933  0.0614 -0.2399
   73MOL   H14914693   1.846   3.033   7.029  0.6642 -1.8698  3.8247
   73MOL   H15014694   2.049   2.832   6.934 -0.5521  0.7608 -0.2471
   73MOL   H15114695   2.064   2.932   7.077 -2.3661  1.5194  1.8873
   73MOL   C15214696   1.952   2.755   7.112 -0.4966 -0.3333 -0.6449
   73MOL   C15314697   2.072   2.665   7.150 -0.8528  0.6019  0.0565
   73MOL  Cl15414698   2.175   2.737   7.265  0.0204  0.1116 -0.0209
   73MOL   C15514699   2.099   2.545   7.090  0.7518  0.5118  0.5783
   73MOL   C15614700   2.218   2.462   7.108 -0.1982 -0.6455  0.3658
   73MOL   H15714701   1.906   2.780   7.208  1.2906 -0.3390  0.2155
   73MOL   H15814702   1.866   2.694   7.082 -0.2320 -1.5715  1.0703
   73MOL   H15914703   2.026   2.502   7.024  1.8029 -1.4737  0.6840
   73MOL   H16014704   2.182   2.375   7.164  1.7372  0.9805  4.3929
   73MOL   H16114705   2.292   2.504   7.176 -1.2882  1.6771  0.1797
   73MOL   C16214706   2.271   2.415   6.972  0.0855 -0.3577  0.2341
   73MOL   C16314707   2.371   2.298   6.991 -0.1052  0.4368  0.2642
   73MOL  Cl16414708   2.523   2.355   7.057 -0.2098 -0.3929  0.5742
   73MOL   C16514709   2.358   2.167   6.963  0.3886  0.0795 -0.1767
   73MOL   C16614710   2.458   2.060   6.985  0.0766  0.1704  0.0077
   73MOL   H16714711   2.188   2.379   6.911  0.3687 -1.0989  0.2737
   73MOL   H16814712   2.320   2.495   6.918 -0.4504  0.4079  0.8704
   73MOL   H16914713   2.265   2.143   6.915  0.1921  2.2320 -0.9695
   73MOL   H17014714   2.515   2.077   7.077 -1.4733 -0.7570  1.1689
   73MOL   H17114715   2.392   1.976   7.007  0.4808 -0.0059  0.5939
   73MOL   C17214716   2.543   2.038   6.853 -0.2006  0.5818  0.2190
   73MOL   C17314717   2.652   1.929   6.851 -0.5801 -0.7577 -0.1489
   73MOL  Cl17414718   2.658   1.849   6.692 -0.0438 -0.3308 -0.1228
   73MOL   C17514719   2.731   1.875   6.947  0.6215 -0.5091  0.2765
   73MOL   C17614720   2.835   1.765   6.941 -0.1009 -0.0136 -0.2901
   73MOL   H17714721   2.603   2.127   6.832  0.7097  0.1595  0.9987
   73MOL   H17814722   2.482   2.025   6.764 -0.6741 -1.1166  0.7822
   73MOL   H17914723   2.715   1.908   7.049  0.9086  1.3387 -0.2676
   73MOL   H18014724   2.907   1.794   7.017 -0.7110  0.9295 -0.0695
   73MOL   H18114725   2.888   1.752   6.847  0.8999  0.7204  0.1735
   73MOL   C18214726   2.773   1.632   6.980 -0.7755  0.4058 -0.2395
   73MOL   C18314727   2.865   1.511   6.970  0.3961  0.4838  0.9444
   73MOL  Cl18414728   2.850   1.426   6.812  0.4833  0.0753  0.0225
   73MOL   C18514729   2.951   1.476   7.069  0.8643 -0.2518  0.1424
   73MOL   C18614730   3.047   1.359   7.066 -0.1271  0.2439 -0.2514
   73MOL   H18714731   2.740   1.643   7.084 -0.0480  0.2666  0.0090
   73MOL   H18814732   2.685   1.609   6.920 -2.6306  2.6537  1.5313
   73MOL   H18914733   2.954   1.539   7.156  0.2103 -0.5325  0.3711
   73MOL   H19014734   3.001   1.283   7.004 -1.6041  0.1963  0.8784
   73MOL   H19114735   3.146   1.382   7.025  0.2956  1.4063  1.3646
   73MOL   C19214736   3.071   1.301   7.204 -1.0653  0.6256 -0.0248
   73MOL   C19314737   3.172   1.189   7.200  0.0402  0.0858 -0.8683
   73MOL  Cl19414738   3.109   1.030   7.213  0.4669 -0.1205  0.1954
   73MOL   C19514739   3.304   1.202   7.192  0.6481  0.8798  0.1758
   73MOL   C19614740   3.381   1.331   7.177 -0.6627  0.3971  0.4771
   73MOL   H19714741   2.977   1.260   7.243 -1.7823  1.8187 -0.4815
   73MOL   H19814742   3.099   1.380   7.274  0.5767 -0.5778  0.7106
   73MOL   H19914743   3.359   1.109   7.194  1.6642  1.4916  0.6143
   73MOL   H20014744   3.320   1.420   7.189  2.6402  2.6713  1.0175
   73MOL   H20114745   3.424   1.339   7.077 -0.2565  1.2312  0.7184
   73MOL   H20214746   3.466   1.323   7.244 -0.3286 -1.1440 -0.1045
   74MOL     C114747   3.549   5.829   0.932  0.3407  0.2060 -0.5983
   74MOL     C214748   3.588   5.960   1.001  0.4010  0.9943  0.7502
   74MOL    Cl314749   3.720   6.023   0.915  0.0234 -0.0479  0.1840
   74MOL     C414750   3.531   6.023   1.106 -0.1071 -0.3475 -0.0477
   74MOL     C514751   3.400   5.967   1.166 -0.0351  0.3058 -0.5549
   74MOL     H614752   3.640   5.771   0.912 -0.4522 -0.0757 -3.6786
   74MOL     H714753   3.490   5.835   0.840  0.5706 -1.2931 -0.8623
   74MOL     H814754   3.571   6.115   1.144  0.5981 -0.0747 -1.4184
   74MOL     H914755   3.384   5.868   1.123 -1.3218  1.2513 -2.3067
   74MOL    H1014756   3.418   5.964   1.274 -0.4836 -1.5560 -0.5237
   74MOL    H1114757   3.503   5.761   1.002 -2.2238  0.0734 -2.3276
   74MOL    C1214758   3.285   6.060   1.124 -0.2090 -0.3040  0.1933
   74MOL    C1314759   3.152   6.016   1.195  0.7189 -0.6445  0.4077
   74MOL   Cl1414760   3.051   5.941   1.078  0.1967  0.1854 -0.0534
   74MOL    C1514761   3.115   6.045   1.324 -0.4488  0.2457  0.1514
   74MOL    C1614762   3.204   6.122   1.419  0.3397 -0.1488 -0.5521
   74MOL    H1714763   3.310   6.164   1.148  0.5487 -0.3341 -0.4455
   74MOL    H1814764   3.271   6.056   1.016  0.7154 -0.2715  0.0679
   74MOL    H1914765   3.019   6.011   1.361 -0.2913 -1.1196 -0.6689
   74MOL    H2014766   3.255   6.053   1.487 -1.0903 -2.8423 -2.1010
   74MOL    H2114767   3.277   6.176   1.358  0.5329 -0.5493 -0.6788
   74MOL    C2214768   3.130   6.219   1.512  0.5332  0.4737 -0.1807
   74MOL    C2314769   3.225   6.301   1.594  0.2953 -0.0665 -0.3308
   74MOL   Cl2414770   3.214   6.463   1.556 -0.1947  0.3112 -0.0555
   74MOL    C2514771   3.284   6.257   1.706 -0.1486 -0.4799 -0.2755
   74MOL    C2614772   3.361   6.358   1.793  0.2530  0.0661 -0.6413
   74MOL    H2714773   3.068   6.286   1.453  0.0303 -0.9685 -1.3348
   74MOL    H2814774   3.058   6.167   1.576 -0.1157  0.0600 -1.2182
   74MOL    H2914775   3.274   6.153   1.735 -0.4129 -0.4515 -0.2689
   74MOL    H3014776   3.397   6.444   1.737  1.2157  0.5131  0.6452
   74MOL    H3114777   3.294   6.391   1.872  1.1340 -2.0498  1.0429
   74MOL    C3214778   3.480   6.308   1.873 -0.0387 -0.7358 -0.3772
   74MOL    C3314779   3.524   6.405   1.981 -0.7630 -0.2237 -0.3869
   74MOL   Cl3414780   3.407   6.398   2.110 -0.0457 -0.1671 -0.4136
   74MOL    C3514781   3.651   6.463   1.993  0.4444  0.2815  0.0450
   74MOL    C3614782   3.690   6.545   2.118 -0.5414 -0.1378  0.1022
   74MOL    H3714783   3.447   6.214   1.918  1.0045 -0.6448  0.5819
   74MOL    H3814784   3.563   6.293   1.804  0.4771  1.0248 -0.1760
   74MOL    H3914785   3.727   6.453   1.917 -0.0684 -0.3129 -0.3957
   74MOL    H4014786   3.784   6.601   2.112 -1.1567  0.7833 -1.0257
   74MOL    H4114787   3.621   6.618   2.161  0.1835 -0.7006  2.3157
   74MOL    C4214788   3.714   6.446   2.241 -0.3289  0.6554  0.4164
   74MOL    C4314789   3.747   6.516   2.374 -0.3103  0.3427  0.5348
   74MOL   Cl4414790   3.594   6.557   2.447 -0.6945 -0.0107  0.3780
   74MOL    C4514791   3.870   6.536   2.427  0.1594 -0.1247  0.3443
   74MOL    C4614792   3.993   6.489   2.347 -0.0619 -0.5822  0.4101
   74MOL    H4714793   3.624   6.386   2.255 -1.2466  1.5208 -1.5994
   74MOL    H4814794   3.790   6.378   2.203 -1.6894  0.9568 -3.0288
   74MOL    H4914795   3.893   6.589   2.518  1.5190  0.2657 -0.2177
   74MOL    H5014796   4.004   6.389   2.388 -3.3901 -0.4161  1.9071
   74MOL    H5114797   3.991   6.477   2.238  0.8559  1.2239  0.1742
   74MOL    C5214798   4.109   6.578   2.391 -0.2044 -0.5760 -0.5618
   74MOL    C5314799   4.239   6.507   2.361  0.0983 -0.6537  0.0431
   74MOL   Cl5414800   4.304   6.444   2.512  0.1680  0.0183  0.1874
   74MOL    C5514801   4.298   6.500   2.240 -0.0802  0.5070  0.1722
   74MOL    C5614802   4.429   6.433   2.202 -0.5405 -0.2325  0.2493
   74MOL    H5714803   4.107   6.677   2.345 -3.4897 -0.6380 -0.6543
   74MOL    H5814804   4.100   6.588   2.499  0.1573 -1.2298 -0.4658
   74MOL    H5914805   4.258   6.553   2.155 -0.3639 -0.3084 -0.2058
   74MOL    H6014806   4.473   6.513   2.141  1.3515 -0.6644  1.0190
   74MOL    H6114807   4.494   6.421   2.289 -2.3375 -1.3122  1.4676
   74MOL    C6214808   4.406   6.298   2.143 -0.1000 -0.1354  0.3196
   74MOL    C6314809   4.324   6.312   2.018  0.5372 -0.2659  0.9134
   74MOL   Cl6414810   4.159   6.286   2.057  0.0490  0.0704 -0.2302
   74MOL    C6514811   4.378   6.309   1.893 -0.1861 -0.1574 -0.1137
   74MOL    C6614812   4.314   6.311   1.754  0.5343 -0.2626  0.1755
   74MOL    H6714813   4.501   6.257   2.109  0.1545 -1.3985  2.4298
   74MOL    H6814814   4.356   6.241   2.221 -0.4836 -0.0338  0.1482
   74MOL    H6914815   4.485   6.303   1.877  0.0663  0.7050  1.1653
   74MOL    H7014816   4.353   6.403   1.710 -0.3970  0.9655  1.8453
   74MOL    H7114817   4.205   6.312   1.767  0.5020 -1.3670  0.0594
   74MOL    C7214818   4.358   6.200   1.654 -0.3720 -0.0429  0.3507
   74MOL    C7314819   4.323   6.235   1.509  0.0763 -0.0699  0.0974
   74MOL   Cl7414820   4.442   6.341   1.452  0.3721 -0.2440 -0.4475
   74MOL    C7514821   4.206   6.211   1.443 -0.1570 -0.1893 -0.4124
   74MOL    C7614822   4.163   6.264   1.305  0.4924 -0.1205  0.1921
   74MOL    H7714823   4.301   6.111   1.678 -1.0381 -0.0847 -1.3433
   74MOL    H7814824   4.464   6.180   1.671  0.4472  0.9849 -3.1011
   74MOL    H7914825   4.138   6.147   1.496 -1.5074  2.3562  0.9887
   74MOL    H8014826   4.180   6.190   1.226  1.1815  0.3377 -0.0949
   74MOL    H8114827   4.232   6.344   1.277  0.8723  0.6503  3.2038
   74MOL    C8214828   4.022   6.319   1.289  0.8486 -0.0007 -0.1552
   74MOL    C8314829   3.911   6.220   1.321 -0.1528 -1.1525  0.3247
   74MOL   Cl8414830   3.905   6.088   1.206 -0.4767 -0.0533  0.2286
   74MOL    C8514831   3.834   6.240   1.423  0.7288 -0.4335  0.4609
   74MOL    C8614832   3.727   6.144   1.462 -0.5127  0.2059 -0.0715
   74MOL    H8714833   4.006   6.353   1.187 -3.6887 -2.8900 -0.5265
   74MOL    H8814834   4.010   6.405   1.355 -0.7572 -1.5440  1.6324
   74MOL    H8914835   3.838   6.326   1.489 -1.3304  1.2009 -1.4815
   74MOL    H9014836   3.638   6.200   1.489  0.0988 -0.2268  3.1191
   74MOL    H9114837   3.712   6.074   1.380 -0.9049  1.8262 -1.3936
   74MOL    C9214838   3.756   6.066   1.589 -0.0809 -0.1957 -0.2647
   74MOL    C9314839   3.670   5.945   1.625  0.3512  0.2830 -0.4064
   74MOL   Cl9414840   3.569   5.976   1.758 -0.2736 -0.1573 -0.2201
   74MOL    C9514841   3.664   5.826   1.565 -0.0104 -0.5051  0.1559
   74MOL    C9614842   3.753   5.773   1.443 -0.3450 -0.4248  0.7536
   74MOL    H9714843   3.768   6.132   1.676  0.6544  0.9998 -1.2554
   74MOL    H9814844   3.859   6.033   1.581  0.0145  0.2656 -0.9353
   74MOL    H9914845   3.594   5.750   1.599 -1.1441  0.2434 -0.4810
   74MOL   H10014846   3.813   5.860   1.414 -0.4337 -0.2839  0.9897
   74MOL   H10114847   3.812   5.690   1.483  0.4169 -0.6158 -0.7394
   74MOL   C10214848   3.664   5.731   1.320 -0.2326 -0.2088  0.1095
   74MOL   C10314849   3.755   5.653   1.226 -0.0953  0.3232  0.5926
   74MOL  Cl10414850   3.749   5.486   1.271  0.1294 -0.3260 -0.1796
   74MOL   C10514851   3.828   5.713   1.124 -0.3205  0.4014 -0.2161
   74MOL   C10614852   3.924   5.662   1.019 -0.2178  0.5058  0.5400
   74MOL   H10714853   3.587   5.663   1.357 -0.6812 -0.1515 -0.7001
   74MOL   H10814854   3.623   5.816   1.265  2.0051  0.4385 -0.5989
   74MOL   H10914855   3.819   5.821   1.118 -0.6036  0.4076  0.2996
   74MOL   H11014856   4.010   5.723   1.044  0.4109 -0.4503  0.7447
   74MOL   H11114857   3.941   5.556   1.041 -2.3190  0.0438  0.0687
   74MOL   C11214858   3.877   5.683   0.876  0.3464 -0.6146  0.7280
   74MOL   C11314859   3.964   5.615   0.768 -0.0492 -0.0461 -0.0581
   74MOL  Cl11414860   3.900   5.457   0.731  0.0811  0.3002  0.0092
   74MOL   C11514861   4.085   5.650   0.722  0.4611  0.2995  0.1037
   74MOL   C11614862   4.166   5.778   0.754  0.0986 -0.2644 -0.5209
   74MOL   H11714863   3.780   5.635   0.872  0.4558 -0.7517 -0.6471
   74MOL   H11814864   3.867   5.789   0.851  0.7272 -1.2711 -2.4465
   74MOL   H11914865   4.118   5.576   0.651 -0.2129 -0.7810  0.8817
   74MOL   H12014866   4.102   5.858   0.790  1.6981  0.3903  0.8856
   74MOL   H12114867   4.208   5.827   0.666 -0.5871  1.0177 -0.1482
   74MOL   C12214868   4.283   5.742   0.849  0.3222 -0.1965  0.6719
   74MOL   C12314869   4.347   5.869   0.907 -0.0860  0.7542 -0.4568
   74MOL  Cl12414870   4.301   5.895   1.073 -0.5940  0.1945 -0.0594
   74MOL   C12514871   4.435   5.957   0.863 -0.4127 -0.3046  0.6784
   74MOL   C12614872   4.498   5.952   0.730 -0.6503 -1.0152  0.4106
   74MOL   H12714873   4.248   5.666   0.919  1.7500 -1.7781 -0.3019
   74MOL   H12814874   4.355   5.680   0.796 -0.3705 -1.6488  1.3942
   74MOL   H12914875   4.457   6.040   0.928 -0.8966 -0.5707  1.1906
   74MOL   H13014876   4.464   5.863   0.676 -2.5918 -0.2020  0.2457
   74MOL   H13114877   4.463   6.038   0.672  0.2001 -0.7549  0.2726
   74MOL   C13214878   4.646   5.952   0.753 -0.0931  0.1121  0.3520
   74MOL   C13314879   4.734   5.955   0.637 -0.3130 -0.0332  0.4238
   74MOL  Cl13414880   4.665   5.965   0.480  0.5233 -0.2907 -0.2090
   74MOL   C13514881   4.866   5.919   0.648 -0.3784 -0.2773  0.0175
   74MOL   C13614882   4.945   5.891   0.779  0.0379 -0.3280  0.1767
   74MOL   H13714883   4.671   6.042   0.810  0.2350  0.6569 -0.6300
   74MOL   H13814884   4.667   5.865   0.816 -1.1694  0.4098  1.1383
   74MOL   H13914885   4.921   5.891   0.560 -1.2047 -0.6414 -0.3864
   74MOL   H14014886   5.049   5.923   0.772  0.6148 -1.9844  0.9963
   74MOL   H14114887   4.904   5.951   0.861 -1.0248  0.0622 -0.6209
   74MOL   C14214888   4.938   5.745   0.823  0.2559 -0.3695  0.3181
   74MOL   C14314889   5.000   5.639   0.728 -0.2986  0.1396  0.2736
   74MOL  Cl14414890   4.925   5.479   0.744 -0.0568 -0.0636  0.1215
   74MOL   C14514891   5.093   5.668   0.635 -0.4144  0.3866 -0.8588
   74MOL   C14614892   5.159   5.565   0.539  0.2446  0.2694 -0.4101
   74MOL   H14714893   4.834   5.716   0.832 -0.9503  2.7447 -2.4845
   74MOL   H14814894   4.994   5.735   0.916  2.0944 -0.6751 -0.7942
   74MOL   H14914895   5.135   5.767   0.622  0.3558  0.2603  0.5175
   74MOL   H15014896   5.101   5.473   0.535  1.1216 -0.4125  1.8079
   74MOL   H15114897   5.155   5.609   0.440 -2.5171  0.1854 -0.3725
   74MOL   C15214898   5.300   5.532   0.575 -0.3604 -0.0825  0.0980
   74MOL   C15314899   5.317   5.447   0.694  0.6294  0.0269  0.2002
   74MOL  Cl15414900   5.431   5.527   0.802 -0.3255 -0.1858 -0.0454
   74MOL   C15514901   5.250   5.332   0.724 -0.6478  0.1890  0.3086
   74MOL   C15614902   5.284   5.248   0.844  0.4618  0.1131  0.0815
   74MOL   H15714903   5.353   5.484   0.493 -0.9177 -1.2945  0.4457
   74MOL   H15814904   5.356   5.626   0.585 -1.5116  0.8403 -1.7993
   74MOL   H15914905   5.183   5.287   0.651 -1.0763  0.1831  0.7054
   74MOL   H16014906   5.326   5.292   0.934  0.7312 -0.5202  0.2683
   74MOL   H16114907   5.364   5.186   0.803 -0.1535  0.0408 -1.0036
   74MOL   C16214908   5.170   5.147   0.886 -0.4945 -0.1174  0.0009
   74MOL   C16314909   5.222   5.051   0.996 -0.6511 -0.8162 -0.6641
   74MOL  Cl16414910   5.222   5.127   1.153 -0.2653 -0.1654 -0.1732
   74MOL   C16514911   5.246   4.922   0.983 -0.0052  0.2198  0.1581
   74MOL   C16614912   5.281   4.821   1.091  0.2115 -0.0995 -0.1104
   74MOL   H16714913   5.097   5.210   0.936 -0.1005 -0.1283  0.5958
   74MOL   H16814914   5.122   5.105   0.797  0.1218  3.0985 -1.9439
   74MOL   H16914915   5.235   4.874   0.886 -1.6193  2.6258 -0.8826
   74MOL   H17014916   5.313   4.879   1.177  1.7783 -0.5655 -0.3754
   74MOL   H17114917   5.203   4.754   1.128 -0.2878  0.6427  0.1861
   74MOL   C17214918   5.405   4.739   1.057 -0.2082 -0.1380 -0.2834
   74MOL   C17314919   5.435   4.646   1.179 -0.8671 -0.0868  0.2293
   74MOL  Cl17414920   5.573   4.693   1.269 -0.1803  0.1805  0.2001
   74MOL   C17514921   5.340   4.563   1.233 -0.7606 -0.0310  0.0996
   74MOL   C17614922   5.357   4.492   1.366  0.0877 -0.0218  0.8297
   74MOL   H17714923   5.488   4.805   1.031 -0.8636  0.5436 -0.6735
   74MOL   H17814924   5.396   4.678   0.967 -1.6730 -0.1308 -0.1590
   74MOL   H17914925   5.254   4.552   1.170 -0.6455 -0.6418  0.0473
   74MOL   H18014926   5.459   4.460   1.387  0.1433  0.9896  2.1181
   74MOL   H18114927   5.301   4.399   1.355 -1.0037  0.8502 -1.3760
   74MOL   C18214928   5.285   4.564   1.485  0.7566 -0.2769 -0.1832
   74MOL   C18314929   5.351   4.689   1.533  0.4578 -0.3951  0.0339
   74MOL  Cl18414930   5.292   4.835   1.463 -0.1691  0.0992 -0.0389
   74MOL   C18514931   5.447   4.689   1.629  1.2017 -0.0060  0.3870
   74MOL   C18614932   5.528   4.815   1.678 -0.2472 -0.3898  0.2722
   74MOL   H18714933   5.180   4.587   1.469  1.0767 -0.3158 -2.4136
   74MOL   H18814934   5.277   4.488   1.563 -0.1992 -0.9423 -0.9181
   74MOL   H18914935   5.481   4.594   1.667  0.3817 -0.6714 -0.4923
   74MOL   H19014936   5.511   4.894   1.605  0.8641 -1.0337 -0.7024
   74MOL   H19114937   5.491   4.847   1.776  0.2883  0.7189  0.1253
   74MOL   C19214938   5.686   4.795   1.693 -0.5319 -0.7012 -0.2896
   74MOL   C19314939   5.730   4.711   1.808  0.5991 -0.6185 -0.1982
   74MOL  Cl19414940   5.754   4.543   1.761  0.1904  0.3363  0.1245
   74MOL   C19514941   5.748   4.747   1.937  0.5509  0.0203 -0.3860
   74MOL   C19614942   5.715   4.875   1.992 -0.3922 -0.4055  0.1463
   74MOL   H19714943   5.738   4.891   1.686 -0.9200 -0.6053 -2.2147
   74MOL   H19814944   5.721   4.741   1.605 -3.1442 -0.5466 -1.4663
   74MOL   H19914945   5.795   4.667   1.992  2.2844  1.3973  0.2005
   74MOL   H20014946   5.643   4.872   2.074  1.7424 -1.9119  2.0448
   74MOL   H20114947   5.671   4.944   1.921  0.8550 -0.5511 -0.7794
   74MOL   H20214948   5.792   4.933   2.043 -0.8161  0.8004 -0.5671
   75MOL     C114949   1.632   4.162   5.987 -1.0323 -0.4450 -0.0798
   75MOL     C214950   1.732   4.207   5.881 -0.3520  0.2697 -0.2340
   75MOL    Cl314951   1.731   4.128   5.729  0.0692 -0.4464  0.4072
   75MOL     C414952   1.830   4.298   5.901  0.7802  0.0972  0.5070
   75MOL     C514953   1.856   4.374   6.029 -0.1654 -0.4082 -0.0617
   75MOL     H614954   1.674   4.131   6.083 -1.4039 -0.6112  0.0325
   75MOL     H714955   1.562   4.091   5.942  0.7397  0.0310 -3.7335
   75MOL     H814956   1.893   4.326   5.818  0.7816  0.0301  0.4862
   75MOL     H914957   1.798   4.338   6.114  1.0981  0.3121  1.1277
   75MOL    H1014958   1.961   4.365   6.057 -0.1550 -0.1714 -0.0217
   75MOL    H1114959   1.572   4.250   6.011  0.1976  0.9336 -1.9362
   75MOL    C1214960   1.816   4.519   6.021  0.1978 -0.2563  0.0896
   75MOL    C1314961   1.856   4.604   6.140  0.1529 -0.5067 -0.9865
   75MOL   Cl1414962   2.022   4.642   6.126 -0.4788 -0.4886  0.1302
   75MOL    C1514963   1.784   4.644   6.249  0.2901  0.3939  0.6046
   75MOL    C1614964   1.637   4.620   6.264  0.3227 -0.9159 -0.3960
   75MOL    H1714965   1.872   4.555   5.935 -0.9890 -1.3439 -1.1493
   75MOL    H1814966   1.707   4.520   6.009  0.2964  1.4096 -0.9131
   75MOL    H1914967   1.831   4.700   6.329  2.1037 -0.6644  0.3162
   75MOL    H2014968   1.612   4.726   6.254  0.5593 -0.7702  0.5102
   75MOL    H2114969   1.592   4.565   6.181 -0.2843 -2.7521  1.1020
   75MOL    C2214970   1.598   4.556   6.400 -0.7074 -0.4875 -0.5077
   75MOL    C2314971   1.604   4.405   6.424  0.0142 -0.3066  0.2765
   75MOL   Cl2414972   1.483   4.342   6.527 -0.2071 -0.1675 -0.1966
   75MOL    C2514973   1.704   4.326   6.377  0.3239  0.8223 -0.0761
   75MOL    C2614974   1.715   4.170   6.406  0.0789 -0.1837  0.0052
   75MOL    H2714975   1.662   4.602   6.475  1.1613 -0.9237 -1.7861
   75MOL    H2814976   1.501   4.592   6.435 -1.1909 -1.2460 -1.0458
   75MOL    H2914977   1.778   4.368   6.311  0.7753  1.3908  0.7791
   75MOL    H3014978   1.629   4.125   6.457 -1.2609  0.9872 -1.1691
   75MOL    H3114979   1.720   4.128   6.306 -0.3260  0.0177 -0.0988
   75MOL    C3214980   1.845   4.138   6.479 -0.2235  0.3398  0.1391
   75MOL    C3314981   1.888   3.991   6.475 -0.4900  0.4282  0.1854
   75MOL   Cl3414982   1.980   3.934   6.342  0.0687  0.2378  0.0501
   75MOL    C3514983   1.859   3.909   6.580 -0.1599 -0.0739  0.2171
   75MOL    C3614984   1.911   3.773   6.599  0.6990 -0.3850 -0.0634
   75MOL    H3714985   1.929   4.192   6.437  0.6944 -1.7960 -0.8567
   75MOL    H3814986   1.845   4.183   6.578 -0.7324 -0.8039  0.6701
   75MOL    H3914987   1.806   3.953   6.663 -0.1174  1.3478 -0.4948
   75MOL    H4014988   1.977   3.747   6.517  1.2675  1.4490 -0.2120
   75MOL    H4114989   1.969   3.771   6.690 -0.2989 -0.6183  0.5775
   75MOL    C4214990   1.803   3.665   6.597 -0.1153 -0.1573  0.0585
   75MOL    C4314991   1.858   3.528   6.575 -0.3370  0.5478 -0.0544
   75MOL   Cl4414992   1.809   3.452   6.428 -0.4551 -0.1866  0.0393
   75MOL    C4514993   1.943   3.459   6.652  0.5023  0.4493  0.8025
   75MOL    C4614994   1.998   3.501   6.794  0.4946  0.5752  0.9158
   75MOL    H4714995   1.737   3.659   6.683 -0.7544 -1.2033 -0.4839
   75MOL    H4814996   1.732   3.683   6.515 -0.3019  1.6827  0.5991
   75MOL    H4914997   1.986   3.370   6.609  0.2422  1.5536 -1.8151
   75MOL    H5014998   2.107   3.500   6.799  0.6294 -2.2743 -1.1841
   75MOL    H5114999   1.961   3.602   6.811 -1.0415  0.2807 -0.5031
   75MOL    C5215000   1.944   3.405   6.904 -0.0279 -0.3426 -0.1384
   75MOL    C5315001   1.976   3.468   7.040  0.3952  0.1450 -0.1695
   75MOL   Cl5415002   1.876   3.602   7.068 -0.2438  0.1029 -0.1176
   75MOL    C5515003   2.065   3.422   7.128 -0.0407  0.1586  0.7338
   75MOL    C5615004   2.094   3.484   7.266  0.4124 -0.0191  0.1056
   75MOL    H5715005   1.835   3.393   6.899 -0.1210 -0.0250  1.0618
   75MOL    H5815006   1.984   3.304   6.889  0.0489 -0.1842 -1.0406
   75MOL    H5915007   2.114   3.330   7.101  0.8521  0.9463 -0.3700
   75MOL    H6015008   2.036   3.575   7.283  1.1775  0.8293 -1.6267
   75MOL    H6115009   2.053   3.415   7.339 -1.9690  0.3193 -0.8739
   75MOL    C6215010   2.248   3.496   7.280 -0.4611 -0.2179 -0.1891
   75MOL    C6315011   2.307   3.607   7.196  0.1473  0.2823 -0.2707
   75MOL   Cl6415012   2.365   3.738   7.288  0.1091 -0.0146 -0.3322
   75MOL    C6515013   2.329   3.597   7.066 -0.4343  0.7644 -0.6525
   75MOL    C6615014   2.401   3.700   6.986  0.4142  0.0211 -0.0283
   75MOL    H6715015   2.261   3.519   7.386  0.7603  0.0726 -0.3976
   75MOL    H6815016   2.307   3.405   7.268 -0.0934 -0.0467  0.2930
   75MOL    H6915017   2.297   3.512   7.009 -0.5990  1.3419 -1.4329
   75MOL    H7015018   2.500   3.668   6.955 -0.5179 -2.6684 -0.3814
   75MOL    H7115019   2.407   3.792   7.045  2.1626  0.2928 -0.6227
   75MOL    C7215020   2.314   3.731   6.862 -0.1827  0.3209  0.4359
   75MOL    C7315021   2.372   3.832   6.763 -0.2570 -0.3727 -0.0528
   75MOL   Cl7415022   2.532   3.897   6.794  0.1513 -0.1397  0.4627
   75MOL    C7515023   2.304   3.885   6.659  0.5330 -0.0982  0.0765
   75MOL    C7615024   2.359   3.987   6.556  0.5534 -0.2037 -0.1117
   75MOL    H7715025   2.228   3.783   6.905 -0.8842  0.8844 -1.5908
   75MOL    H7815026   2.275   3.651   6.800  0.7925 -0.2377  0.5342
   75MOL    H7915027   2.205   3.856   6.630 -0.0417  1.8601  0.0030
   75MOL    H8015028   2.357   3.946   6.455 -1.8551 -1.3890  0.3860
   75MOL    H8115029   2.467   3.995   6.569  0.1748  0.5149  2.8546
   75MOL    C8215030   2.280   4.119   6.571  0.8773 -0.6060  0.0582
   75MOL    C8315031   2.312   4.227   6.471 -0.3329  0.2490 -0.3688
   75MOL   Cl8415032   2.386   4.363   6.552 -0.3736 -0.1260 -0.1639
   75MOL    C8515033   2.279   4.234   6.345  0.1838 -0.4327  0.4941
   75MOL    C8615034   2.306   4.352   6.249  0.3202 -0.1900  0.0587
   75MOL    H8715035   2.296   4.159   6.671 -1.0909  0.1044  0.1085
   75MOL    H8815036   2.173   4.102   6.564  0.9529 -1.4659  0.8350
   75MOL    H8915037   2.226   4.142   6.321  2.1200 -1.5273  0.2752
   75MOL    H9015038   2.211   4.402   6.228  0.4952  1.6973  3.2294
   75MOL    H9115039   2.350   4.433   6.309  0.0570  1.1015 -1.4606
   75MOL    C9215040   2.379   4.309   6.118  0.7705 -0.5614 -0.1691
   75MOL    C9315041   2.416   4.433   6.033  0.2276 -0.6585 -0.0388
   75MOL   Cl9415042   2.535   4.534   6.105  0.1493 -0.0886 -0.4216
   75MOL    C9515043   2.369   4.459   5.909  0.0683 -0.6006 -0.4622
   75MOL    C9615044   2.267   4.391   5.829  0.0682 -0.4296  0.0019
   75MOL    H9715045   2.312   4.246   6.060 -0.1805  0.5350 -0.2951
   75MOL    H9815046   2.472   4.257   6.138 -0.1417 -2.0499  0.3149
   75MOL    H9915047   2.407   4.546   5.856 -1.5314  0.1726 -0.3894
   75MOL   H10015048   2.331   4.334   5.761  1.0824  1.3379 -0.5425
   75MOL   H10115049   2.212   4.311   5.879  1.3961 -2.0535 -1.0665
   75MOL   C10215050   2.174   4.483   5.758  0.7454  0.3878 -0.0396
   75MOL   C10315051   2.242   4.562   5.656 -0.2463 -0.6397 -0.1209
   75MOL  Cl10415052   2.287   4.719   5.717 -0.1555  0.1399  0.0294
   75MOL   C10515053   2.291   4.511   5.535  0.2584  0.1189 -0.5237
   75MOL   C10615054   2.359   4.594   5.426  0.6291 -1.0529 -0.3405
   75MOL   H10715055   2.096   4.424   5.709 -0.0970  2.7453 -1.6526
   75MOL   H10815056   2.128   4.554   5.827 -2.3867 -2.6359  1.0784
   75MOL   H10915057   2.271   4.407   5.511  1.6429 -0.0577 -0.9523
   75MOL   H11015058   2.289   4.613   5.345  0.8028 -3.9930 -1.2291
   75MOL   H11115059   2.383   4.690   5.473  0.1820 -1.3653  0.5385
   75MOL   C11215060   2.493   4.532   5.384  0.1820  0.2118 -0.0195
   75MOL   C11315061   2.548   4.430   5.483  0.0280  0.2831 -0.1151
   75MOL  Cl11415062   2.495   4.271   5.435  0.2608 -0.1164 -0.2201
   75MOL   C11515063   2.634   4.459   5.586  0.2228 -0.1415  0.5075
   75MOL   C11615064   2.686   4.601   5.624 -0.8407 -0.2616  0.1906
   75MOL   H11715065   2.480   4.495   5.282  0.9326 -0.2182  0.0355
   75MOL   H11815066   2.570   4.610   5.383  1.0024 -0.5248  2.0904
   75MOL   H11915067   2.666   4.378   5.649 -0.5246 -0.3548  0.6261
   75MOL   H12015068   2.661   4.594   5.729 -0.5370  1.8367  0.4181
   75MOL   H12115069   2.631   4.684   5.580  0.6285  0.8122  0.3724
   75MOL   C12215070   2.839   4.611   5.609  0.4631  0.0377  0.2832
   75MOL   C12315071   2.895   4.732   5.685 -0.0224  0.5208 -0.3070
   75MOL  Cl12415072   2.942   4.859   5.579 -0.2855  0.4236  0.1167
   75MOL   C12515073   2.918   4.735   5.816 -0.0055 -0.3512 -0.1017
   75MOL   C12615074   2.888   4.627   5.916  0.9143 -0.6123 -0.0941
   75MOL   H12715075   2.882   4.518   5.645  1.7710 -0.1052 -1.5479
   75MOL   H12815076   2.869   4.616   5.504 -0.1742 -0.7208  0.0544
   75MOL   H12915077   2.958   4.826   5.858  2.1576 -0.4197 -1.9510
   75MOL   H13015078   2.791   4.639   5.964  0.5469  1.4848 -1.2963
   75MOL   H13115079   2.876   4.525   5.877 -1.4318 -0.3616 -0.1481
   75MOL   C13215080   2.990   4.635   6.026 -1.0916  0.1037 -0.1170
   75MOL   C13315081   2.959   4.560   6.149 -0.2673  0.8157  0.3180
   75MOL  Cl13415082   2.811   4.620   6.223  0.2913  0.2597 -0.0080
   75MOL   C13515083   3.034   4.468   6.213 -0.3917  0.2320 -0.0424
   75MOL   C13615084   3.164   4.404   6.190 -0.1406  0.6620 -0.3496
   75MOL   H13715085   3.085   4.608   5.980 -0.1368  0.8620  1.3588
   75MOL   H13815086   3.001   4.738   6.058  1.1045  0.8066 -2.9437
   75MOL   H13915087   2.983   4.434   6.302  2.0359 -3.3581  0.0328
   75MOL   H14015088   3.207   4.431   6.093 -3.6419  0.0018 -2.1775
   75MOL   H14115089   3.230   4.459   6.256  1.5393 -1.8068  0.1131
   75MOL   C14215090   3.164   4.257   6.215  0.1790  0.2386  0.8684
   75MOL   C14315091   3.285   4.183   6.163 -1.1946  0.4502  0.7419
   75MOL  Cl14415092   3.392   4.145   6.297  0.0038  0.3972 -0.2615
   75MOL   C14515093   3.317   4.162   6.033  0.8078 -0.8478  0.6017
   75MOL   C14615094   3.436   4.087   5.980 -0.0838 -0.2493 -0.1371
   75MOL   H14715095   3.082   4.217   6.156  0.9828 -0.3396  0.1362
   75MOL   H14815096   3.134   4.227   6.316  2.2365  1.1019  1.7583
   75MOL   H14915097   3.244   4.194   5.960 -0.6693 -1.2906  1.8615
   75MOL   H15015098   3.503   4.140   5.912 -0.1169 -0.3410 -0.2406
   75MOL   H15115099   3.504   4.068   6.063 -1.1725  1.6733  1.2240
   75MOL   C15215100   3.399   3.963   5.904  0.8260  0.5211  0.1750
   75MOL   C15315101   3.323   3.860   5.987 -0.8322  0.5733  0.3419
   75MOL  Cl15415102   3.168   3.829   5.922  0.3331  0.1204  0.0191
   75MOL   C15515103   3.363   3.806   6.097  0.2696  0.0527 -0.3099
   75MOL   C15615104   3.302   3.705   6.194 -0.8682 -0.3058 -0.0605
   75MOL   H15715105   3.336   3.978   5.817  3.0982  1.4022 -1.3551
   75MOL   H15815106   3.489   3.923   5.858  0.7329  2.4423 -1.7305
   75MOL   H15915107   3.463   3.833   6.128 -1.1750  1.5289  3.4781
   75MOL   H16015108   3.224   3.649   6.142  0.6141 -2.0865 -0.3977
   75MOL   H16115109   3.248   3.750   6.278 -1.4917  1.0573 -1.1711
   75MOL   C16215110   3.405   3.604   6.240 -0.2490 -0.7551  0.3504
   75MOL   C16315111   3.339   3.488   6.308  0.1049  0.6020  0.2389
   75MOL  Cl16415112   3.251   3.540   6.444  0.5737  0.2710  0.3466
   75MOL   C16515113   3.341   3.359   6.261 -0.3848  0.4440  0.3440
   75MOL   C16615114   3.268   3.240   6.310 -0.1405 -0.5732 -0.6575
   75MOL   H16715115   3.444   3.578   6.142 -2.1135  1.5632 -1.0357
   75MOL   H16815116   3.466   3.673   6.298 -2.2574 -2.1087  4.2827
   75MOL   H16915117   3.391   3.331   6.169  0.5175  0.2964  0.8672
   75MOL   H17015118   3.339   3.157   6.304 -0.7958 -1.0969 -1.1510
   75MOL   H17115119   3.245   3.252   6.416  1.9558  0.8321 -0.3091
   75MOL   C17215120   3.146   3.216   6.225 -0.0190  0.5064  0.2340
   75MOL   C17315121   3.057   3.124   6.302 -0.0184 -0.3003 -1.2655
   75MOL  Cl17415122   3.069   2.970   6.235  0.2238 -0.1178  0.1356
   75MOL   C17515123   2.972   3.164   6.398 -0.3948  0.1812 -0.0651
   75MOL   C17615124   2.867   3.066   6.448 -0.1355 -0.2175 -0.0611
   75MOL   H17715125   3.172   3.180   6.125 -0.1876  2.4230 -0.5269
   75MOL   H17815126   3.107   3.318   6.217 -2.2219 -0.3534 -0.5359
   75MOL   H17915127   2.979   3.266   6.432 -0.0254 -0.0826  0.6618
   75MOL   H18015128   2.861   2.981   6.380  2.3079  0.5690 -1.2976
   75MOL   H18115129   2.767   3.109   6.444 -0.2644 -0.5577 -0.5265
   75MOL   C18215130   2.887   3.013   6.589  0.1242 -0.4244  0.5096
   75MOL   C18315131   2.764   2.938   6.637  0.4206 -0.3449 -0.0953
   75MOL  Cl18415132   2.639   3.042   6.688  0.5586  0.3955  0.1984
   75MOL   C18515133   2.760   2.805   6.643 -0.3847  0.1688  0.0382
   75MOL   C18615134   2.644   2.728   6.700  0.0813 -0.0752 -0.7664
   75MOL   H18715135   2.968   2.940   6.589  2.4235  1.9976 -2.1535
   75MOL   H18815136   2.910   3.096   6.657  1.1387 -1.2265  1.1587
   75MOL   H18915137   2.840   2.747   6.599  2.5207  3.3148  1.0203
   75MOL   H19015138   2.551   2.783   6.696 -1.5075 -2.4978  1.0234
   75MOL   H19115139   2.628   2.640   6.638 -2.1308 -0.1375 -0.1408
   75MOL   C19215140   2.675   2.673   6.839  0.1396  0.4697 -0.0903
   75MOL   C19315141   2.649   2.784   6.943 -0.6407 -0.1398 -0.2929
   75MOL  Cl19415142   2.789   2.858   7.016 -0.3727 -0.1860  0.3507
   75MOL   C19515143   2.528   2.823   6.990 -0.1880  0.2572 -0.7144
   75MOL   C19615144   2.394   2.784   6.939  0.4158  0.3540 -0.0053
   75MOL   H19715145   2.776   2.633   6.851 -0.4826 -1.0315  0.2823
   75MOL   H19815146   2.618   2.586   6.868  0.2539 -0.0983 -1.5061
   75MOL   H19915147   2.526   2.894   7.071  0.6830  0.7682 -1.1308
   75MOL   H20015148   2.342   2.723   7.012  0.8005 -2.0231 -1.6511
   75MOL   H20115149   2.381   2.726   6.848 -0.5069 -2.5670  1.9513
   75MOL   H20215150   2.341   2.879   6.923 -0.0855  0.1829  0.6302
   76MOL     C115151   3.342   4.827   0.554  0.1081 -0.2697  0.0979
   76MOL     C215152   3.428   4.838   0.433  0.2057  0.0169  0.6099
   76MOL    Cl315153   3.346   4.784   0.301  0.0132 -0.0267  0.1085
   76MOL     C415154   3.555   4.882   0.431 -0.0169  0.0206  0.0302
   76MOL     C515155   3.638   4.923   0.544  0.6098 -0.0286 -0.0535
   76MOL     H615156   3.412   4.794   0.631  2.1500 -2.2113 -2.4682
   76MOL     H715157   3.264   4.751   0.544 -0.0860 -0.1811  0.9140
   76MOL     H815158   3.601   4.890   0.334 -0.6898 -0.8750 -0.3744
   76MOL     H915159   3.612   5.026   0.568 -1.6011 -0.5538 -0.0640
   76MOL    H1015160   3.632   4.856   0.630  1.1199 -0.9300 -0.7035
   76MOL    H1115161   3.308   4.927   0.581  2.4135  1.5103 -3.3119
   76MOL    C1215162   3.784   4.935   0.503  0.5111  0.0806 -0.0528
   76MOL    C1315163   3.868   5.025   0.584 -0.3265  0.3442 -0.4412
   76MOL   Cl1415164   3.896   5.174   0.503  0.0616 -0.1531  0.1652
   76MOL    C1515165   3.909   5.003   0.709  0.1539  0.0514  0.3247
   76MOL    C1615166   3.874   4.880   0.777 -0.6178  0.2265  0.1710
   76MOL    H1715167   3.825   4.834   0.494 -1.2320 -0.6399 -0.1161
   76MOL    H1815168   3.789   4.973   0.401 -1.9554 -1.3518 -0.7581
   76MOL    H1915169   3.960   5.079   0.765 -1.9922  0.6675  1.5020
   76MOL    H2015170   3.855   4.805   0.700 -0.3363  0.8711 -0.5298
   76MOL    H2115171   3.956   4.836   0.834 -2.7959  0.4412  3.6068
   76MOL    C2215172   3.762   4.896   0.878  0.0207  0.2432  0.9643
   76MOL    C2315173   3.757   4.782   0.974 -0.3156 -0.5851 -0.3564
   76MOL   Cl2415174   3.612   4.693   0.969  0.4149  0.1535  0.1218
   76MOL    C2515175   3.848   4.763   1.076 -0.9056 -0.5301 -0.2375
   76MOL    C2615176   3.841   4.662   1.186  0.6570 -0.6846  0.6823
   76MOL    H2715177   3.774   4.986   0.940  1.2214  1.4704 -1.0128
   76MOL    H2815178   3.670   4.909   0.821  0.5562  0.8249  0.2301
   76MOL    H2915179   3.940   4.821   1.073 -0.9772 -0.3943  0.2900
   76MOL    H3015180   3.736   4.634   1.197  0.7656 -1.3552  0.0595
   76MOL    H3115181   3.901   4.576   1.155 -1.6158 -1.2927 -2.1829
   76MOL    C3215182   3.891   4.707   1.325 -0.4989  0.3732 -0.0428
   76MOL    C3315183   3.896   4.601   1.436 -0.3734 -0.5417  0.8160
   76MOL   Cl3415184   4.056   4.542   1.465  0.3930 -0.1725  0.4765
   76MOL    C3515185   3.788   4.555   1.505 -0.0986  1.0454  0.1710
   76MOL    C3615186   3.786   4.453   1.620 -0.8123  0.1308  0.0312
   76MOL    H3715187   3.987   4.758   1.322 -0.3913  0.0931 -2.0685
   76MOL    H3815188   3.831   4.795   1.346 -3.3072 -1.9411  2.1171
   76MOL    H3915189   3.690   4.593   1.481 -0.2338  0.7718  0.3013
   76MOL    H4015190   3.774   4.354   1.575 -0.4598 -1.2862  2.9448
   76MOL    H4115191   3.884   4.431   1.663 -0.5242  0.9705 -0.1846
   76MOL    C4215192   3.694   4.492   1.739 -0.2936 -0.3284  0.4773
   76MOL    C4315193   3.683   4.383   1.840  0.4558  0.4319  0.4810
   76MOL   Cl4415194   3.823   4.367   1.941  0.1756  0.0842  0.2184
   76MOL    C4515195   3.565   4.325   1.876  0.1361  0.3545 -0.5744
   76MOL    C4615196   3.435   4.329   1.797  0.5597 -0.8384 -0.2592
   76MOL    H4715197   3.738   4.578   1.790  1.5913 -0.6958 -0.4921
   76MOL    H4815198   3.599   4.527   1.699  0.6547  2.5914  0.6572
   76MOL    H4915199   3.566   4.262   1.963  1.1163  0.7178 -0.3164
   76MOL    H5015200   3.350   4.346   1.864  0.1579 -0.3356 -0.8839
   76MOL    H5115201   3.427   4.407   1.721 -1.1879 -0.7155  0.0206
   76MOL    C5215202   3.396   4.199   1.729  0.1126  0.1275  0.0031
   76MOL    C5315203   3.269   4.200   1.645 -0.1779  0.2261 -1.0728
   76MOL   Cl5415204   3.293   4.087   1.517 -0.1503  0.1457  0.0770
   76MOL    C5515205   3.153   4.265   1.668 -0.4715  0.2604 -0.3976
   76MOL    C5615206   3.029   4.268   1.578 -0.6091  0.4171 -0.5325
   76MOL    H5715207   3.481   4.164   1.670  0.4152 -0.3280  0.7050
   76MOL    H5815208   3.372   4.125   1.805  0.8397 -0.0537  0.0557
   76MOL    H5915209   3.143   4.331   1.753  2.7659  1.8087 -1.1557
   76MOL    H6015210   3.022   4.368   1.536 -1.5199  0.4645 -0.2841
   76MOL    H6115211   3.052   4.214   1.486  1.0297 -1.3199  0.8421
   76MOL    C6215212   2.897   4.228   1.646 -0.3040 -0.3951 -0.7521
   76MOL    C6315213   2.777   4.259   1.560 -0.3862 -0.3820 -0.2378
   76MOL   Cl6415214   2.685   4.395   1.619 -0.0013  0.0667  0.3328
   76MOL    C6515215   2.734   4.177   1.462 -0.3310  0.2904 -0.5644
   76MOL    C6615216   2.605   4.190   1.382  0.6828 -0.2441  0.7887
   76MOL    H6715217   2.910   4.122   1.666 -1.9079 -0.6243 -0.8183
   76MOL    H6815218   2.900   4.282   1.741 -0.4408 -1.0228 -0.3823
   76MOL    H6915219   2.798   4.092   1.444 -0.3301  0.3172 -0.6967
   76MOL    H7015220   2.623   4.261   1.301  0.0285 -0.6671  0.2607
   76MOL    H7115221   2.523   4.235   1.437  0.7110  1.4223 -0.4791
   76MOL    C7215222   2.572   4.055   1.310 -0.6125  0.2184 -0.1430
   76MOL    C7315223   2.460   4.066   1.206 -0.3640 -0.2461  0.3370
   76MOL   Cl7415224   2.491   3.973   1.071 -0.1751  0.0133  0.3057
   76MOL    C7515225   2.341   4.126   1.227  0.3288  0.4123 -0.7189
   76MOL    C7615226   2.226   4.124   1.132  0.0224 -0.0316  0.3766
   76MOL    H7715227   2.553   3.979   1.387  2.0197 -0.3002  0.0661
   76MOL    H7815228   2.662   4.030   1.253 -1.4881  0.3200 -1.5919
   76MOL    H7915229   2.327   4.181   1.319 -2.9904  2.9644 -2.6333
   76MOL    H8015230   2.257   4.059   1.050  1.8137 -0.0042  1.0259
   76MOL    H8115231   2.214   4.225   1.091 -1.2508 -0.1523  0.4287
   76MOL    C8215232   2.094   4.091   1.195 -0.1115  0.1975 -0.1493
   76MOL    C8315233   1.978   4.083   1.100 -0.0516 -0.6642 -0.0827
   76MOL   Cl8415234   1.898   3.929   1.103  0.1862  0.1691 -0.0664
   76MOL    C8515235   1.944   4.179   1.016 -0.7451  0.5730 -0.5598
   76MOL    C8615236   1.837   4.183   0.907  0.4282 -0.0140  0.2891
   76MOL    H8715237   2.074   4.159   1.278 -1.5865 -0.6380  0.1903
   76MOL    H8815238   2.108   4.000   1.255  0.7814 -0.1717 -0.9072
   76MOL    H8915239   1.996   4.274   1.017 -0.5238  0.4484 -0.2161
   76MOL    H9015240   1.791   4.084   0.908  0.3447  0.0287  1.2759
   76MOL    H9115241   1.760   4.249   0.947  2.1781  2.1971  0.0571
   76MOL    C9215242   1.902   4.227   0.773 -0.0973 -0.3484  0.2302
   76MOL    C9315243   1.812   4.276   0.664 -0.1142  0.4855 -0.2220
   76MOL   Cl9415244   1.675   4.360   0.722  0.0142  0.2102 -0.0036
   76MOL    C9515245   1.830   4.264   0.534 -1.0889 -0.0206 -0.1576
   76MOL    C9615246   1.949   4.206   0.459  0.3372 -0.7839  0.8091
   76MOL    H9715247   1.968   4.148   0.736  1.1648  0.6329  0.3286
   76MOL    H9815248   1.977   4.302   0.801  0.1547 -0.4870 -0.0719
   76MOL    H9915249   1.758   4.305   0.466 -1.5368 -1.2230 -0.4095
   76MOL   H10015250   2.029   4.171   0.524  1.0796 -0.7539 -0.0838
   76MOL   H10115251   1.901   4.121   0.411  0.1509 -1.1162  1.5929
   76MOL   C10215252   2.004   4.298   0.356  0.2078 -0.6017 -0.3016
   76MOL   C10315253   2.063   4.226   0.234  0.0068  0.7306  0.2847
   76MOL  Cl10415254   1.940   4.165   0.124 -0.0729  0.3146 -0.1839
   76MOL   C10515255   2.190   4.202   0.215 -0.4972 -0.7047 -0.1374
   76MOL   C10615256   2.250   4.103   0.116 -0.2115  0.1998 -0.1045
   76MOL   H10715257   1.924   4.359   0.315 -1.1222  0.2560  3.3769
   76MOL   H10815258   2.071   4.366   0.407 -0.6330  1.4533 -1.8686
   76MOL   H10915259   2.251   4.262   0.281 -3.2088  2.1022 -0.0758
   76MOL   H11015260   2.178   4.043   0.060  1.2316 -0.9643 -0.7642
   76MOL   H11115261   2.306   4.165   0.046  1.0681  0.4775  1.1477
   76MOL   C11215262   2.343   4.000   0.192 -0.2821  0.5425  0.3177
   76MOL   C11315263   2.453   3.926   0.110  0.1931  0.3764  0.0901
   76MOL  Cl11415264   2.385   3.793   0.030 -0.3142 -0.1730 -0.3374
   76MOL   C11515265   2.582   3.960   0.093 -0.3687  0.2760 -0.5915
   76MOL   C11615266   2.661   4.074   0.149  0.6127 -0.6554  0.2900
   76MOL   H11715267   2.400   4.055   0.266 -0.9306  0.5072  0.8522
   76MOL   H11815268   2.290   3.932   0.258 -0.9179 -2.0506 -2.7358
   76MOL   H11915269   2.638   3.890   0.032 -1.2520  0.0603 -1.1544
   76MOL   H12015270   2.738   4.045   0.220 -0.3996 -3.1293  0.4203
   76MOL   H12115271   2.589   4.136   0.202 -1.4191 -3.7581  1.2825
   76MOL   C12215272   2.719   4.153   0.030  0.3439  0.1030 -0.3559
   76MOL   C12315273   2.610   4.222   8.371  0.5701  0.0360 -0.0597
   76MOL  Cl12415274   2.570   4.376   0.028  0.1080 -0.3080  0.1375
   76MOL   C12515275   2.550   4.184   8.261  0.2301 -0.5546  0.2847
   76MOL   C12615276   2.563   4.068   8.174  0.7887  0.2380  0.3005
   76MOL   H12715277   2.787   4.231   0.063 -1.5115  1.3505  0.6441
   76MOL   H12815278   2.773   4.083   8.386 -0.7843 -0.9193 -0.2188
   76MOL   H12915279   2.485   4.254   8.210  0.3534 -2.1017 -2.1052
   76MOL   H13015280   2.618   4.100   8.086  0.8997  2.0410  1.0011
   76MOL   H13115281   2.601   3.981   8.228 -1.5805 -1.3992 -0.5756
   76MOL   C13215282   2.421   4.023   8.122  0.0373 -0.3164  0.0106
   76MOL   C13315283   2.430   3.924   8.012  0.4476 -0.0478 -0.3960
   76MOL  Cl13415284   2.513   3.979   7.864  0.0252 -0.5998 -0.0999
   76MOL   C13515285   2.372   3.801   8.008 -0.7283 -0.1455 -0.1847
   76MOL   C13615286   2.294   3.728   8.119 -0.7993 -0.4104  0.2460
   76MOL   H13715287   2.374   3.981   8.211  0.2878 -1.2857 -0.3136
   76MOL   H13815288   2.369   4.108   8.077 -1.8999 -2.4213 -1.8254
   76MOL   H13915289   2.373   3.744   7.917 -0.4452 -0.2848 -0.0968
   76MOL   H14015290   2.340   3.630   8.131 -0.3947  0.0899  3.1109
   76MOL   H14115291   2.315   3.771   8.217 -2.5644 -1.2196  1.0189
   76MOL   C14215292   2.146   3.707   8.093  0.1761  0.1676 -0.3497
   76MOL   C14315293   2.050   3.830   8.102 -0.5635  0.3996  0.3620
   76MOL  Cl14415294   2.076   3.929   8.243  0.4865 -0.3836 -0.0955
   76MOL   C14515295   1.941   3.844   8.024 -0.6466 -0.4677  0.4929
   76MOL   C14615296   1.832   3.954   8.030  0.2206 -0.3018  0.5874
   76MOL   H14715297   2.102   3.637   8.165 -2.9386  0.5874 -1.7304
   76MOL   H14815298   2.114   3.655   8.003  0.0553  0.2263 -0.3404
   76MOL   H14915299   1.920   3.769   7.950 -1.2585  1.9330 -1.8490
   76MOL   H15015300   1.738   3.919   8.072 -0.6662  0.4997 -0.7010
   76MOL   H15115301   1.859   4.030   8.105 -1.4559 -0.3992  1.3144
   76MOL   C15215302   1.812   4.002   7.884  0.4458  0.2531  0.3299
   76MOL   C15315303   1.723   4.127   7.870  0.0060 -0.1292 -0.0684
   76MOL  Cl15415304   1.552   4.082   7.851  0.3481  0.0100  0.2864
   76MOL   C15515305   1.767   4.250   7.891  0.5705  0.2902  0.3240
   76MOL   C15615306   1.693   4.378   7.908 -0.8295 -0.2998 -0.3208
   76MOL   H15715307   1.908   4.023   7.836  0.0721 -0.9343 -0.9752
   76MOL   H15815308   1.771   3.921   7.823 -1.1216  1.1370  0.1878
   76MOL   H15915309   1.873   4.263   7.906  0.6436  0.7462 -0.5740
   76MOL   H16015310   1.595   4.363   7.862 -1.2715  0.7042  0.2786
   76MOL   H16115311   1.733   4.448   7.835 -0.0491 -1.3145 -0.8881
   76MOL   C16215312   1.699   4.441   8.049  0.1531  0.0616 -0.1968
   76MOL   C16315313   1.840   4.484   8.092  0.5360 -0.5339  0.3576
   76MOL  Cl16415314   1.859   4.653   8.079 -0.0593 -0.2717  0.3267
   76MOL   C16515315   1.930   4.398   8.133 -0.7198  0.3406 -0.6027
   76MOL   C16615316   2.066   4.437   8.184 -0.2884  0.7488 -0.1648
   76MOL   H16715317   1.638   4.531   8.060  0.3948  0.1111  0.8648
   76MOL   H16815318   1.653   4.382   8.128 -0.7021  2.3284  1.0633
   76MOL   H16915319   1.901   4.294   8.140 -2.6016  0.9085  0.1291
   76MOL   H17015320   2.139   4.393   8.115 -1.5806 -1.1271 -0.3740
   76MOL   H17115321   2.082   4.545   8.180  2.3486  0.3633 -1.0902
   76MOL   C17215322   2.097   4.390   8.332  0.2381  0.1924 -1.0959
   76MOL   C17315323   2.019   4.471   0.017  0.4999 -0.1993  0.2404
   76MOL  Cl17415324   2.121   4.558   0.120 -0.1196  0.4268 -0.0006
   76MOL   C17515325   1.885   4.495   0.025  0.2043  0.7774  0.0538
   76MOL   C17615326   1.815   4.602   0.115 -0.2946 -0.8205 -0.5862
   76MOL   H17715327   2.204   4.403   8.346  0.0583  0.7944 -0.1895
   76MOL   H17815328   2.067   4.287   8.354 -0.0634  0.9428  2.2811
   76MOL   H17915329   1.820   4.438   8.381  0.0928  1.6485 -0.6164
   76MOL   H18015330   1.887   4.674   0.153 -1.7437 -0.0114  0.6642
   76MOL   H18115331   1.789   4.552   0.208 -0.2136 -1.4069 -0.8764
   76MOL   C18215332   1.703   4.686   0.058 -0.2289 -0.0011  0.9323
   76MOL   C18315333   1.646   4.775   0.161 -1.1781  0.2667  0.1143
   76MOL  Cl18415334   1.481   4.737   0.194 -0.2905 -0.2100  0.0782
   76MOL   C18515335   1.710   4.881   0.212 -0.2660  0.1019 -0.2607
   76MOL   C18615336   1.635   4.983   0.302 -0.2155  0.6123  0.5324
   76MOL   H18715337   1.740   4.742   8.393  2.4215 -0.9017  1.4513
   76MOL   H18815338   1.641   4.622   8.416  0.2727  0.2459  0.1844
   76MOL   H18915339   1.813   4.904   0.189 -0.2186  0.1725  0.0290
   76MOL   H19015340   1.547   5.014   0.246  1.3679  0.8512 -1.8631
   76MOL   H19115341   1.587   4.934   0.387  1.3631 -3.4176 -0.7712
   76MOL   C19215342   1.714   5.112   0.338  0.0602 -0.4485 -0.5624
   76MOL   C19315343   1.757   5.193   0.221  0.4587  0.1741  0.6510
   76MOL  Cl19415344   1.923   5.178   0.186 -0.1874 -0.0018  0.3312
   76MOL   C19515345   1.686   5.277   0.145  0.1234  0.8127 -0.5793
   76MOL   C19615346   1.549   5.321   0.180  0.0185  0.4162 -0.7569
   76MOL   H19715347   1.805   5.087   0.393 -1.0968 -0.3209  1.4188
   76MOL   H19815348   1.658   5.182   0.399 -0.8016 -0.6866 -1.0736
   76MOL   H19915349   1.726   5.318   0.053  3.7938  0.6703  0.8669
   76MOL   H20015350   1.526   5.288   0.281 -0.9995  0.9323 -0.8139
   76MOL   H20115351   1.478   5.274   0.112 -0.3803 -1.5781  0.9641
   76MOL   H20215352   1.540   5.429   0.174  0.9217  0.5374 -0.0173
   77MOL     C115353   4.989   1.215   1.572  0.4702 -0.5073  0.5706
   77MOL     C215354   4.898   1.125   1.645  0.3922 -0.0209 -0.1909
   77MOL    Cl315355   4.865   1.188   1.811  0.4382 -0.0590  0.3410
   77MOL     C415356   4.837   1.011   1.604  0.8561 -0.3158 -0.8851
   77MOL     C515357   4.859   0.948   1.467 -0.3999 -0.2411  0.7220
   77MOL     H615358   5.093   1.181   1.569  0.6597  0.0822 -3.1795
   77MOL     H715359   4.974   1.313   1.617 -0.9839 -0.9502  1.0643
   77MOL     H815360   4.770   0.945   1.656  1.0077  0.7511  0.6951
   77MOL     H915361   4.950   0.991   1.427 -0.4257  1.5971  2.5718
   77MOL    H1015362   4.874   0.841   1.478 -0.3856 -0.2384  0.7275
   77MOL    H1115363   4.964   1.233   1.467  0.0353  2.1280  1.0991
   77MOL    C1215364   4.748   0.984   1.370  0.1872 -0.5045  1.0228
   77MOL    C1315365   4.753   0.898   1.244  0.2959  0.3910  0.3952
   77MOL   Cl1415366   4.876   0.942   1.134  0.1085 -0.0745  0.1436
   77MOL    C1515367   4.668   0.804   1.207 -0.3127  0.0452  0.2178
   77MOL    C1615368   4.549   0.767   1.284  0.9309 -0.3176 -0.1887
   77MOL    H1715369   4.654   0.967   1.423  0.0201 -0.8030  0.6303
   77MOL    H1815370   4.753   1.087   1.333  0.3307 -0.6490  0.6353
   77MOL    H1915371   4.674   0.755   1.111 -1.9691  0.5707 -0.1567
   77MOL    H2015372   4.555   0.793   1.389  0.0868  0.6789 -0.3806
   77MOL    H2115373   4.462   0.818   1.243  1.4010  0.4382 -0.2533
   77MOL    C2215374   4.509   0.620   1.260  1.0332  0.5940 -0.1176
   77MOL    C2315375   4.373   0.578   1.311  0.1102  1.1428  0.0265
   77MOL   Cl2415376   4.260   0.551   1.191  0.2059 -0.3168  0.0750
   77MOL    C2515377   4.350   0.561   1.438 -0.1099 -0.3700  0.3457
   77MOL    C2615378   4.210   0.538   1.500 -0.7349 -0.8997 -0.4838
   77MOL    H2715379   4.494   0.602   1.154 -0.0777 -0.5657  0.2259
   77MOL    H2815380   4.584   0.550   1.297 -0.4983 -1.3829 -0.6797
   77MOL    H2915381   4.425   0.574   1.515  0.9115  2.4352 -1.0440
   77MOL    H3015382   4.198   0.620   1.570 -0.2074 -1.1122 -0.1406
   77MOL    H3115383   4.131   0.560   1.429 -0.8746 -0.0965 -0.0752
   77MOL    C3215384   4.204   0.393   1.554 -0.1195 -0.1910  0.3334
   77MOL    C3315385   4.116   0.367   1.680 -0.3936 -0.1511 -0.2814
   77MOL   Cl3415386   4.187   0.244   1.776  0.4832  0.1646  0.1208
   77MOL    C3515387   3.992   0.411   1.709 -0.1232 -0.4747  0.0587
   77MOL    C3615388   3.916   0.378   1.840  1.0969 -0.3117  0.2943
   77MOL    H3715389   4.163   0.327   1.478  1.1442 -1.8012  1.0245
   77MOL    H3815390   4.307   0.360   1.571 -0.2093 -0.1833  0.9247
   77MOL    H3915391   3.948   0.471   1.631  0.4040  0.5947  0.5850
   77MOL    H4015392   3.852   0.292   1.821 -2.1841  2.6676 -2.9505
   77MOL    H4115393   3.980   0.359   1.926  1.5202  2.8067  0.7110
   77MOL    C4215394   3.838   0.497   1.893  0.1471  0.0666  0.1015
   77MOL    C4315395   3.819   0.487   2.045  0.5941 -0.2562 -0.3931
   77MOL   Cl4415396   3.683   0.394   2.087 -0.1775 -0.4113  0.0094
   77MOL    C4515397   3.902   0.546   2.136 -0.7599  0.2543 -0.0928
   77MOL    C4615398   4.034   0.625   2.106  0.3944  0.2786 -0.8890
   77MOL    H4715399   3.889   0.589   1.865  2.4223 -0.7980  1.3255
   77MOL    H4815400   3.745   0.508   1.837 -1.0168 -0.6341  1.8317
   77MOL    H4915401   3.881   0.533   2.241 -0.3663  1.7824  0.1756
   77MOL    H5015402   4.069   0.635   2.003  3.5144  3.0499  0.3570
   77MOL    H5115403   4.011   0.723   2.147  2.3448 -0.0259  1.0334
   77MOL    C5215404   4.145   0.560   2.192 -0.4205 -0.1887 -0.2949
   77MOL    C5315405   4.212   0.444   2.129 -0.3615 -0.4435 -0.3222
   77MOL   Cl5415406   4.306   0.486   1.991 -0.1023  0.0218 -0.5783
   77MOL    C5515407   4.204   0.321   2.184 -1.0912  0.3314 -0.0203
   77MOL    C5615408   4.275   0.191   2.132 -0.0281  0.2478 -0.3429
   77MOL    H5715409   4.208   0.640   2.230 -0.2407 -0.1594 -0.6556
   77MOL    H5815410   4.095   0.533   2.285 -0.7711  0.0133 -0.4223
   77MOL    H5915411   4.142   0.315   2.272 -2.3026 -1.4603 -0.9455
   77MOL    H6015412   4.197   0.136   2.080  1.8528 -3.1410  0.3036
   77MOL    H6115413   4.349   0.222   2.057 -0.1215 -1.0597 -0.9825
   77MOL    C6215414   4.332   0.109   2.239  0.0364  0.1098  1.0478
   77MOL    C6315415   4.235   0.030   2.333  0.5366  0.3016  0.2952
   77MOL   Cl6415416   4.268   0.054   2.504  0.1390 -0.2592 -0.2415
   77MOL    C6515417   4.141   8.369   2.291 -0.1162  0.4516  0.4437
   77MOL    C6615418   4.050   8.285   2.372 -0.0099 -0.0383 -0.1015
   77MOL    H6715419   4.409   0.049   2.190 -0.7444  0.8178 -1.0990
   77MOL    H6815420   4.381   0.180   2.306 -0.4824  0.3537  1.1726
   77MOL    H6915421   4.133   8.354   2.184 -0.3540 -0.8596  0.6439
   77MOL    H7015422   3.994   8.361   2.426 -2.2009 -1.0945 -0.8431
   77MOL    H7115423   4.118   8.236   2.441 -0.4107 -0.7820 -0.2298
   77MOL    C7215424   3.972   8.180   2.297 -0.0131  0.3853  0.3954
   77MOL    C7315425   3.873   8.093   2.376 -0.4856  0.3294 -0.0217
   77MOL   Cl7415426   3.801   7.978   2.268  0.1338  0.3004 -0.2281
   77MOL    C7515427   3.828   8.124   2.500  0.6248 -0.2261 -0.9072
   77MOL    C7615428   3.712   8.060   2.577 -0.2536  0.2007 -0.0132
   77MOL    H7715429   4.041   8.115   2.244  0.0355  0.4411  0.3907
   77MOL    H7815430   3.913   8.215   2.212 -0.3794  1.9437  1.2547
   77MOL    H7915431   3.875   8.209   2.548 -0.5761 -0.3386  0.4783
   77MOL    H8015432   3.744   8.014   2.670  0.3635 -1.4519 -1.0281
   77MOL    H8115433   3.674   7.985   2.509  0.6056  0.0835 -0.3717
   77MOL    C8215434   3.602   8.170   2.613  0.1631 -0.9876 -0.2292
   77MOL    C8315435   3.485   8.119   2.694 -0.1570  0.1320 -0.0842
   77MOL   Cl8415436   3.352   8.218   2.664 -0.0471 -0.1392  0.3914
   77MOL    C8515437   3.490   8.005   2.775 -0.3872  0.1618  0.3482
   77MOL    C8615438   3.370   7.951   2.853 -0.0044 -0.1959 -0.0814
   77MOL    H8715439   3.555   8.201   2.520  1.7413  3.5735  0.3772
   77MOL    H8815440   3.644   8.255   2.667  0.2208 -0.5231 -1.0029
   77MOL    H8915441   3.582   7.949   2.782  0.8082  1.4452 -4.0351
   77MOL    H9015442   3.294   8.026   2.875  0.7427 -0.1413  2.3770
   77MOL    H9115443   3.313   7.882   2.791  1.4890  0.5050 -2.3020
   77MOL    C9215444   3.412   7.882   2.982 -0.1826  0.0926  0.3214
   77MOL    C9315445   3.313   7.791   3.049 -0.6473  0.4186 -0.6503
   77MOL   Cl9415446   3.273   7.855   3.207  0.3595  0.2390  0.1641
   77MOL    C9515447   3.265   7.677   3.003  0.5913  1.3232  0.0832
   77MOL    C9615448   3.303   7.607   2.871  0.7225  0.4584  0.2529
   77MOL    H9715449   3.448   7.956   3.053  1.6908 -0.2585 -0.2409
   77MOL    H9815450   3.498   7.817   2.966  0.6686  0.5757  2.6911
   77MOL    H9915451   3.192   7.626   3.065  1.8319 -1.0951 -0.3961
   77MOL   H10015452   3.363   7.673   2.808  0.7791  0.3083  0.1485
   77MOL   H10115453   3.371   7.523   2.886 -0.8472 -1.2301 -1.6386
   77MOL   C10215454   3.182   7.549   2.797 -0.5163  0.3516 -0.3228
   77MOL   C10315455   3.107   7.438   2.880 -0.0244 -0.2471 -0.7710
   77MOL  Cl10415456   3.196   7.295   2.921  0.2847  0.4083  0.3835
   77MOL   C10515457   2.980   7.447   2.921  0.6663 -0.4531 -1.1359
   77MOL   C10615458   2.896   7.351   3.006  0.1573 -0.2472 -0.4360
   77MOL   H10715459   3.118   7.633   2.768 -1.6182  0.2400  1.6572
   77MOL   H10815460   3.208   7.510   2.699  0.5138 -1.3095  0.5889
   77MOL   H10915461   2.932   7.538   2.889  1.5466  0.2057 -0.5862
   77MOL   H11015462   2.840   7.287   2.938 -0.1291 -0.6306  0.1693
   77MOL   H11115463   2.961   7.280   3.057 -1.7531 -0.3609  1.9153
   77MOL   C11215464   2.817   7.442   3.103  0.1611  0.4355  0.0191
   77MOL   C11315465   2.710   7.536   3.047 -0.1186  0.4177 -0.1097
   77MOL  Cl11415466   2.617   7.456   2.923  0.0277  0.0869  0.2940
   77MOL   C11515467   2.686   7.659   3.083 -0.4796  0.7809  0.4209
   77MOL   C11615468   2.770   7.728   3.193  0.1491  0.5366  0.1890
   77MOL   H11715469   2.765   7.371   3.167  0.5824  1.2490  1.2927
   77MOL   H11815470   2.897   7.493   3.158 -0.5987  2.5045 -0.7454
   77MOL   H11915471   2.598   7.711   3.049 -1.1660 -0.0705  0.8666
   77MOL   H12015472   2.798   7.655   3.269  0.4938 -0.0638 -0.5080
   77MOL   H12115473   2.703   7.803   3.234  1.3989  0.4384  2.4856
   77MOL   C12215474   2.904   7.804   3.155  0.2994 -0.1584  0.2160
   77MOL   C12315475   2.890   7.937   3.072  0.1064  0.0214  0.4524
   77MOL  Cl12415476   2.818   8.066   3.149  0.0231  0.3942  0.1236
   77MOL   C12515477   2.936   7.961   2.942 -0.3367  0.4622 -0.3480
   77MOL   C12615478   2.996   7.861   2.852  0.0755 -0.0789 -0.3803
   77MOL   H12715479   2.938   7.843   3.251 -0.8383  0.9085  0.2093
   77MOL   H12815480   2.987   7.740   3.125 -0.2651 -0.4508 -0.7466
   77MOL   H12915481   2.918   8.056   2.894 -2.1193  0.4327  0.2056
   77MOL   H13015482   3.102   7.870   2.877 -0.4224 -0.6051  2.0716
   77MOL   H13115483   2.966   7.764   2.891 -2.6039  0.0841 -1.8962
   77MOL   C13215484   2.953   7.904   2.707  0.0651  0.5336 -0.0149
   77MOL   C13315485   3.007   7.810   2.599  1.2589 -0.1092  1.0411
   77MOL  Cl13415486   3.166   7.857   2.561 -0.1227 -0.0759 -0.0429
   77MOL   C13515487   2.938   7.706   2.543  0.1129  0.0867 -0.3381
   77MOL   C13615488   2.787   7.664   2.555  0.1102  0.2605 -0.0817
   77MOL   H13715489   2.844   7.908   2.712 -0.1841 -3.3494 -0.7476
   77MOL   H13815490   2.985   8.008   2.694 -0.1401  0.4837 -0.9822
   77MOL   H13915491   2.991   7.649   2.469  1.9480 -1.0123  1.7607
   77MOL   H14015492   2.780   7.604   2.646  0.1354 -0.8720 -0.8199
   77MOL   H14115493   2.720   7.748   2.572  0.7188  0.9531 -1.0414
   77MOL   C14215494   2.731   7.571   2.450 -0.0105  0.1901  0.3947
   77MOL   C14315495   2.587   7.530   2.480 -0.0116  0.6430  0.2658
   77MOL  Cl14415496   2.477   7.647   2.427 -0.2977  0.0950  0.9840
   77MOL   C14515497   2.551   7.401   2.508  0.6269 -0.2447  0.3804
   77MOL   C14615498   2.412   7.357   2.516  0.6964  0.4117  0.5134
   77MOL   H14715499   2.788   7.479   2.446  0.7128  0.6791 -0.8234
   77MOL   H14815500   2.733   7.624   2.355 -0.1839 -3.1285 -1.5205
   77MOL   H14915501   2.624   7.326   2.531  0.0015 -0.6931  0.9358
   77MOL   H15015502   2.402   7.325   2.619 -2.2750  0.8211  0.4032
   77MOL   H15115503   2.349   7.446   2.511  2.2068  1.5031  0.5314
   77MOL   C15215504   2.373   7.241   2.415 -0.7817  0.6432  0.2015
   77MOL   C15315505   2.269   7.144   2.464 -0.2345 -0.6753  0.2447
   77MOL  Cl15415506   2.337   6.986   2.464  0.1711 -0.0092 -0.1110
   77MOL   C15515507   2.147   7.171   2.514 -0.0457  0.1122 -0.4526
   77MOL   C15615508   2.050   7.069   2.567  0.5027  0.0391  0.1298
   77MOL   H15715509   2.335   7.302   2.333 -1.7235  0.3903  0.4502
   77MOL   H15815510   2.462   7.191   2.376 -0.6182  0.4198  0.8547
   77MOL   H15915511   2.117   7.275   2.516 -0.1607  0.0645  0.7344
   77MOL   H16015512   2.009   7.103   2.662  0.5296 -1.1240  0.5747
   77MOL   H16115513   2.093   6.972   2.592  1.4926  0.5346  0.3808
   77MOL   C16215514   1.941   7.058   2.467  0.5445 -0.2511  0.0449
   77MOL   C16315515   1.833   6.953   2.493 -0.0707 -0.7668  0.3267
   77MOL  Cl16415516   1.846   6.808   2.400 -0.0350  0.3929 -0.0709
   77MOL   C16515517   1.736   6.972   2.588 -0.8225  0.0114  0.3501
   77MOL   C16615518   1.637   6.862   2.624 -0.7022  0.0042  0.4908
   77MOL   H16715519   1.892   7.153   2.450 -0.4397 -0.5382  1.1999
   77MOL   H16815520   1.991   7.025   2.376  0.3672 -0.4034  0.0027
   77MOL   H16915521   1.727   7.058   2.654 -0.8977  0.0372  0.3061
   77MOL   H17015522   1.664   6.773   2.569 -0.9981  0.4965 -0.4576
   77MOL   H17115523   1.657   6.837   2.728 -0.0366 -0.4666  0.2511
   77MOL   C17215524   1.489   6.906   2.602 -0.1376 -0.1462  0.2201
   77MOL   C17315525   1.397   6.785   2.628 -0.3121 -0.5933  0.3903
   77MOL  Cl17415526   1.298   6.815   2.767  0.0532  0.1808 -0.6795
   77MOL   C17515527   1.377   6.682   2.548 -0.0032  0.4821 -0.5512
   77MOL   C17615528   1.284   6.562   2.584 -0.8655  0.2222  0.2987
   77MOL   H17715529   1.481   6.950   2.503  1.5108  0.7074  0.4482
   77MOL   H17815530   1.473   6.991   2.668 -0.8373  0.1436 -0.3223
   77MOL   H17915531   1.423   6.665   2.452  0.0590  2.7660 -0.9554
   77MOL   H18015532   1.236   6.565   2.681 -0.2840 -0.8881  0.6271
   77MOL   H18115533   1.341   6.469   2.581 -2.1434 -0.5386 -1.8183
   77MOL   C18215534   1.166   6.555   2.485 -0.2759  0.0165 -0.2982
   77MOL   C18315535   1.057   6.453   2.519 -1.0345  0.6338 -0.1854
   77MOL  Cl18415536   0.897   6.517   2.485 -0.3074 -0.3903  0.0777
   77MOL   C18515537   1.083   6.320   2.532  0.3862  0.1793  1.1237
   77MOL   C18615538   0.983   6.204   2.530  0.0539 -0.1300 -0.4735
   77MOL   H18715539   1.112   6.649   2.479  0.7479  0.6586  0.3892
   77MOL   H18815540   1.203   6.556   2.382  1.2185  0.5240  0.2276
   77MOL   H18915541   1.188   6.298   2.536  0.3285 -0.3943 -0.5423
   77MOL   H19015542   1.006   6.136   2.611  0.3343 -0.9771 -1.2598
   77MOL   H19115543   0.883   6.240   2.557 -0.9235 -1.7173 -1.9086
   77MOL   C19215544   0.984   6.128   2.398  0.0563 -0.2341  0.2531
   77MOL   C19315545   0.906   5.998   2.412 -0.5380  0.2930 -0.1574
   77MOL  Cl19415546   1.006   5.879   2.493  0.0917  0.2976 -0.0506
   77MOL   C19515547   0.781   5.981   2.391 -0.0250 -0.2507 -0.0004
   77MOL   C19615548   0.692   6.087   2.337  0.2296 -0.7570 -0.0745
   77MOL   H19715549   1.085   6.100   2.369  1.2368  3.0201  1.0065
   77MOL   H19815550   0.966   6.190   2.309  1.9002  1.5447  1.0759
   77MOL   H19915551   0.741   5.884   2.418  0.0010 -0.3498 -0.3198
   77MOL   H20015552   0.640   6.051   2.248  0.8122  2.0115 -1.5909
   77MOL   H20115553   0.750   6.177   2.319 -2.7020  1.5275  1.4623
   77MOL   H20215554   0.611   6.102   2.408  0.1195  1.1742 -0.5934
   78MOL     C115555   3.998   1.888   1.910  0.2441 -1.1728  0.0560
   78MOL     C215556   3.861   1.940   1.944 -0.2991 -0.3308 -0.1697
   78MOL    Cl315557   3.735   1.822   1.918  0.0373  0.0172 -0.0821
   78MOL     C415558   3.835   2.057   2.015 -0.0017 -0.5185 -0.0369
   78MOL     C515559   3.935   2.165   2.054  0.2122 -0.4859 -0.2751
   78MOL     H615560   4.032   1.915   1.810 -1.1463 -0.9106 -0.3578
   78MOL     H715561   3.996   1.781   1.891 -1.1477 -0.9759 -0.9191
   78MOL     H815562   3.733   2.086   2.033 -0.0524 -1.0566  0.5396
   78MOL     H915563   3.914   2.191   2.158 -1.9257 -0.6355 -0.6476
   78MOL    H1015564   4.034   2.118   2.046  0.7775  0.9007 -1.4729
   78MOL    H1115565   4.076   1.921   1.979 -0.2259 -0.5550  0.2991
   78MOL    C1215566   3.924   2.299   1.977 -0.3325  0.1182  0.0210
   78MOL    C1315567   3.963   2.279   1.840 -0.5141  0.4473  0.2686
   78MOL   Cl1415568   3.820   2.289   1.735 -0.1826 -0.4071 -0.2180
   78MOL    C1515569   4.088   2.272   1.788  0.0828 -0.0380 -0.2603
   78MOL    C1615570   4.222   2.263   1.857 -0.8349  0.2585  0.1333
   78MOL    H1715571   3.825   2.344   1.971 -0.3716 -0.0778 -0.8782
   78MOL    H1815572   3.989   2.373   2.025  0.3414 -0.6145  0.2365
   78MOL    H1915573   4.105   2.262   1.682  0.8500  0.9276 -0.2396
   78MOL    H2015574   4.277   2.353   1.829 -1.7363  0.8272  0.1588
   78MOL    H2115575   4.206   2.261   1.965  0.3568 -0.4341  0.2991
   78MOL    C2215576   4.306   2.145   1.815 -0.2741  0.1096  0.3567
   78MOL    C2315577   4.434   2.127   1.892 -0.6702  0.6794  0.2539
   78MOL   Cl2415578   4.579   2.181   1.810  0.1352 -0.1056 -0.3376
   78MOL    C2515579   4.446   2.054   2.003 -0.1401  0.0859 -0.0070
   78MOL    C2615580   4.580   2.015   2.065  0.1837 -0.4904  0.3080
   78MOL    H2715581   4.264   2.045   1.807  1.3703 -0.5963  0.4692
   78MOL    H2815582   4.340   2.166   1.713  1.9526  0.8104  1.2305
   78MOL    H2915583   4.350   2.022   2.040 -1.2121  1.8332 -1.2685
   78MOL    H3015584   4.563   1.931   2.133  0.0630 -1.9109 -1.4411
   78MOL    H3115585   4.649   1.986   1.986 -0.6834 -0.8472 -0.3325
   78MOL    C3215586   4.630   2.136   2.150 -0.1561  0.2149 -0.7864
   78MOL    C3315587   4.751   2.109   2.229  0.7253 -0.1147 -0.1955
   78MOL   Cl3415588   4.785   2.234   2.348 -0.2932  0.1525 -0.0756
   78MOL    C3515589   4.832   1.997   2.222  0.3259  0.3385 -0.5777
   78MOL    C3615590   4.951   1.973   2.318 -0.0541  0.4599 -0.4713
   78MOL    H3715591   4.647   2.212   2.074 -4.2775  1.1059 -0.9624
   78MOL    H3815592   4.552   2.180   2.212 -0.6600 -0.0988 -1.1890
   78MOL    H3915593   4.813   1.921   2.148 -0.9487  2.3900 -2.4338
   78MOL    H4015594   4.946   2.035   2.407  0.8831 -1.4898  0.9941
   78MOL    H4115595   4.942   1.872   2.359  2.3309 -0.2226 -1.5208
   78MOL    C4215596   5.088   1.961   2.245  0.0438 -0.2798 -0.0522
   78MOL    C4315597   5.197   1.906   2.334 -0.4271 -0.0034 -0.5033
   78MOL   Cl4415598   5.232   1.740   2.300  0.3709  0.3213 -0.1972
   78MOL    C4515599   5.276   1.981   2.411  0.2913  0.1194  0.5727
   78MOL    C4615600   5.260   2.135   2.426  0.0913 -0.0345  0.0157
   78MOL    H4715601   5.073   1.885   2.168 -0.5820 -0.1846 -0.0316
   78MOL    H4815602   5.118   2.059   2.210 -1.7353 -0.3007 -1.7583
   78MOL    H4915603   5.359   1.941   2.467 -0.0930  0.7072  1.5721
   78MOL    H5015604   5.355   2.175   2.390  0.1107  0.7959  0.9604
   78MOL    H5115605   5.181   2.180   2.367  2.2472  1.9967 -1.4072
   78MOL    C5215606   5.236   2.188   2.568 -0.1032 -1.0033  0.7499
   78MOL    C5315607   5.231   2.339   2.580  0.0469 -0.4986 -0.4698
   78MOL   Cl5415608   5.350   2.389   2.696  0.2598  0.0882  0.2931
   78MOL    C5515609   5.138   2.422   2.524 -0.1651  0.1198  0.5575
   78MOL    C5615610   5.130   2.570   2.544 -0.1364  0.1281 -0.1519
   78MOL    H5715611   5.135   2.151   2.587  0.2960 -1.6428  1.7071
   78MOL    H5815612   5.310   2.142   2.635 -0.1333 -1.7640  0.2694
   78MOL    H5915613   5.065   2.379   2.457  0.9999  0.9507 -1.2813
   78MOL    H6015614   5.142   2.594   2.649 -1.8497  1.3324 -0.2155
   78MOL    H6115615   5.212   2.625   2.498 -1.6599  1.9137 -0.7836
   78MOL    C6215616   4.996   2.621   2.491  0.2335  0.3326  0.1928
   78MOL    C6315617   4.991   2.773   2.481  1.2181 -0.2289 -0.3131
   78MOL   Cl6415618   4.991   2.822   2.317 -0.2082 -0.0516  0.2382
   78MOL    C6515619   4.997   2.862   2.582 -0.1159  0.3689  0.0249
   78MOL    C6615620   4.988   3.013   2.580 -0.4205  0.9302  0.4085
   78MOL    H6715621   4.971   2.578   2.394  2.4505 -3.4584  1.2208
   78MOL    H6815622   4.922   2.592   2.565  0.4540  2.1957  1.1854
   78MOL    H6915623   5.007   2.807   2.675  2.5694  0.8856  0.0949
   78MOL    H7015624   4.925   3.033   2.493 -2.8368  0.6073  2.0318
   78MOL    H7115625   5.089   3.053   2.575  1.6830 -3.9267  1.5767
   78MOL    C7215626   4.913   3.063   2.704  0.5512  0.0366 -0.1301
   78MOL    C7315627   4.961   3.204   2.731  0.5688  0.6565  0.0990
   78MOL   Cl7415628   4.866   3.320   2.640  0.1953  0.4559  0.0235
   78MOL    C7515629   5.058   3.233   2.821 -0.7453 -0.5261 -0.2379
   78MOL    C7615630   5.109   3.374   2.857 -0.2342  0.6712  0.6192
   78MOL    H7715631   4.940   3.016   2.799  0.5326  3.2816  1.5465
   78MOL    H7815632   4.806   3.054   2.686  0.6910 -1.2581 -0.3108
   78MOL    H7915633   5.106   3.151   2.874  2.1337  1.6162  0.5752
   78MOL    H8015634   5.068   3.449   2.790 -0.6677 -1.4589 -1.5742
   78MOL    H8115635   5.216   3.374   2.837 -0.4914 -1.6186 -1.0747
   78MOL    C8215636   5.078   3.416   2.997  0.0954  0.4594  0.0401
   78MOL    C8315637   5.113   3.561   3.012 -0.6027 -0.4092  0.3337
   78MOL   Cl8415638   5.036   3.620   3.157 -0.1840  0.0209  0.0105
   78MOL    C8515639   5.208   3.627   2.947 -0.0666  0.4026  0.2152
   78MOL    C8615640   5.261   3.770   2.968  1.1344  0.5430 -0.1256
   78MOL    H8715641   5.141   3.358   3.066  1.4561  0.0733 -1.4961
   78MOL    H8815642   4.973   3.397   3.016  0.3075 -0.5375  0.2687
   78MOL    H8915643   5.267   3.575   2.872  1.3487 -1.8396  2.8230
   78MOL    H9015644   5.225   3.801   3.066  0.2765 -0.6974 -0.0378
   78MOL    H9115645   5.370   3.768   2.970  1.1041 -3.3587  1.3644
   78MOL    C9215646   5.200   3.861   2.866  0.6145 -0.5491 -0.0072
   78MOL    C9315647   5.246   4.002   2.886  0.2574 -0.0016  0.6488
   78MOL   Cl9415648   5.132   4.102   2.965 -0.5084 -0.0725 -0.3835
   78MOL    C9515649   5.352   4.066   2.829  0.3144  0.8148  0.2553
   78MOL    C9615650   5.467   4.012   2.745  0.2834  0.4502 -0.0099
   78MOL    H9715651   5.092   3.857   2.878  0.4326 -2.0255 -1.8705
   78MOL    H9815652   5.220   3.817   2.768 -0.6562  0.3950 -0.7124
   78MOL    H9915653   5.367   4.173   2.837  2.9310  0.3493  2.3147
   78MOL   H10015654   5.563   4.030   2.795 -0.3998  0.7066  1.2189
   78MOL   H10115655   5.452   3.905   2.732 -3.3265  0.7614  1.1262
   78MOL   C10215656   5.487   4.084   2.616 -0.7883  0.1236  0.0573
   78MOL   C10315657   5.601   4.019   2.538 -1.1531 -0.0192 -0.0574
   78MOL  Cl10415658   5.758   4.102   2.558  0.1164 -0.1073 -0.1407
   78MOL   C10515659   5.596   3.903   2.470  0.0422  0.3216  0.4355
   78MOL   C10615660   5.712   3.828   2.401 -0.3431 -0.5495 -0.3852
   78MOL   H10715661   5.388   4.077   2.571 -1.2757 -1.0598  1.2662
   78MOL   H10815662   5.509   4.190   2.626  0.6089 -0.2059  0.5850
   78MOL   H10915663   5.499   3.856   2.468 -0.1323  0.7004 -0.6663
   78MOL   H11015664   5.800   3.879   2.438 -1.0914  1.2178 -1.0004
   78MOL   H11115665   5.707   3.726   2.439  0.7336 -0.9787 -1.4006
   78MOL   C11215666   5.711   3.824   2.256  1.0195  0.7029 -0.3173
   78MOL   C11315667   5.575   3.771   2.197  0.4555 -0.3189 -0.4047
   78MOL  Cl11415668   5.463   3.899   2.157  0.1634  0.3098 -0.1720
   78MOL   C11515669   5.533   3.649   2.191  0.0447  0.4983  0.3445
   78MOL   C11615670   5.614   3.525   2.233 -0.2382 -0.7472 -0.6652
   78MOL   H11715671   5.725   3.919   2.204  0.1731 -0.1111 -2.0854
   78MOL   H11815672   5.796   3.764   2.223  2.4969  1.2773  2.2819
   78MOL   H11915673   5.430   3.640   2.157  0.8605 -1.1349 -1.8938
   78MOL   H12015674   5.549   3.473   2.304 -1.3549  1.1552 -0.2788
   78MOL   H12115675   5.704   3.547   2.291 -2.3603  3.8663  1.0872
   78MOL   C12215676   5.648   3.441   2.115 -0.0391  0.3468  0.5950
   78MOL   C12315677   5.739   3.328   2.149  0.8243 -0.3901  0.3581
   78MOL  Cl12415678   5.910   3.383   2.162  0.1054  0.1384  0.0922
   78MOL   C12515679   5.707   3.200   2.162 -0.3892  0.7514 -0.0844
   78MOL   C12615680   5.570   3.152   2.147 -0.2764  0.7937 -0.1589
   78MOL   H12715681   5.562   3.408   2.058  1.5670 -1.5567 -0.7699
   78MOL   H12815682   5.705   3.510   2.053 -0.6745 -0.6601 -1.1509
   78MOL   H12915683   5.781   3.125   2.185 -0.2776  1.4224  1.8475
   78MOL   H13015684   5.498   3.231   2.167 -1.8099 -0.9835  1.5560
   78MOL   H13115685   5.564   3.114   2.044 -0.8643 -0.0174  0.1652
   78MOL   C13215686   5.544   3.017   2.223 -0.5645 -0.8899 -0.1554
   78MOL   C13315687   5.402   2.964   2.187  0.6752  0.0274  0.4421
   78MOL  Cl13415688   5.289   3.057   2.274  0.0659  0.1193  0.2311
   78MOL   C13515689   5.371   2.867   2.103  0.4946  0.4983  0.8684
   78MOL   C13615690   5.462   2.789   2.007  0.7347 -0.7351 -0.8400
   78MOL   H13715691   5.621   2.948   2.190 -0.1297 -0.5873  0.2397
   78MOL   H13815692   5.546   3.031   2.331  0.9871 -0.2618 -0.2525
   78MOL   H13915693   5.266   2.848   2.090  0.6637 -0.9586  1.5163
   78MOL   H14015694   5.564   2.778   2.042  1.2756 -0.8502 -2.4461
   78MOL   H14115695   5.412   2.693   2.020 -0.4646  0.0042  0.1143
   78MOL   C14215696   5.465   2.835   1.858  0.3395  0.2046  0.3574
   78MOL   C14315697   5.547   2.745   1.771 -0.1893 -0.1806 -0.0408
   78MOL  Cl14415698   5.591   2.829   1.624 -0.1275  0.1590  0.3205
   78MOL   C14515699   5.557   2.610   1.773  0.1266  0.2724  0.3748
   78MOL   C14615700   5.638   2.524   1.673 -0.5384 -0.1665 -0.0352
   78MOL   H14715701   5.511   2.934   1.861 -1.0098  0.8520 -0.1729
   78MOL   H14815702   5.364   2.835   1.818  0.5621 -2.0762 -0.2995
   78MOL   H14915703   5.520   2.549   1.855  1.3103  0.6303  1.1942
   78MOL   H15015704   5.690   2.590   1.603  0.3002  0.4827  1.1935
   78MOL   H15115705   5.710   2.467   1.732  1.1670  2.1274  0.2238
   78MOL   C15215706   5.553   2.426   1.593 -0.5597  0.7860  0.1757
   78MOL   C15315707   5.635   2.334   1.504  0.0078  0.1953 -0.4493
   78MOL  Cl15415708   5.525   2.227   1.425  0.3606  0.1682 -0.5463
   78MOL   C15515709   5.764   2.340   1.485  0.3794  0.1199 -0.3149
   78MOL   C15615710   5.842   2.242   1.387  0.1731 -0.0699  0.9216
   78MOL   H15715711   5.491   2.370   1.664  1.5183 -3.5351 -1.2066
   78MOL   H15815712   5.486   2.491   1.537 -2.1114  0.7360  1.9137
   78MOL   H15915713   5.815   2.416   1.542 -0.7459  0.0667  0.7959
   78MOL   H16015714   5.905   2.303   1.322  0.9613 -0.3926  1.3718
   78MOL   H16115715   5.774   2.191   1.319  0.0411 -2.3063  2.6648
   78MOL   C16215716   5.936   2.148   1.469  1.0777  0.4072 -0.5164
   78MOL   C16315717   5.885   2.014   1.513 -0.1493  0.5990  0.2859
   78MOL  Cl16415718   5.830   2.016   1.684  0.1171 -0.1892  0.3117
   78MOL   C16515719   5.880   1.904   1.430  0.4474  0.2168  0.7024
   78MOL   C16615720   5.812   1.772   1.460 -0.2715  0.4947 -0.7266
   78MOL   H16715721   6.025   2.122   1.412  2.2448  1.6194  0.6958
   78MOL   H16815722   5.980   2.194   1.558  2.4465 -0.6183 -0.6373
   78MOL   H16915723   5.925   1.905   1.332  3.1272 -2.9077  1.8149
   78MOL   H17015724   5.714   1.790   1.503  0.5561 -0.4361  1.5905
   78MOL   H17115725   5.777   1.723   1.369 -1.2071 -1.3549  0.6126
   78MOL   C17215726   5.896   1.681   1.551 -0.6739 -0.6782  0.0366
   78MOL   C17315727   5.809   1.558   1.580 -0.9473 -0.5530  0.0788
   78MOL  Cl17415728   5.876   1.423   1.496 -0.0248 -0.1154 -0.0361
   78MOL   C17515729   5.703   1.552   1.657  0.4316  0.1552  0.4042
   78MOL   C17615730   5.634   1.428   1.694  0.2206  0.4961  0.5230
   78MOL   H17715731   5.923   1.728   1.645 -0.9112 -0.1692 -0.1426
   78MOL   H17815732   5.991   1.664   1.500 -0.2550 -0.8026  0.8579
   78MOL   H17915733   5.660   1.643   1.695  0.0041 -0.5872  1.7258
   78MOL   H18015734   5.624   1.446   1.801 -0.4347 -0.9473  0.7152
   78MOL   H18115735   5.702   1.346   1.674 -0.9225 -0.3284 -0.0446
   78MOL   C18215736   5.500   1.408   1.620  0.5643  1.3977 -0.5649
   78MOL   C18315737   5.506   1.327   1.488 -0.1360  0.1833 -0.2895
   78MOL  Cl18415738   5.450   1.163   1.497  0.2023  0.3477 -0.1565
   78MOL   C18515739   5.549   1.381   1.376 -0.3951 -0.2836 -0.0766
   78MOL   C18615740   5.540   1.306   1.245  0.0937 -0.4502  0.5327
   78MOL   H18715741   5.430   1.342   1.671  0.2817  0.9066 -1.5787
   78MOL   H18815742   5.431   1.491   1.605  1.5230  2.0852 -1.2186
   78MOL   H18915743   5.578   1.484   1.385  1.1921 -0.7983  0.7500
   78MOL   H19015744   5.529   1.198   1.248  1.3699 -0.5832  0.8229
   78MOL   H19115745   5.446   1.351   1.213 -0.0930  1.3329  3.4040
   78MOL   C19215746   5.660   1.328   1.151 -0.0008  0.5149 -0.6240
   78MOL   C19315747   5.681   1.478   1.109  0.2564  0.2255  0.5116
   78MOL  Cl19415748   5.826   1.545   1.174 -0.0101 -0.0121 -0.3055
   78MOL   C19515749   5.593   1.552   1.038  0.3022  0.4352  0.0350
   78MOL   C19615750   5.458   1.514   0.972  0.3769  0.3956 -0.5358
   78MOL   H19715751   5.648   1.268   1.061  0.7115 -0.4682 -0.0865
   78MOL   H19815752   5.756   1.291   1.189  0.2547 -0.4949 -2.1971
   78MOL   H19915753   5.624   1.654   1.022 -1.2743  1.3974  2.7053
   78MOL   H20015754   5.392   1.594   1.005 -0.8643 -1.2045  0.9507
   78MOL   H20115755   5.428   1.413   1.002  1.8111 -0.0183 -0.4543
   78MOL   H20215756   5.463   1.528   0.864 -0.3968  1.4598 -0.4413
   79MOL     C115757   2.208   5.402   3.007 -0.3351  0.0922 -0.5719
   79MOL     C215758   2.326   5.424   2.914 -0.0644 -0.0241 -0.2336
   79MOL    Cl315759   2.308   5.326   2.769 -0.1746  0.2908 -0.1937
   79MOL     C415760   2.425   5.514   2.933  0.0956  0.0516 -0.2466
   79MOL     C515761   2.442   5.601   3.055  0.5480 -0.0801 -0.5074
   79MOL     H615762   2.246   5.385   3.108  0.9697  0.9465 -0.9066
   79MOL     H715763   2.144   5.327   2.960  0.3681 -1.8658  1.4726
   79MOL     H815764   2.509   5.520   2.865 -1.6436  1.4875 -2.3582
   79MOL     H915765   2.436   5.705   3.023  2.6824  0.0181 -0.6673
   79MOL    H1015766   2.366   5.590   3.133  1.3147 -3.2736 -0.1421
   79MOL    H1115767   2.148   5.493   3.013  0.4594  0.5805 -0.0193
   79MOL    C1215768   2.574   5.580   3.126 -0.3008  0.8593 -0.0215
   79MOL    C1315769   2.563   5.469   3.228 -0.2350  0.3908 -0.1167
   79MOL   Cl1415770   2.469   5.519   3.361 -0.4466 -0.0175  0.5648
   79MOL    C1515771   2.624   5.344   3.225 -0.5791  0.3802 -0.0569
   79MOL    C1615772   2.719   5.286   3.120  0.6458 -0.2327 -0.1400
   79MOL    H1715773   2.658   5.567   3.058  1.4344  0.3083  2.1671
   79MOL    H1815774   2.588   5.670   3.186  0.9411 -0.6642  2.0332
   79MOL    H1915775   2.605   5.272   3.303 -0.8558  1.9108  1.3198
   79MOL    H2015776   2.679   5.199   3.068  1.2870  0.3102 -1.5695
   79MOL    H2115777   2.747   5.367   3.052 -2.5467  2.2035  1.3351
   79MOL    C2215778   2.850   5.263   3.197 -0.0029  0.4290 -0.1509
   79MOL    C2315779   2.947   5.174   3.120 -0.1051  1.0248 -0.6601
   79MOL   Cl2415780   3.094   5.256   3.071  0.0053 -0.4440 -0.1759
   79MOL    C2515781   2.932   5.035   3.113 -0.5283  0.3628  0.5469
   79MOL    C2615782   3.035   4.934   3.054 -0.0323 -0.4660  0.6496
   79MOL    H2715783   2.898   5.357   3.226  0.6820 -0.4503  1.6253
   79MOL    H2815784   2.836   5.206   3.288  0.3833 -0.6802 -0.7765
   79MOL    H2915785   2.836   4.996   3.144 -0.2034 -1.3565 -0.4990
   79MOL    H3015786   2.981   4.906   2.963 -0.7487  0.8194  0.6640
   79MOL    H3115787   3.126   4.982   3.019  0.7880 -1.8929  0.8035
   79MOL    C3215788   3.061   4.815   3.148 -0.3564 -0.9393 -0.3574
   79MOL    C3315789   3.099   4.855   3.289 -0.0876 -0.0058  0.4607
   79MOL   Cl3415790   2.979   4.793   3.407 -0.0444  0.2056  0.1663
   79MOL    C3515791   3.206   4.938   3.309 -0.3230  0.1402  0.7009
   79MOL    C3615792   3.261   4.980   3.439  0.2114  0.0160 -0.5343
   79MOL    H3715793   2.969   4.758   3.160 -1.9823  1.6855  0.0409
   79MOL    H3815794   3.146   4.757   3.113  0.8372 -0.8560  2.2761
   79MOL    H3915795   3.245   4.973   3.214 -1.7782 -0.2919 -0.0733
   79MOL    H4015796   3.222   4.936   3.531  1.2836  0.6286  0.2210
   79MOL    H4115797   3.368   4.959   3.441  0.5896  1.8722  3.4348
   79MOL    C4215798   3.258   5.136   3.445 -0.2419 -0.2472 -0.3262
   79MOL    C4315799   3.328   5.182   3.576 -0.0570 -0.2343 -0.1996
   79MOL   Cl4415800   3.497   5.170   3.559 -0.2496 -0.0468 -0.0588
   79MOL    C4515801   3.275   5.239   3.684  0.4256  0.1284  1.1051
   79MOL    C4615802   3.127   5.276   3.702 -0.3558  0.1432  0.3123
   79MOL    H4715803   3.317   5.184   3.367  1.4169 -0.3954  0.8203
   79MOL    H4815804   3.153   5.166   3.444  0.2724  1.8386  1.6535
   79MOL    H4915805   3.351   5.273   3.753  1.3914  0.0029  0.1185
   79MOL    H5015806   3.062   5.203   3.653 -0.6895  0.4435  0.3101
   79MOL    H5115807   3.121   5.267   3.810  1.2882  0.4478  0.4418
   79MOL    C5215808   3.111   5.429   3.665 -0.1314  0.7392  0.0087
   79MOL    C5315809   3.096   5.449   3.516  0.0969  0.3256 -0.1133
   79MOL   Cl5415810   2.933   5.411   3.472  0.3674  0.1364  0.3544
   79MOL    C5515811   3.200   5.484   3.434  0.5679  0.0582 -0.4499
   79MOL    C5615812   3.201   5.509   3.283  0.3356  0.2936 -0.2798
   79MOL    H5715813   3.020   5.460   3.717  0.0177  4.0988 -1.6455
   79MOL    H5815814   3.185   5.502   3.696 -1.7923  2.0097  1.0887
   79MOL    H5915815   3.291   5.491   3.491  0.4832  1.5354 -0.4770
   79MOL    H6015816   3.266   5.432   3.240  2.0052 -0.4693  3.4565
   79MOL    H6115817   3.102   5.496   3.240 -0.0260 -1.6367  1.1018
   79MOL    C6215818   3.265   5.649   3.243 -0.0943  0.0834 -0.2757
   79MOL    C6315819   3.258   5.671   3.091  0.0324 -0.6217  0.6653
   79MOL   Cl6415820   3.366   5.787   3.033 -0.1306  0.0956  0.1405
   79MOL    C6515821   3.156   5.633   3.014 -0.0196 -0.0376  0.2010
   79MOL    C6615822   3.146   5.659   2.864 -0.8937  0.3211 -0.6906
   79MOL    H6715823   3.201   5.713   3.304 -0.7542 -2.7516  2.1536
   79MOL    H6815824   3.368   5.660   3.275  0.3414 -0.5827 -1.4374
   79MOL    H6915825   3.068   5.575   3.041 -0.3006  0.1772 -0.2501
   79MOL    H7015826   3.213   5.592   2.810  0.9269  1.0303  0.6246
   79MOL    H7115827   3.189   5.759   2.855 -1.9390  0.6384 -2.2247
   79MOL    C7215828   3.000   5.665   2.811  0.0272 -0.5205 -0.0672
   79MOL    C7315829   2.994   5.695   2.661 -1.0095 -0.1459 -0.1601
   79MOL   Cl7415830   3.043   5.556   2.574 -0.4751 -0.3899  0.1067
   79MOL    C7515831   2.946   5.811   2.602 -0.5935 -0.4261 -0.2535
   79MOL    C7615832   2.941   5.829   2.452  0.5363  1.0521  0.0446
   79MOL    H7715833   2.951   5.746   2.865 -1.8153 -1.4720 -0.2785
   79MOL    H7815834   2.946   5.572   2.828  0.3122 -0.6001  0.4034
   79MOL    H7915835   2.921   5.901   2.656 -2.2196  0.3809 -2.3047
   79MOL    H8015836   2.926   5.728   2.414 -0.7315  2.0044 -2.0837
   79MOL    H8115837   3.030   5.872   2.405  0.0314 -1.2322 -3.1997
   79MOL    C8215838   2.819   5.910   2.416  0.4728 -0.0478 -0.3927
   79MOL    C8315839   2.829   5.969   2.279  0.7815  0.4999 -0.0263
   79MOL   Cl8415840   2.805   5.850   2.152 -0.1643 -0.0170 -0.1814
   79MOL    C8515841   2.821   6.100   2.264 -0.6168 -0.5226 -0.7019
   79MOL    C8615842   2.803   6.170   2.137 -0.2777  0.1491  0.9023
   79MOL    H8715843   2.781   5.980   2.491 -2.1866  0.7888 -2.4355
   79MOL    H8815844   2.739   5.835   2.414 -0.7435  1.1181  1.9236
   79MOL    H8915845   2.820   6.158   2.356  1.3392  1.3221 -1.8021
   79MOL    H9015846   2.813   6.106   2.049 -0.8966 -1.5835  2.0554
   79MOL    H9115847   2.702   6.212   2.141  0.4377  2.0464 -0.6353
   79MOL    C9215848   2.899   6.289   2.117  0.2617 -0.0055  0.7753
   79MOL    C9315849   3.048   6.252   2.128  0.2903  0.3339 -1.0803
   79MOL   Cl9415850   3.101   6.177   1.977 -0.3784  0.0524  0.3595
   79MOL    C9515851   3.133   6.259   2.234 -0.8621  0.0080 -0.1963
   79MOL    C9615852   3.096   6.317   2.371 -0.2508 -0.2681  0.2128
   79MOL    H9715853   2.880   6.387   2.160  0.3715  0.7399 -0.8278
   79MOL    H9815854   2.885   6.322   2.014  0.6740 -1.5542  0.2156
   79MOL    H9915855   3.236   6.227   2.225 -0.3559  1.4856  0.0738
   79MOL   H10015856   2.987   6.310   2.378 -0.2549  1.0398  1.7897
   79MOL   H10115857   3.134   6.258   2.455 -0.0723 -0.4392  0.0096
   79MOL   C10215858   3.152   6.458   2.386 -0.6515  0.2219  0.1808
   79MOL   C10315859   3.114   6.533   2.515 -0.7162  0.8247  0.1730
   79MOL  Cl10415860   3.027   6.681   2.479 -0.1162  0.1093 -0.0207
   79MOL   C10515861   3.141   6.491   2.638 -0.7197 -0.6070  0.0857
   79MOL   C10615862   3.092   6.548   2.770 -0.4229  0.1042  0.8076
   79MOL   H10715863   3.260   6.466   2.382 -0.8122  2.6819 -0.1315
   79MOL   H10815864   3.116   6.519   2.303 -1.4171  0.1092  0.4232
   79MOL   H10915865   3.203   6.404   2.650 -0.8921 -0.9894 -1.5812
   79MOL   H11015866   3.174   6.591   2.828 -0.4544  0.7360  0.3796
   79MOL   H11115867   3.028   6.629   2.738 -0.7955 -0.8405 -0.8617
   79MOL   C11215868   3.018   6.436   2.846 -0.2139  0.5695  0.0355
   79MOL   C11315869   2.868   6.397   2.803  0.0412 -0.0245 -0.8623
   79MOL  Cl11415870   2.858   6.238   2.731  0.2444 -0.0616  0.0309
   79MOL   C11515871   2.761   6.464   2.823 -0.1306  0.1603 -0.2632
   79MOL   C11615872   2.746   6.589   2.908 -0.0309  0.2096  0.4439
   79MOL   H11715873   3.078   6.346   2.835  0.2569  0.8482  0.2716
   79MOL   H11815874   3.029   6.461   2.952  1.7884  0.3289 -0.0917
   79MOL   H11915875   2.669   6.422   2.786 -0.7687  0.6030  0.8189
   79MOL   H12015876   2.838   6.642   2.934 -0.0215  0.0445  0.7476
   79MOL   H12115877   2.694   6.563   3.001 -1.8717  2.6629  0.1540
   79MOL   C12215878   2.661   6.691   2.829  0.6119  0.2870  0.1404
   79MOL   C12315879   2.650   6.815   2.915 -0.1939 -0.4128  0.0798
   79MOL  Cl12415880   2.547   6.805   3.051  0.2063  0.1222  0.0178
   79MOL   C12515881   2.711   6.938   2.890 -0.0395  0.6691 -0.6958
   79MOL   C12615882   2.807   6.965   2.777 -0.2270  0.1199 -0.0441
   79MOL   H12715883   2.690   6.717   2.727 -1.8293  0.4893 -0.5385
   79MOL   H12815884   2.557   6.659   2.822  0.6952  0.3337 -1.7060
   79MOL   H12915885   2.683   7.018   2.957  0.9057 -0.2296  0.8152
   79MOL   H13015886   2.887   7.025   2.821 -0.0963 -0.7597  0.9240
   79MOL   H13115887   2.851   6.869   2.750  1.1042  0.7191 -0.0475
   79MOL   C13215888   2.734   7.046   2.670  0.6666 -0.6168 -0.7323
   79MOL   C13315889   2.825   7.092   2.565 -0.4282  0.4601  0.5466
   79MOL  Cl13415890   2.879   7.251   2.586 -0.0585 -0.3673 -0.0196
   79MOL   C13515891   2.843   7.028   2.444  0.0015 -0.1951  0.3279
   79MOL   C13615892   2.785   6.891   2.403 -0.6874 -0.1076  0.3686
   79MOL   H13715893   2.645   6.998   2.628  0.5481 -1.4405  0.4522
   79MOL   H13815894   2.704   7.136   2.723 -1.2501 -0.9086 -1.2756
   79MOL   H13915895   2.908   7.072   2.369 -0.7703 -0.7031 -0.6495
   79MOL   H14015896   2.853   6.833   2.341 -2.4062 -2.1755  0.3452
   79MOL   H14115897   2.764   6.831   2.491  1.1746  0.2827  1.1061
   79MOL   C14215898   2.659   6.900   2.318  0.2966 -0.1801  0.0601
   79MOL   C14315899   2.595   6.766   2.307 -0.0558  0.3014  0.4530
   79MOL  Cl14415900   2.625   6.700   2.154  0.2376  0.1654 -0.2843
   79MOL   C14515901   2.510   6.702   2.392 -0.2992  0.3339  0.0108
   79MOL   C14615902   2.448   6.566   2.385 -0.0560 -0.0488 -0.6242
   79MOL   H14715903   2.683   6.943   2.220 -0.7778  2.4134  0.8914
   79MOL   H14815904   2.598   6.970   2.375  3.4914  2.2179  0.7447
   79MOL   H14915905   2.494   6.754   2.485  0.1390 -0.5784  0.5966
   79MOL   H15015906   2.342   6.585   2.370 -0.2312 -0.3665  0.2028
   79MOL   H15115907   2.477   6.516   2.292  0.6618 -0.6956 -0.0617
   79MOL   C15215908   2.480   6.481   2.505  0.0411  0.2777  0.0859
   79MOL   C15315909   2.419   6.339   2.505 -1.0839 -0.1816  0.3607
   79MOL  Cl15415910   2.242   6.352   2.482 -0.4052 -0.0611  0.2434
   79MOL   C15515911   2.490   6.225   2.522  0.1138 -0.4341  1.3070
   79MOL   C15615912   2.422   6.099   2.525 -0.1587 -0.4242  0.6628
   79MOL   H15715913   2.588   6.465   2.506 -0.2069 -1.5136  0.0629
   79MOL   H15815914   2.436   6.520   2.597 -0.5991  0.3950 -0.2642
   79MOL   H15915915   2.598   6.218   2.527  0.0584 -0.8161  2.0417
   79MOL   H16015916   2.481   6.027   2.468  3.0175  3.2982 -0.9826
   79MOL   H16115917   2.316   6.096   2.501  0.3622  1.7975 -2.1893
   79MOL   C16215918   2.437   6.043   2.669 -0.1940  1.5865 -0.2834
   79MOL   C16315919   2.396   5.897   2.688  0.5787 -1.1067  0.0041
   79MOL  Cl16415920   2.526   5.793   2.654  0.2876 -0.1160 -0.0140
   79MOL   C16515921   2.271   5.859   2.713  1.0122 -0.4743  0.5802
   79MOL   C16615922   2.220   5.718   2.721 -0.0110 -0.2446 -0.3925
   79MOL   H16715923   2.536   6.051   2.715  0.2061  1.0931 -1.0556
   79MOL   H16815924   2.370   6.099   2.734 -3.9408  1.3855 -3.7690
   79MOL   H16915925   2.204   5.943   2.724  1.3604 -0.2336  0.8638
   79MOL   H17015926   2.285   5.652   2.664 -1.2539 -1.8891  0.0656
   79MOL   H17115927   2.243   5.693   2.825  0.0662 -0.8998 -0.5688
   79MOL   C17215928   2.071   5.713   2.676 -0.4330  0.2516 -0.0463
   79MOL   C17315929   2.036   5.569   2.644  0.4328 -0.4657  0.4030
   79MOL  Cl17415930   2.087   5.520   2.482  0.1012  0.1049 -0.0932
   79MOL   C17515931   1.968   5.489   2.734 -0.2455 -0.5959 -0.5064
   79MOL   C17615932   1.930   5.344   2.714  0.6255  0.2123 -1.0896
   79MOL   H17715933   2.063   5.760   2.578 -1.9436 -0.2046 -0.1589
   79MOL   H17815934   1.999   5.762   2.742 -3.1118 -3.0554 -0.3206
   79MOL   H17915935   1.946   5.539   2.827 -1.1091 -0.3679 -0.8303
   79MOL   H18015936   1.996   5.297   2.788 -2.2687  0.4203  1.7365
   79MOL   H18115937   1.958   5.316   2.613  1.8529  0.0459 -0.7241
   79MOL   C18215938   1.784   5.319   2.742  0.1776  0.0410  0.2572
   79MOL   C18315939   1.756   5.235   2.867 -0.1497  0.3057 -0.7914
   79MOL  Cl18415940   1.840   5.306   3.003 -0.5621  0.0642  0.1187
   79MOL   C18515941   1.682   5.124   2.873 -0.9271 -0.0016 -0.6220
   79MOL   C18615942   1.675   5.030   2.988 -0.5288  0.1110 -0.6432
   79MOL   H18715943   1.736   5.417   2.741 -0.2776 -0.1723 -1.6027
   79MOL   H18815944   1.744   5.272   2.652  0.5790  0.4546 -0.1450
   79MOL   H18915945   1.630   5.089   2.785 -2.2524 -2.6471  1.1415
   79MOL   H19015946   1.700   4.932   2.948 -0.9552 -0.9058  1.5161
   79MOL   H19115947   1.759   5.054   3.054 -2.3863  1.2710  1.3911
   79MOL   C19215948   1.534   5.047   3.064  0.1948 -0.4474  0.0738
   79MOL   C19315949   1.515   4.944   3.172 -0.3423 -0.5199  0.1286
   79MOL  Cl19415950   1.476   4.786   3.109  0.0542 -0.1455 -0.0446
   79MOL   C19515951   1.529   4.957   3.306 -0.1844  0.1320 -0.4843
   79MOL   C19615952   1.571   5.080   3.379  0.0347 -0.3345  0.5231
   79MOL   H19715953   1.451   5.045   2.994  1.0053 -1.0614 -0.8848
   79MOL   H19815954   1.537   5.148   3.105  0.5602 -0.0206 -0.9949
   79MOL   H19915955   1.507   4.865   3.359  1.6852 -1.3991 -2.2612
   79MOL   H20015956   1.477   5.124   3.413  0.5857  2.4447 -1.3879
   79MOL   H20115957   1.630   5.144   3.313 -0.0494 -1.1354 -0.3412
   79MOL   H20215958   1.631   5.050   3.465  0.5945  0.4160  0.4019
   80MOL     C115959   2.435   1.411   7.741  0.1915 -0.1240  0.2685
   80MOL     C215960   2.314   1.325   7.714  0.4992 -0.0141  0.2055
   80MOL    Cl315961   2.337   1.228   7.567 -0.1770  0.0994 -0.4372
   80MOL     C415962   2.192   1.338   7.771 -0.3697  0.8693  0.2112
   80MOL     C515963   2.170   1.442   7.883  0.1405  0.4903 -0.1332
   80MOL     H615964   2.520   1.344   7.726  0.0922  0.2508 -2.1116
   80MOL     H715965   2.452   1.433   7.846  1.1330 -1.2373  0.3660
   80MOL     H815966   2.105   1.282   7.741 -0.0547  0.0475  0.8117
   80MOL     H915967   2.257   1.493   7.925  0.9789 -2.5645  2.0236
   80MOL    H1015968   2.105   1.520   7.843  1.6952  1.2832 -1.1846
   80MOL    H1115969   2.429   1.501   7.680  0.5985 -0.1603  0.1698
   80MOL    C1215970   2.099   1.362   7.993  0.1740  0.8160  0.0078
   80MOL    C1315971   2.098   1.439   8.129 -0.3069  0.3571 -0.2100
   80MOL   Cl1415972   1.948   1.521   8.151 -0.0935 -0.3804  0.3163
   80MOL    C1515973   2.179   1.421   8.239  0.7132  0.5565 -0.3013
   80MOL    C1615974   2.299   1.330   8.247  0.2514  0.7577  0.3089
   80MOL    H1715975   1.995   1.340   7.972  0.6091 -1.4506  0.0886
   80MOL    H1815976   2.151   1.267   8.010  2.3040  1.8680 -0.3934
   80MOL    H1915977   2.158   1.473   8.332 -1.4480  2.5746 -1.8699
   80MOL    H2015978   2.294   1.263   8.333 -0.1266 -0.9103 -1.0073
   80MOL    H2115979   2.298   1.254   8.170 -4.1696 -1.1015  2.0408
   80MOL    C2215980   2.429   1.416   8.253 -0.1479 -0.9381 -0.4568
   80MOL    C2315981   2.553   1.333   8.277 -0.1064  0.1316  0.4589
   80MOL   Cl2415982   2.580   1.321   0.024  0.0385 -0.1252 -0.2693
   80MOL    C2515983   2.643   1.301   8.184 -0.2261  0.0098  0.1514
   80MOL    C2615984   2.775   1.229   8.209  0.1971 -0.4688 -0.7715
   80MOL    H2715985   2.441   1.472   8.161  0.2074  0.9669  0.7318
   80MOL    H2815986   2.428   1.502   8.320 -0.2612 -2.1515  1.1420
   80MOL    H2915987   2.604   1.322   8.086  0.3199 -1.8423 -0.5003
   80MOL    H3015988   2.845   1.299   8.166  0.3046  0.2468  0.5510
   80MOL    H3115989   2.801   1.220   8.314  1.5082 -1.9252 -1.2073
   80MOL    C3215990   2.793   1.091   8.128 -0.3616 -0.2931  0.1928
   80MOL    C3315991   2.939   1.052   8.114  0.0965 -0.3776 -0.2938
   80MOL   Cl3415992   3.027   1.161   8.010  0.4576  0.2861 -0.0737
   80MOL    C3515993   3.003   0.955   8.175  0.3261  0.3216  0.9247
   80MOL    C3615994   3.145   0.920   8.164 -0.5066 -0.4351  0.0684
   80MOL    H3715995   2.739   1.015   8.184 -0.2712 -0.0549  0.6071
   80MOL    H3815996   2.746   1.107   8.031  2.3607 -1.3105 -1.3414
   80MOL    H3915997   2.947   0.890   8.242  0.9688 -0.8640  0.3341
   80MOL    H4015998   3.148   0.814   8.138  1.4819 -0.6529  1.1315
   80MOL    H4115999   3.198   0.971   8.083 -0.0092  1.2291  1.4035
   80MOL    C4216000   3.223   0.957   8.293  0.3838  0.2461  0.4845
   80MOL    C4316001   3.373   0.944   8.274  0.4537 -0.2325 -0.2587
   80MOL   Cl4416002   3.407   0.777   8.283  0.0830  0.1855 -0.2819
   80MOL    C4516003   3.471   1.033   8.245  0.4152  0.2816 -0.6837
   80MOL    C4616004   3.463   1.178   8.230  0.5149  0.0532 -0.2317
   80MOL    H4716005   3.196   1.060   8.314  0.6188  0.7118 -1.4789
   80MOL    H4816006   3.189   0.894   8.376 -0.8894 -0.0152 -0.2283
   80MOL    H4916007   3.572   0.998   8.235  0.3066 -0.3868  0.4347
   80MOL    H5016008   3.362   1.212   8.207  1.2420  3.2174  0.9614
   80MOL    H5116009   3.493   1.211   8.330  0.1594 -2.5130  0.7871
   80MOL    C5216010   3.555   1.232   8.122 -0.3449  0.4841 -0.5699
   80MOL    C5316011   3.557   1.382   8.111 -0.0568 -0.5640 -0.1627
   80MOL   Cl5416012   3.663   1.434   7.983 -0.5931  0.2410 -0.0548
   80MOL    C5516013   3.489   1.469   8.192  0.6010 -0.0027  1.0200
   80MOL    C5616014   3.474   1.620   8.181  0.4341  0.1117  0.4196
   80MOL    H5716015   3.658   1.196   8.128 -1.6352 -3.6403 -1.0860
   80MOL    H5816016   3.526   1.182   8.029  0.4644 -0.8274 -0.1263
   80MOL    H5916017   3.436   1.428   8.276 -0.2494 -0.0504  0.4696
   80MOL    H6016018   3.524   1.662   8.094  0.1414 -0.9359 -0.2637
   80MOL    H6116019   3.367   1.644   8.175  0.9256  1.9943 -1.7819
   80MOL    C6216020   3.524   1.676   8.315 -0.3322  0.3957  0.4406
   80MOL    C6316021   3.479   1.815   8.344  0.2727 -0.0470  0.0641
   80MOL   Cl6416022   3.548   1.930   8.244 -0.4195 -0.5907  0.4491
   80MOL    C6516023   3.377   1.841   0.002 -0.1332 -0.5893 -0.0126
   80MOL    C6616024   3.308   1.977   0.030 -0.0127  0.2734 -0.5044
   80MOL    H6716025   3.482   1.616   8.395 -0.8362  0.0344 -0.0922
   80MOL    H6816026   3.633   1.671   8.321 -0.3631 -2.1118 -0.5476
   80MOL    H6916027   3.340   1.757   0.059  3.5689 -1.2444  1.5711
   80MOL    H7016028   3.365   2.063   8.417 -0.5001  1.4724  1.6653
   80MOL    H7116029   3.306   1.974   0.139 -1.2055  0.8581 -0.4930
   80MOL    C7216030   3.166   1.984   8.392  0.3814 -0.1806  0.0867
   80MOL    C7316031   3.175   1.990   8.244  1.7260  0.3382 -0.3718
   80MOL   Cl7416032   3.189   2.154   8.185 -0.1497  0.2032 -0.1817
   80MOL    C7516033   3.191   1.888   8.161 -0.7009 -0.1901 -0.3159
   80MOL    C7616034   3.217   1.895   8.010  0.1596  0.0515  0.2957
   80MOL    H7716035   3.110   2.068   0.011  1.1677 -0.1766  1.2158
   80MOL    H7816036   3.113   1.891   8.413  0.2426 -0.1078  0.0512
   80MOL    H7916037   3.177   1.790   8.205  0.9837 -0.6316 -0.7296
   80MOL    H8016038   3.323   1.910   7.995  0.4138 -2.6039 -0.8308
   80MOL    H8116039   3.157   1.978   7.970 -0.2884  0.0835  1.0225
   80MOL    C8216040   3.182   1.763   7.933 -0.2168 -0.7940  0.0514
   80MOL    C8316041   3.231   1.775   7.792  0.2286  0.0664 -0.2844
   80MOL   Cl8416042   3.111   1.843   7.688  0.0909  0.0320  0.0028
   80MOL    C8516043   3.350   1.739   7.747 -0.1533 -0.3572 -0.6475
   80MOL    C8616044   3.403   1.761   7.603 -0.0489 -0.1602  0.0048
   80MOL    H8716045   3.073   1.753   7.932 -0.3605  0.5169  0.9464
   80MOL    H8816046   3.219   1.674   7.983 -0.9476 -0.4130  1.2910
   80MOL    H8916047   3.416   1.699   7.822 -0.7156 -0.5299 -0.2461
   80MOL    H9016048   3.325   1.819   7.553 -1.1272  2.5110  4.4436
   80MOL    H9116049   3.493   1.823   7.602 -0.5998  0.6529 -0.6246
   80MOL    C9216050   3.433   1.630   7.539  0.4541  0.2918  0.3558
   80MOL    C9316051   3.320   1.538   7.557  0.7849 -0.1436 -0.1323
   80MOL   Cl9416052   3.195   1.564   7.446  0.1959  0.1286 -0.0756
   80MOL    C9516053   3.315   1.429   7.641  0.7071 -0.2745 -0.1644
   80MOL    C9616054   3.423   1.384   7.744 -0.7584  0.0653  0.0562
   80MOL    H9716055   3.525   1.579   7.566  0.1886 -1.1589 -1.4346
   80MOL    H9816056   3.455   1.664   7.437  1.1707 -0.7022  0.1755
   80MOL    H9916057   3.227   1.367   7.632  0.7127 -0.1370 -1.1779
   80MOL   H10016058   3.500   1.459   7.765  0.0262 -0.8104  0.3158
   80MOL   H10116059   3.372   1.356   7.836 -0.0151 -0.6286  0.2591
   80MOL   C10216060   3.487   1.253   7.713 -0.1223 -0.6198 -0.5527
   80MOL   C10316061   3.582   1.258   7.595  1.2397  0.8679 -0.1198
   80MOL  Cl10416062   3.521   1.187   7.447  0.1195  0.4061  0.2719
   80MOL   C10516063   3.708   1.301   7.610  0.3032 -0.4224 -0.1821
   80MOL   C10616064   3.814   1.312   7.504  0.6017  0.0522  0.0133
   80MOL   H10716065   3.538   1.211   7.800  0.0773  3.8239  1.6271
   80MOL   H10816066   3.414   1.176   7.690 -1.5686 -0.1179  2.1562
   80MOL   H10916067   3.747   1.334   7.706  1.6969 -0.5671 -0.6822
   80MOL   H11016068   3.856   1.213   7.487  3.2323  0.6083  2.8352
   80MOL   H11116069   3.761   1.336   7.412 -1.5551 -1.6448  0.7520
   80MOL   C11216070   3.917   1.421   7.527  0.0311  0.8783 -0.2349
   80MOL   C11316071   3.850   1.557   7.511 -0.3726 -1.0432  0.2300
   80MOL  Cl11416072   3.810   1.631   7.660  0.2229  0.1216  0.1074
   80MOL   C11516073   3.838   1.624   7.394 -0.0445 -0.3476 -1.3484
   80MOL   C11616074   3.876   1.576   7.259  0.2961  0.1721 -0.0222
   80MOL   H11716075   3.954   1.420   7.629 -0.9270  0.9429  0.1147
   80MOL   H11816076   4.005   1.411   7.463 -0.7927 -1.2306 -1.0821
   80MOL   H11916077   3.798   1.725   7.394  1.1359  0.1442  0.0521
   80MOL   H12016078   3.945   1.492   7.268  1.3932  0.8983 -1.5258
   80MOL   H12116079   3.925   1.661   7.212 -0.9734 -0.3247 -2.3482
   80MOL   C12216080   3.753   1.542   7.171  0.1790  0.2936 -0.1035
   80MOL   C12316081   3.802   1.486   7.039 -0.0080 -0.3478 -0.2096
   80MOL  Cl12416082   3.729   1.583   6.913 -0.2812  0.4120  0.0309
   80MOL   C12516083   3.879   1.378   7.014 -0.1634 -1.0020  0.2245
   80MOL   C12616084   3.953   1.276   7.104  0.4645  0.1395  0.7844
   80MOL   H12716085   3.677   1.469   7.200 -1.4341  1.4051 -1.4625
   80MOL   H12816086   3.702   1.637   7.159  0.1948  0.8375  3.6394
   80MOL   H12916087   3.909   1.361   6.912 -1.4734  2.2000 -0.7655
   80MOL   H13016088   3.921   1.301   7.205 -3.0422 -1.4811  0.1704
   80MOL   H13116089   3.924   1.171   7.090  0.6077  0.2299 -0.2354
   80MOL   C13216090   4.106   1.297   7.098 -0.0499  0.7267 -0.2838
   80MOL   C13316091   4.182   1.263   6.974 -0.0240 -0.6462  0.4191
   80MOL  Cl13416092   4.251   1.103   6.976  0.3225 -0.0430  0.2700
   80MOL   C13516093   4.219   1.348   6.874  0.4223  0.1912 -0.2325
   80MOL   C13616094   4.187   1.494   6.860  0.0921 -0.2415  0.1150
   80MOL   H13716095   4.125   1.403   7.117  0.4714  0.3816  1.2325
   80MOL   H13816096   4.149   1.232   7.174  0.3336 -0.0069 -1.1297
   80MOL   H13916097   4.289   1.327   6.794  1.6723  0.1370  0.8592
   80MOL   H14016098   4.144   1.510   6.761  2.9275  0.2474 -1.0929
   80MOL   H14116099   4.105   1.518   6.928  0.7126  0.2289  0.7090
   80MOL   C14216100   4.311   1.590   6.883 -0.0068  0.0775 -0.4665
   80MOL   C14316101   4.286   1.738   6.861  0.2144  0.2773 -0.2143
   80MOL  Cl14416102   4.300   1.780   6.696 -0.3099 -0.0707  0.1726
   80MOL   C14516103   4.272   1.822   6.967 -0.3177 -0.0968 -0.0907
   80MOL   C14616104   4.270   1.979   6.966 -0.0204 -0.7718  0.4446
   80MOL   H14716105   4.389   1.548   6.818  0.7629 -1.5679  1.4614
   80MOL   H14816106   4.343   1.586   6.987 -1.6179 -0.7925  0.0047
   80MOL   H14916107   4.254   1.770   7.060 -0.7858 -2.2993 -1.3605
   80MOL   H15016108   4.171   2.014   6.940 -0.7660 -1.6632  2.0044
   80MOL   H15116109   4.278   2.016   7.069  1.5469 -0.9805  0.4132
   80MOL   C15216110   4.384   2.037   6.885 -0.5174 -0.0748 -0.1682
   80MOL   C15316111   4.420   2.183   6.910  0.0197  0.5776  0.9525
   80MOL  Cl15416112   4.287   2.284   6.955  0.0965  0.1434  0.4697
   80MOL   C15516113   4.544   2.227   6.898 -0.2527  0.1263 -0.4955
   80MOL   C15616114   4.602   2.359   6.927  0.3424 -0.2079  0.2550
   80MOL   H15716115   4.474   1.976   6.891  0.9074  1.8952 -0.8390
   80MOL   H15816116   4.362   2.025   6.780  1.6514  0.0154 -0.6656
   80MOL   H15916117   4.617   2.156   6.862  0.4359  0.8212 -0.4826
   80MOL   H16016118   4.663   2.350   7.017 -0.7867  0.2062  1.0684
   80MOL   H16116119   4.524   2.431   6.951  1.5714  1.2187  0.0524
   80MOL   C16216120   4.683   2.408   6.803 -0.1112 -0.7918 -0.1664
   80MOL   C16316121   4.746   2.545   6.805 -0.2119  0.7719  0.0191
   80MOL  Cl16416122   4.722   2.623   6.655 -0.3121  0.2778 -0.0916
   80MOL   C16516123   4.793   2.598   6.915  0.1206  0.4622  0.5404
   80MOL   C16616124   4.856   2.739   6.920  0.9164 -0.3792  0.7492
   80MOL   H16716125   4.765   2.341   6.774  1.0464 -0.0590  1.3816
   80MOL   H16816126   4.623   2.396   6.713 -0.2405  0.3058 -0.2261
   80MOL   H16916127   4.801   2.531   6.999  0.3340  0.1646  0.2837
   80MOL   H17016128   4.963   2.735   6.937  1.2597  2.9549 -0.2076
   80MOL   H17116129   4.849   2.788   6.823 -1.0596  1.3946  1.7394
   80MOL   C17216130   4.792   2.822   7.034  0.1140 -1.2352  0.3530
   80MOL   C17316131   4.827   2.971   7.034  0.0722  0.4808  0.4399
   80MOL  Cl17416132   4.891   3.015   7.186  0.1129  0.0581  0.2582
   80MOL   C17516133   4.795   3.052   6.929 -0.5674  0.6619 -0.5737
   80MOL   C17616134   4.824   3.201   6.921  0.5026  0.1040 -0.5011
   80MOL   H17716135   4.814   2.768   7.126  3.2493  0.4013  0.6277
   80MOL   H17816136   4.683   2.825   7.026  0.2278 -1.5492 -1.4391
   80MOL   H17916137   4.753   3.017   6.836  0.3658 -3.3446  0.4334
   80MOL   H18016138   4.897   3.225   6.843  0.8302 -2.1919 -0.9334
   80MOL   H18116139   4.856   3.244   7.016  0.1863  0.6088 -0.6187
   80MOL   C18216140   4.689   3.269   6.882 -0.3030  0.1586  0.1116
   80MOL   C18316141   4.711   3.417   6.866 -0.2334 -0.6646  0.1470
   80MOL  Cl18416142   4.682   3.458   6.697 -0.3356 -0.1012  0.3438
   80MOL   C18516143   4.739   3.504   6.971 -0.4143  0.7118 -0.3009
   80MOL   C18616144   4.748   3.650   6.952  0.4566  0.5518  0.2718
   80MOL   H18716145   4.637   3.211   6.806  0.4713  0.4164 -0.6096
   80MOL   H18816146   4.639   3.262   6.979  0.6412 -0.9794  0.5405
   80MOL   H18916147   4.743   3.465   7.071  0.4816  1.8214  0.1039
   80MOL   H19016148   4.712   3.676   6.852 -3.0078 -0.8496  1.0932
   80MOL   H19116149   4.673   3.694   7.018 -0.0407  0.0624  0.0370
   80MOL   C19216150   4.887   3.700   6.991 -0.2889  0.0944 -0.1173
   80MOL   C19316151   4.918   3.846   6.956  0.5690 -0.1076 -0.0710
   80MOL  Cl19416152   4.926   3.944   7.101 -0.3120 -0.0605 -0.0590
   80MOL   C19516153   4.918   3.903   6.831 -0.0690  0.0024  0.2076
   80MOL   C19616154   4.917   3.832   6.699 -0.5780  0.0897  0.1953
   80MOL   H19716155   4.971   3.647   6.944  0.0661  1.6589 -1.2718
   80MOL   H19816156   4.899   3.676   7.097  1.5155  0.9095 -0.1138
   80MOL   H19916157   4.930   4.010   6.819  1.4559 -0.0266  1.3027
   80MOL   H20016158   4.898   3.896   6.613 -0.7111  0.0809  0.2180
   80MOL   H20116159   4.843   3.753   6.710 -1.0494  0.6461  1.0980
   80MOL   H20216160   5.021   3.799   6.699  0.5399  3.3966 -0.2929
   81MOL     C116161   4.605   2.538   3.402 -0.0983 -0.4924  0.0297
   81MOL     C216162   4.560   2.403   3.455 -0.7836  0.4923  0.3947
   81MOL    Cl316163   4.652   2.270   3.392  0.0540  0.2376  0.0496
   81MOL     C416164   4.441   2.368   3.515 -0.2720 -0.2857  0.4831
   81MOL     C516165   4.324   2.468   3.560  0.4837  0.4087 -0.5509
   81MOL     H616166   4.545   2.553   3.312 -0.8471  1.2983  0.8000
   81MOL     H716167   4.712   2.539   3.381 -0.2714  0.8010 -0.9237
   81MOL     H816168   4.417   2.264   3.536  0.6687 -0.7341 -0.6102
   81MOL     H916169   4.290   2.457   3.663  3.2826  0.4024  0.4057
   81MOL    H1016170   4.378   2.562   3.549  3.2716 -1.1289 -0.3424
   81MOL    H1116171   4.583   2.622   3.469  2.2362  0.5033 -0.3789
   81MOL    C1216172   4.203   2.455   3.469  0.5336 -0.2830 -0.5654
   81MOL    C1316173   4.088   2.553   3.502  0.4359 -0.6277 -0.0373
   81MOL   Cl1416174   3.950   2.464   3.560 -0.2812  0.0109  0.1461
   81MOL    C1516175   4.089   2.688   3.497  0.0775 -0.8090  0.4281
   81MOL    C1616176   4.201   2.778   3.456 -0.2945  0.1117  0.7553
   81MOL    H1716177   4.234   2.477   3.366 -0.3840 -0.2631 -0.8460
   81MOL    H1816178   4.169   2.352   3.478 -0.7330  0.3552  2.7027
   81MOL    H1916179   4.003   2.736   3.541 -1.0781 -1.5804 -0.9464
   81MOL    H2016180   4.222   2.850   3.535 -1.5547  0.0137  1.1979
   81MOL    H2116181   4.287   2.718   3.426 -0.0644  1.0225 -0.4478
   81MOL    C2216182   4.172   2.853   3.323  0.2396  0.0737 -0.0494
   81MOL    C2316183   4.162   2.762   3.202  0.3492 -0.1010 -0.5518
   81MOL   Cl2416184   4.295   2.653   3.179  0.2911 -0.0033 -0.3506
   81MOL    C2516185   4.053   2.764   3.120 -0.3529 -0.5478  0.0747
   81MOL    C2616186   4.045   2.706   2.984  0.8389  0.3117 -0.0474
   81MOL    H2716187   4.079   2.909   3.336 -0.7324 -1.7165  0.9936
   81MOL    H2816188   4.237   2.937   3.301 -1.3617  1.5868  0.8695
   81MOL    H2916189   3.976   2.836   3.147  0.1212  0.3349 -0.9050
   81MOL    H3016190   4.126   2.633   2.972  0.7813  0.4000 -1.0500
   81MOL    H3116191   3.949   2.655   2.983 -1.0220  3.6494  0.8011
   81MOL    C3216192   4.044   2.817   2.878  0.4805  0.4096  0.2039
   81MOL    C3316193   4.026   2.771   2.734  0.2443  0.3116  0.1784
   81MOL   Cl3416194   3.887   2.675   2.720  0.3136 -0.3178  0.2030
   81MOL    C3516195   4.104   2.812   2.636 -0.0983  0.2009 -0.7110
   81MOL    C3616196   4.101   2.775   2.487 -0.0357  0.0037  0.3125
   81MOL    H3716197   3.959   2.882   2.901  1.2299  1.2607  0.5757
   81MOL    H3816198   4.132   2.881   2.880  0.5181  0.4547 -1.9591
   81MOL    H3916199   4.178   2.883   2.669  1.1232 -1.3155 -0.1857
   81MOL    H4016200   4.190   2.724   2.450 -0.7082 -1.4023  0.5907
   81MOL    H4116201   4.024   2.699   2.469 -0.0663 -0.4724  2.3609
   81MOL    C4216202   4.080   2.913   2.407 -0.6661 -0.3705  0.7014
   81MOL    C4316203   4.087   2.896   2.258 -0.1486  0.3338  0.2641
   81MOL   Cl4416204   4.249   2.916   2.197 -0.1874  0.4650  0.0119
   81MOL    C4516205   3.984   2.869   2.170 -0.3061  0.6993 -0.4375
   81MOL    C4616206   3.834   2.847   2.206 -0.5920 -0.2908  0.3601
   81MOL    H4716207   3.997   2.965   2.454  0.0106 -1.9623  3.7626
   81MOL    H4816208   4.164   2.980   2.428 -0.0330 -0.5216 -1.2063
   81MOL    H4916209   4.020   2.853   2.069 -1.4993  1.5780 -1.0050
   81MOL    H5016210   3.834   2.875   2.311  2.7727 -0.6879  0.5163
   81MOL    H5116211   3.772   2.909   2.141 -1.2467 -0.6809  0.6020
   81MOL    C5216212   3.797   2.700   2.178 -0.3456  0.3757 -0.3266
   81MOL    C5316213   3.659   2.660   2.221 -0.1020  0.1587  0.0520
   81MOL   Cl5416214   3.627   2.506   2.156 -0.0323 -0.4025  0.0260
   81MOL    C5516215   3.586   2.718   2.311 -0.9458 -0.3882  0.4527
   81MOL    C5616216   3.460   2.665   2.359  0.3291  0.6794 -0.2329
   81MOL    H5716217   3.796   2.685   2.070  0.1247  0.4247 -0.3394
   81MOL    H5816218   3.868   2.646   2.241  0.7026  1.5635 -0.4731
   81MOL    H5916219   3.610   2.811   2.361 -1.4205 -0.4948  0.8808
   81MOL    H6016220   3.385   2.744   2.366 -0.0985  0.1346  1.5688
   81MOL    H6116221   3.424   2.594   2.285  0.8655 -0.4584  0.5830
   81MOL    C6216222   3.477   2.592   2.488 -0.4728  0.0029 -0.2487
   81MOL    C6316223   3.348   2.540   2.548 -0.2284  0.1400 -0.7814
   81MOL   Cl6416224   3.277   2.637   2.676 -0.2167 -0.4224 -0.2219
   81MOL    C6516225   3.283   2.426   2.513  0.1447 -0.0473  0.6453
   81MOL    C6616226   3.161   2.372   2.583 -0.1669 -0.3261  0.0497
   81MOL    H6716227   3.547   2.509   2.480  0.6453  0.7698  1.2649
   81MOL    H6816228   3.532   2.653   2.560 -0.3469 -2.4412  1.8138
   81MOL    H6916229   3.311   2.352   2.440 -0.1720 -0.5196  1.0024
   81MOL    H7016230   3.096   2.454   2.612  0.4727  1.2562 -2.8166
   81MOL    H7116231   3.207   2.323   2.669 -2.9068 -2.4540  0.3917
   81MOL    C7216232   3.077   2.264   2.498  0.4383  0.1604 -0.7789
   81MOL    C7316233   2.955   2.216   2.574  0.0864 -0.2644 -0.6265
   81MOL   Cl7416234   2.985   2.057   2.635 -0.4036 -0.2656 -0.0001
   81MOL    C7516235   2.849   2.295   2.613 -0.0645 -0.1095 -0.1621
   81MOL    C7616236   2.730   2.256   2.699 -0.7806  0.3877 -0.4955
   81MOL    H7716237   3.140   2.178   2.476  1.5024  1.5026 -3.1746
   81MOL    H7816238   3.057   2.325   2.410  0.6820 -0.1288 -1.0367
   81MOL    H7916239   2.838   2.394   2.572  0.2774 -0.2248 -0.5332
   81MOL    H8016240   2.747   2.151   2.723 -1.4398  1.0250  3.1118
   81MOL    H8116241   2.639   2.273   2.642  0.2998  0.8817 -2.0906
   81MOL    C8216242   2.739   2.338   2.820 -0.0727 -0.0555 -0.4659
   81MOL    C8316243   2.620   2.304   2.912  0.4276  0.1601 -0.0547
   81MOL   Cl8416244   2.557   2.438   3.004 -0.5639  0.1101 -0.2261
   81MOL    C8516245   2.559   2.182   2.919 -0.1456 -0.7690 -0.6986
   81MOL    C8616246   2.439   2.152   3.005  0.5056 -0.2637  0.0308
   81MOL    H8716247   2.733   2.445   2.800 -0.7185 -0.1885 -0.9923
   81MOL    H8816248   2.836   2.311   2.862  0.6415  0.0012 -2.0703
   81MOL    H8916249   2.594   2.104   2.853  0.1499  0.0699 -1.5385
   81MOL    H9016250   2.376   2.238   3.029  2.1914  1.0971 -0.3535
   81MOL    H9116251   2.374   2.097   2.937 -0.2539 -0.6270  1.0297
   81MOL    C9216252   2.474   2.063   3.123  0.3733 -0.0044 -0.7882
   81MOL    C9316253   2.363   2.037   3.217 -0.1658 -0.0876 -0.2090
   81MOL   Cl9416254   2.296   1.876   3.198 -0.2550 -0.3307  0.0454
   81MOL    C9516255   2.337   2.117   3.322  0.1865  0.2655  0.0340
   81MOL    C9616256   2.388   2.255   3.355 -0.3702 -0.3166  0.6978
   81MOL    H9716257   2.562   2.094   3.178  1.3048  0.7095 -2.6369
   81MOL    H9816258   2.518   1.971   3.086 -1.0868 -1.0819  0.0812
   81MOL    H9916259   2.270   2.082   3.399 -0.1541  1.2169  0.1717
   81MOL   H10016260   2.413   2.308   3.263 -0.8909  0.6618  1.1153
   81MOL   H10116261   2.303   2.301   3.404 -1.1252 -0.4788 -0.4300
   81MOL   C10216262   2.505   2.249   3.451 -0.0208 -0.1506  0.2141
   81MOL   C10316263   2.565   2.384   3.488  0.3847  0.3021  0.1634
   81MOL  Cl10416264   2.703   2.434   3.389 -0.2124 -0.1855  0.5425
   81MOL   C10516265   2.523   2.466   3.583  0.4701  0.5979 -0.3035
   81MOL   C10616266   2.575   2.605   3.629  0.4993 -0.1458  0.3787
   81MOL   H10716267   2.481   2.195   3.543  0.1808 -1.0400 -0.2535
   81MOL   H10816268   2.586   2.188   3.413 -2.8341 -4.0259  0.1251
   81MOL   H10916269   2.438   2.444   3.646  0.8094  0.0992 -0.0186
   81MOL   H11016270   2.674   2.624   3.587 -0.7085  0.8889 -2.1521
   81MOL   H11116271   2.514   2.691   3.599  1.4201  0.7343  0.9797
   81MOL   C11216272   2.590   2.602   3.781 -0.0688 -0.7119  0.1782
   81MOL   C11316273   2.473   2.552   3.863 -0.7020  0.6996 -0.2323
   81MOL  Cl11416274   2.510   2.395   3.929 -0.0494  0.0660 -0.1529
   81MOL   C11516275   2.360   2.622   3.887 -0.4522 -0.0089  0.3668
   81MOL   C11616276   2.328   2.757   3.830  0.1688 -0.0713  0.3756
   81MOL   H11716277   2.674   2.541   3.815  0.0172  1.0780  3.4414
   81MOL   H11816278   2.626   2.699   3.817 -1.9822  0.3464 -0.6783
   81MOL   H11916279   2.280   2.586   3.949  0.2854 -2.5739 -0.1237
   81MOL   H12016280   2.245   2.753   3.759  0.7763  0.1959 -0.3565
   81MOL   H12116281   2.405   2.798   3.766  2.3204  0.2810  3.1017
   81MOL   C12216282   2.297   2.868   3.939  0.1713  0.1694 -0.1369
   81MOL   C12316283   2.261   2.998   3.882 -0.5853  0.9386  0.1065
   81MOL  Cl12416284   2.093   3.022   3.904  0.0745  0.1005 -0.0968
   81MOL   C12516285   2.340   3.094   3.831  0.7242  0.2335 -0.1478
   81MOL   C12616286   2.490   3.093   3.836  0.2454 -0.3584 -0.7183
   81MOL   H12716287   2.210   2.836   3.994  1.1708 -1.3056  0.6135
   81MOL   H12816288   2.384   2.878   4.005 -1.4931 -0.4237  2.1865
   81MOL   H12916289   2.290   3.175   3.780 -0.0479 -1.2920 -1.8679
   81MOL   H13016290   2.523   3.180   3.892  2.0489  0.0628 -2.3698
   81MOL   H13116291   2.521   3.005   3.893  0.2957  0.6668  0.8491
   81MOL   C13216292   2.564   3.095   3.698  0.5455  0.6431  0.1787
   81MOL   C13316293   2.713   3.105   3.708 -0.0865  0.2846  0.0760
   81MOL  Cl13416294   2.794   2.956   3.716  0.2067 -0.0230  0.0980
   81MOL   C13516295   2.788   3.216   3.712  0.0695  0.4823 -0.5996
   81MOL   C13616296   2.745   3.360   3.702 -0.4321  0.0805 -0.3951
   81MOL   H13716297   2.541   3.001   3.647 -0.0668  1.1151 -0.4242
   81MOL   H13816298   2.525   3.168   3.627  2.0135  0.0717 -1.2332
   81MOL   H13916299   2.896   3.211   3.723 -0.1799 -0.2179  1.8594
   81MOL   H14016300   2.781   3.390   3.604 -0.2662  1.9268  0.2097
   81MOL   H14116301   2.636   3.370   3.703 -0.5925 -1.4085 -1.0541
   81MOL   C14216302   2.818   3.456   3.805  0.1214 -0.3864  0.5601
   81MOL   C14316303   2.746   3.580   3.841 -0.0311 -0.0190  0.0789
   81MOL  Cl14416304   2.795   3.725   3.756  0.0363  0.3919  0.0542
   81MOL   C14516305   2.651   3.584   3.930  0.5398  0.2671  0.7791
   81MOL   C14616306   2.575   3.714   3.973 -0.1321  0.0989  0.3761
   81MOL   H14716307   2.905   3.500   3.756 -0.2490  0.6492  0.8236
   81MOL   H14816308   2.851   3.404   3.895  1.1540 -2.5300 -1.0156
   81MOL   H14916309   2.626   3.490   3.977  2.8691  0.1256  1.8048
   81MOL   H15016310   2.584   3.793   3.899  2.1443 -1.1313 -0.7366
   81MOL   H15116311   2.471   3.682   3.976  0.3000 -1.2781  1.9969
   81MOL   C15216312   2.629   3.768   4.117  0.4476 -0.0016  0.5584
   81MOL   C15316313   2.582   3.912   4.145 -0.1063 -0.4956  0.0798
   81MOL  Cl15416314   2.707   4.022   4.131 -0.0247  0.3576  0.3062
   81MOL   C15516315   2.458   3.937   4.198 -0.2900 -0.6260 -0.1582
   81MOL   C15616316   2.412   4.072   4.242 -0.1528 -0.5002 -0.0393
   81MOL   H15716317   2.586   3.696   4.187  0.6040 -0.3000  0.3509
   81MOL   H15816318   2.738   3.769   4.115  0.4457  2.2944 -0.1598
   81MOL   H15916319   2.383   3.860   4.207 -2.4749  1.2205 -1.8431
   81MOL   H16016320   2.481   4.154   4.220 -0.0904 -0.3983  0.5352
   81MOL   H16116321   2.395   4.068   4.350  0.4949  0.4641  0.1081
   81MOL   C16216322   2.277   4.095   4.184 -0.3911 -0.1696  0.2704
   81MOL   C16316323   2.208   4.219   4.222 -0.0308  0.1333  0.1467
   81MOL  Cl16416324   2.060   4.215   4.134 -0.3579  0.2618  0.1918
   81MOL   C16516325   2.244   4.316   4.306  0.3359 -0.6954  0.6660
   81MOL   C16616326   2.172   4.444   4.344  0.0073  0.3932 -0.2975
   81MOL   H16716327   2.299   4.112   4.079  1.5022 -0.6663  0.5678
   81MOL   H16816328   2.213   4.008   4.186 -0.4483 -0.1193  0.7622
   81MOL   H16916329   2.338   4.300   4.357  0.9905  0.7541 -0.0705
   81MOL   H17016330   2.076   4.449   4.292 -0.2754 -1.1377  0.0456
   81MOL   H17116331   2.142   4.439   4.448  1.1426  0.5167  0.0466
   81MOL   C17216332   2.258   4.570   4.329  0.4956  0.4936  0.3527
   81MOL   C17316333   2.194   4.689   4.403  0.6884 -0.3989 -0.7325
   81MOL  Cl17416334   2.281   4.727   4.543 -0.0566 -0.4553 -0.3689
   81MOL   C17516335   2.083   4.752   4.356 -0.1370 -0.5091 -0.3583
   81MOL   C17616336   2.012   4.866   4.427  0.1802  0.0099 -0.2155
   81MOL   H17716337   2.263   4.600   4.225  0.2156  0.7598  0.4144
   81MOL   H17816338   2.362   4.552   4.358  0.0251 -2.9154  0.1538
   81MOL   H17916339   2.029   4.721   4.268  0.5990  0.6332 -1.2197
   81MOL   H18016340   1.995   4.950   4.360 -0.1877  0.9822  1.0752
   81MOL   H18116341   2.082   4.898   4.505  1.3122 -1.2689 -0.6986
   81MOL   C18216342   1.882   4.812   4.480 -0.5487 -0.0090 -0.7371
   81MOL   C18316343   1.843   4.885   4.608 -0.2000  0.4177  0.2569
   81MOL  Cl18416344   1.864   4.780   4.746  0.4807  0.1569 -0.1437
   81MOL   C18516345   1.781   5.006   4.605 -0.1471 -0.0714  0.6277
   81MOL   C18616346   1.710   5.072   4.720  0.7790 -0.6472  0.4493
   81MOL   H18716347   1.800   4.807   4.408 -0.3202  1.1422 -1.0918
   81MOL   H18816348   1.902   4.708   4.505  1.0484  0.5385  0.3077
   81MOL   H18916349   1.779   5.067   4.516 -0.3871 -0.1772  0.5620
   81MOL   H19016350   1.622   5.014   4.751 -0.5549  0.1658 -1.6885
   81MOL   H19116351   1.782   5.078   4.802  1.1377  0.7755  0.0372
   81MOL   C19216352   1.667   5.215   4.687  0.3565  0.0371 -0.5340
   81MOL   C19316353   1.604   5.291   4.800 -0.1871  0.5413  0.0085
   81MOL  Cl19416354   1.726   5.376   4.896  0.1710  0.2836 -0.0187
   81MOL   C19516355   1.476   5.293   4.844 -0.0077 -0.4522 -0.0615
   81MOL   C19616356   1.356   5.227   4.797  0.0873  0.3350 -0.2303
   81MOL   H19716357   1.608   5.218   4.596 -1.1157  0.1579  0.4033
   81MOL   H19816358   1.764   5.258   4.661  1.7214 -2.5410  0.0943
   81MOL   H19916359   1.461   5.353   4.932  0.8122  0.0986 -0.2941
   81MOL   H20016360   1.327   5.144   4.861 -2.5666  1.0255 -0.5079
   81MOL   H20116361   1.369   5.190   4.695  0.0920 -0.8965  0.2056
   81MOL   H20216362   1.261   5.280   4.800 -0.5813 -0.8078 -0.8095
   82MOL     C116363   1.961   7.922   3.120  0.2617 -0.0967  0.5565
   82MOL     C216364   1.837   7.992   3.072 -0.1383 -0.7815  0.4008
   82MOL    Cl316365   1.704   7.964   3.183  0.0106  0.2686 -0.2305
   82MOL     C416366   1.820   8.053   2.952 -0.2469  0.0362 -0.4266
   82MOL     C516367   1.931   8.081   2.855  0.0429 -0.3277 -0.0570
   82MOL     H616368   2.036   8.001   3.125 -1.4379  1.5965 -0.2081
   82MOL     H716369   1.991   7.841   3.054 -0.6936  0.4478 -0.5605
   82MOL     H816370   1.722   8.089   2.922  0.1665  1.5238 -0.0490
   82MOL     H916371   2.023   8.033   2.888 -0.9335 -0.2787  2.8218
   82MOL    H1016372   1.893   8.033   2.764  0.5488  0.1634 -0.5313
   82MOL    H1116373   1.956   7.886   3.223 -0.1520  1.5993  1.1505
   82MOL    C1216374   1.947   8.237   2.835  0.6073  0.7072  0.2241
   82MOL    C1316375   2.057   8.272   2.732  0.1145  0.1932 -0.3539
   82MOL   Cl1416376   2.213   8.307   2.806  0.1298 -0.0569 -0.2757
   82MOL    C1516377   2.034   8.272   2.597  0.6021 -0.3883  0.0067
   82MOL    C1616378   1.911   8.239   2.525  0.2929  0.4197  0.6042
   82MOL    H1716379   1.856   8.291   2.809  0.5757 -0.1583 -1.5324
   82MOL    H1816380   1.970   8.277   2.934  0.5617  1.3841 -0.0361
   82MOL    H1916381   2.112   8.306   2.532  1.6769 -0.7477  1.0846
   82MOL    H2016382   1.840   8.226   2.606 -0.4895  0.1185 -0.1115
   82MOL    H2116383   1.879   8.326   2.468 -3.0103 -2.3256 -1.9559
   82MOL    C2216384   1.925   8.110   2.447 -0.4239  0.3166 -0.1241
   82MOL    C2316385   1.817   8.104   2.345  0.3896 -0.4335  0.0227
   82MOL   Cl2416386   1.660   8.102   2.416 -0.5852  0.3384  0.1663
   82MOL    C2516387   1.835   8.110   2.212  0.3221  0.1665  0.1085
   82MOL    C2616388   1.730   8.109   2.111  0.2374 -0.1883 -0.2268
   82MOL    H2716389   2.024   8.094   2.404 -1.1147 -3.2597 -0.5698
   82MOL    H2816390   1.908   8.023   2.511 -1.4972  0.9149  0.4161
   82MOL    H2916391   1.934   8.105   2.169 -0.0795  0.9282 -0.8996
   82MOL    H3016392   1.773   8.048   2.032  2.1290 -2.5723  2.5119
   82MOL    H3116393   1.640   8.055   2.141  0.6415 -0.0547  1.2869
   82MOL    C3216394   1.703   8.250   2.051 -0.2950 -0.2970 -0.0946
   82MOL    C3316395   1.580   8.243   1.963 -0.9326  0.4501  0.1806
   82MOL   Cl3416396   1.630   8.226   1.801 -0.1209 -0.2939 -0.2782
   82MOL    C3516397   1.453   8.241   2.010  0.2675  0.9694 -0.1468
   82MOL    C3616398   1.326   8.229   1.928 -0.4240 -0.0431 -0.0712
   82MOL    H3716399   1.683   8.326   2.126 -2.7746  1.2147 -2.1889
   82MOL    H3816400   1.787   8.287   1.992  1.9356 -0.8049  2.6234
   82MOL    H3916401   1.435   8.252   2.116 -0.4578 -0.5645 -0.1114
   82MOL    H4016402   1.359   8.275   1.835  1.4711 -1.4199 -0.1082
   82MOL    H4116403   1.302   8.125   1.908  0.6804 -0.0022 -1.7432
   82MOL    C4216404   1.205   8.301   1.992  0.2186 -0.2878 -0.3223
   82MOL    C4316405   1.068   8.282   1.934 -0.6579  0.4927  0.9572
   82MOL   Cl4416406   1.016   8.126   1.961 -0.4127 -0.0734  0.2361
   82MOL    C4516407   0.993   8.368   1.861 -0.0034  0.3125  0.3773
   82MOL    C4616408   1.037   0.076   1.793  0.4366 -0.5490 -0.4709
   82MOL    H4716409   1.196   8.266   2.094  0.8949 -0.7181 -0.4083
   82MOL    H4816410   1.224   8.409   1.993 -0.5703 -0.1212 -1.8109
   82MOL    H4916411   0.890   8.343   1.836  0.7603 -2.1133 -0.5135
   82MOL    H5016412   1.144   0.093   1.803  0.5349 -1.4097  0.0681
   82MOL    H5116413   1.020   0.070   1.686  0.0924  0.7392 -0.4896
   82MOL    C5216414   0.952   0.208   1.846  0.1275  0.1623  0.6611
   82MOL    C5316415   1.021   0.334   1.804 -0.1320  0.5989 -0.3044
   82MOL   Cl5416416   1.044   0.435   1.937 -0.0773 -0.2527  0.3545
   82MOL    C5516417   1.053   0.360   1.679 -1.1660  0.4419  0.0308
   82MOL    C5616418   1.115   0.488   1.631  0.2921 -0.2617 -0.2842
   82MOL    H5716419   0.853   0.208   1.802 -0.2360  0.1329  1.4800
   82MOL    H5816420   0.949   0.203   1.954  3.1142 -0.2229  0.7770
   82MOL    H5916421   1.037   0.277   1.611 -2.0927 -0.6103  1.4982
   82MOL    H6016422   1.043   0.551   1.578  1.6931  1.2011 -0.4944
   82MOL    H6116423   1.140   0.548   1.719 -1.8730  0.3767 -0.0745
   82MOL    C6216424   1.238   0.457   1.543 -0.2482  0.4486 -0.0470
   82MOL    C6316425   1.351   0.556   1.567 -0.0223  1.1853  0.2790
   82MOL   Cl6416426   1.348   0.687   1.451  0.2171  0.2387 -0.4376
   82MOL    C6516427   1.441   0.545   1.661  0.3199 -0.3858 -0.4922
   82MOL    C6616428   1.544   0.648   1.704  0.2302 -0.0184 -0.6792
   82MOL    H6716429   1.263   0.352   1.556  0.7497  0.6968  0.0826
   82MOL    H6816430   1.211   0.462   1.437 -1.7769  0.1829  0.3241
   82MOL    H6916431   1.439   0.457   1.723 -0.5026 -0.3351 -0.4287
   82MOL    H7016432   1.543   0.733   1.636 -0.3146  0.1346 -0.4863
   82MOL    H7116433   1.638   0.593   1.711  0.8303  1.2320  1.6521
   82MOL    C7216434   1.512   0.712   1.839 -0.1612 -0.4603  0.7666
   82MOL    C7316435   1.403   0.822   1.832  1.3996 -0.3457 -0.3131
   82MOL   Cl7416436   1.248   0.758   1.879  0.0024  0.0478 -0.3739
   82MOL    C7516437   1.431   0.956   1.810 -0.0331 -0.1714 -0.4699
   82MOL    C7616438   1.340   1.076   1.837  0.0329  0.0156  0.2108
   82MOL    H7716439   1.603   0.760   1.875 -0.2101  0.5271 -0.4023
   82MOL    H7816440   1.486   0.640   1.917 -2.6573 -0.5226 -0.0878
   82MOL    H7916441   1.534   0.978   1.787  0.0252 -0.5395 -0.5602
   82MOL    H8016442   1.238   1.052   1.865 -0.3747  0.7591 -0.6278
   82MOL    H8116443   1.341   1.131   1.743  1.9849  0.5270  0.5042
   82MOL    C8216444   1.394   1.181   1.934 -0.0121 -0.0429 -0.5171
   82MOL    C8316445   1.315   1.310   1.936 -0.3290 -0.9210 -0.2891
   82MOL   Cl8416446   1.401   1.428   2.025 -0.1923 -0.2795  0.2133
   82MOL    C8516447   1.191   1.332   1.888 -0.3306  0.0464  0.0806
   82MOL    C8616448   1.111   1.454   1.909 -0.7948  0.6617  0.0443
   82MOL    H8716449   1.497   1.213   1.917 -0.3761  2.1276  1.0943
   82MOL    H8816450   1.399   1.142   2.036  0.3463  2.3097  0.4136
   82MOL    H8916451   1.133   1.262   1.829  1.6824 -0.5561 -1.2191
   82MOL    H9016452   1.035   1.420   1.980  2.8626 -3.6738  2.1258
   82MOL    H9116453   1.176   1.529   1.953  0.0173 -0.5640  0.9740
   82MOL    C9216454   1.044   1.507   1.782  0.2851 -0.1532 -0.4022
   82MOL    C9316455   0.962   1.634   1.808  0.1449  0.3006  0.6755
   82MOL   Cl9416456   0.971   1.695   1.970  0.2285 -0.3509 -0.2443
   82MOL    C9516457   0.897   1.697   1.709 -0.2345  0.0880 -0.4419
   82MOL    C9616458   0.885   1.655   1.565  0.1094 -0.0740 -0.6479
   82MOL    H9716459   0.983   1.427   1.740  0.6917  0.5665 -2.4343
   82MOL    H9816460   1.119   1.541   1.710  1.4962 -1.9895 -0.0476
   82MOL    H9916461   0.840   1.786   1.728 -1.3274 -0.3728 -1.5106
   82MOL   H10016462   0.959   1.581   1.533 -4.3463 -4.7292 -0.9910
   82MOL   H10116463   0.787   1.608   1.554 -0.9288  1.9820 -0.3218
   82MOL   C10216464   0.905   1.779   1.474  0.0491 -0.6950  0.0802
   82MOL   C10316465   1.052   1.828   1.479 -0.3994  0.7235 -0.1438
   82MOL  Cl10416466   1.061   1.976   1.575  0.4727 -0.0132 -0.0065
   82MOL   C10516467   1.163   1.751   1.454 -0.2679  0.6129  0.4245
   82MOL   C10616468   1.308   1.794   1.478  0.1846 -0.0720  0.6068
   82MOL   H10716469   0.873   1.760   1.371  0.4933 -1.6725  0.1148
   82MOL   H10816470   0.830   1.850   1.508  2.4774  1.4649  1.0567
   82MOL   H10916471   1.140   1.655   1.412  2.3576 -0.8020  2.1104
   82MOL   H11016472   1.306   1.853   1.570 -1.1310  0.3295  0.3391
   82MOL   H11116473   1.367   1.706   1.504 -0.6602 -1.1662 -1.0652
   82MOL   C11216474   1.364   1.867   1.360 -0.0024  0.2706 -0.1334
   82MOL   C11316475   1.512   1.899   1.375  0.1239  0.5208 -0.1042
   82MOL  Cl11416476   1.613   1.790   1.284  0.4569  0.2434  0.4659
   82MOL   C11516477   1.558   1.992   1.447 -0.4446  0.1445 -0.1753
   82MOL   C11616478   1.480   2.090   1.531  0.5184  0.0945  0.3310
   82MOL   H11716479   1.351   1.819   1.263  4.2692 -0.8051 -0.2719
   82MOL   H11816480   1.307   1.959   1.347  1.6845  1.4997  0.9219
   82MOL   H11916481   1.664   2.010   1.447 -0.6721  1.7635  2.2952
   82MOL   H12016482   1.378   2.057   1.546  0.7408  0.9232  4.2088
   82MOL   H12116483   1.476   2.183   1.473 -0.0092 -1.4050 -2.1230
   82MOL   C12216484   1.534   2.119   1.672  0.1618 -0.7633 -0.1922
   82MOL   C12316485   1.447   2.211   1.757 -0.3401 -0.0903 -0.7595
   82MOL  Cl12416486   1.412   2.353   1.664  0.0357  0.2576  0.0422
   82MOL   C12516487   1.400   2.197   1.887  0.4840  0.2843  0.4994
   82MOL   C12616488   1.413   2.078   1.978 -0.2542  0.3718  0.6717
   82MOL   H12716489   1.538   2.026   1.728  0.9791  0.3643  1.6671
   82MOL   H12816490   1.639   2.150   1.672  0.0296 -0.2454  2.5553
   82MOL   H12916491   1.346   2.281   1.928 -0.3570  0.6758 -1.3286
   82MOL   H13016492   1.476   2.003   1.930 -3.1900  0.0499 -2.9145
   82MOL   H13116493   1.470   2.109   2.065 -1.1579  0.7153  1.1440
   82MOL   C13216494   1.277   2.018   2.028  0.2599  0.1514 -0.0556
   82MOL   C13316495   1.291   1.876   2.089  0.1728 -0.6638 -0.8299
   82MOL  Cl13416496   1.272   1.889   2.259  0.3472 -0.4222  0.5260
   82MOL   C13516497   1.327   1.763   2.030  0.4242 -0.2342  0.6936
   82MOL   C13616498   1.358   1.748   1.880  0.1652  0.6106 -0.8220
   82MOL   H13716499   1.241   2.078   2.111 -0.2981  0.8206 -0.7784
   82MOL   H13816500   1.192   2.012   1.959  0.6063  1.1044 -0.5677
   82MOL   H13916501   1.343   1.678   2.095  1.1057 -0.6394 -0.0013
   82MOL   H14016502   1.295   1.670   1.836 -0.9323  0.9615  0.1000
   82MOL   H14116503   1.329   1.839   1.827  2.6634  0.6717 -2.1676
   82MOL   C14216504   1.509   1.717   1.862  0.2722 -0.2640 -1.0253
   82MOL   C14316505   1.541   1.656   1.721 -0.1497  0.0328  0.2106
   82MOL  Cl14416506   1.672   1.733   1.637 -0.0349 -0.2203 -0.5529
   82MOL   C14516507   1.493   1.539   1.687 -0.4596  0.3778 -0.0612
   82MOL   C14616508   1.533   1.451   1.570 -0.3685 -0.1738 -0.1744
   82MOL   H14716509   1.552   1.654   1.940  0.8426  0.1119 -1.0328
   82MOL   H14816510   1.556   1.815   1.866 -1.2137  0.3849  1.3305
   82MOL   H14916511   1.412   1.503   1.749 -0.1749 -1.0458 -0.4749
   82MOL   H15016512   1.446   1.451   1.504  0.4705 -0.1485 -1.3084
   82MOL   H15116513   1.607   1.509   1.515  0.9966 -1.8775 -0.1654
   82MOL   C15216514   1.591   1.307   1.609  0.4119 -0.5886 -0.1178
   82MOL   C15316515   1.724   1.328   1.674 -0.6187 -0.4192  0.0017
   82MOL  Cl15416516   1.856   1.281   1.566  0.3581  0.5927 -0.0409
   82MOL   C15516517   1.739   1.371   1.798  0.1261 -0.4568  0.2030
   82MOL   C15616518   1.868   1.387   1.879  0.4660  0.1511  0.0848
   82MOL   H15716519   1.523   1.255   1.677 -1.0229 -0.3739 -1.3577
   82MOL   H15816520   1.601   1.243   1.522 -2.0463 -0.6918 -0.3655
   82MOL   H15916521   1.647   1.395   1.849 -0.0174 -2.4617  0.9407
   82MOL   H16016522   1.948   1.357   1.812 -0.5562  0.2260 -1.2159
   82MOL   H16116523   1.866   1.336   1.975 -1.0898  0.4112  0.2174
   82MOL   C16216524   1.895   1.530   1.924 -0.7732  0.2209 -0.0968
   82MOL   C16316525   2.038   1.553   1.978  0.3149 -0.0263 -0.1109
   82MOL  Cl16416526   2.069   1.436   2.105 -0.2320 -0.2186  0.0259
   82MOL   C16516527   2.118   1.652   1.934  0.3626 -0.1281  0.0491
   82MOL   C16616528   2.257   1.679   1.987 -0.1636 -0.3549 -0.3767
   82MOL   H16716529   1.874   1.603   1.845  2.1512 -0.2368 -1.3562
   82MOL   H16816530   1.822   1.556   2.000 -3.1779 -1.0402 -1.8904
   82MOL   H16916531   2.067   1.708   1.858 -1.0578  1.0723  1.8472
   82MOL   H17016532   2.234   1.739   2.074  0.5157  0.5547 -0.8192
   82MOL   H17116533   2.300   1.582   2.012  0.4264  0.5259  2.1687
   82MOL   C17216534   2.352   1.758   1.886  1.0351 -0.4017  0.5655
   82MOL   C17316535   2.488   1.771   1.950 -0.3578 -0.2233  0.7374
   82MOL  Cl17416536   2.496   1.915   2.040  0.0330 -0.1188  0.1822
   82MOL   C17516537   2.590   1.685   1.939  0.0278  0.0447  0.2983
   82MOL   C17616538   2.729   1.712   1.997 -0.9472 -0.2284 -0.5582
   82MOL   H17716539   2.299   1.852   1.876  0.0057 -0.8731  1.4729
   82MOL   H17816540   2.358   1.719   1.784 -0.3919 -2.2697  1.1687
   82MOL   H17916541   2.572   1.588   1.896  0.8733 -0.2807  0.6665
   82MOL   H18016542   2.768   1.617   2.033 -0.4246  0.0299 -0.4529
   82MOL   H18116543   2.720   1.780   2.082  0.0134  1.4733 -1.7766
   82MOL   C18216544   2.823   1.782   1.896  0.1906 -0.4064 -0.2746
   82MOL   C18316545   2.954   1.814   1.967  0.1902 -0.2316  0.2148
   82MOL  Cl18416546   3.040   1.673   2.017  0.5939 -0.0645  0.1342
   82MOL   C18516547   3.016   1.938   1.963 -1.2182 -0.3763  0.1602
   82MOL   C18616548   3.145   1.970   2.029 -0.4594  0.4296 -0.7052
   82MOL   H18716549   2.850   1.708   1.820  0.9446 -1.4915  1.0219
   82MOL   H18816550   2.778   1.875   1.862 -0.6944 -2.0119 -3.7200
   82MOL   H18916551   2.972   2.019   1.907 -0.0965 -0.1296 -0.3750
   82MOL   H19016552   3.195   1.878   2.059 -2.1486 -0.3256 -0.1164
   82MOL   H19116553   3.217   2.020   1.964  0.7348  0.8689  0.9229
   82MOL   C19216554   3.124   2.038   2.172  0.6628  0.5562  0.5848
   82MOL   C19316555   3.100   2.189   2.151  1.1811  0.1045 -0.6748
   82MOL  Cl19416556   2.933   2.227   2.158  0.1481  0.3070  0.0986
   82MOL   C19516557   3.194   2.287   2.149  0.4241 -0.2538  0.1565
   82MOL   C19616558   3.337   2.266   2.155 -0.4755 -0.2085  0.7227
   82MOL   H19716559   3.204   2.011   2.241  0.1431 -1.7312  0.3456
   82MOL   H19816560   3.039   1.991   2.222  0.6676  2.3520  2.3366
   82MOL   H19916561   3.164   2.388   2.125 -0.7781 -0.3637  1.1625
   82MOL   H20016562   3.361   2.179   2.216 -3.7221 -0.8195  1.2283
   82MOL   H20116563   3.392   2.355   2.185  1.6892 -1.8947  1.8987
   82MOL   H20216564   3.358   2.253   2.049  1.3156 -0.0599  1.0522
   83MOL     C116565   6.290   8.412   5.287  0.2961 -0.7125 -0.0025
   83MOL     C216566   6.422   8.387   5.350  0.0426  0.2947  0.0992
   83MOL    Cl316567   6.475   8.226   5.323 -0.1141 -0.1982 -0.0939
   83MOL     C416568   6.496   0.050   5.425  0.0147  0.0594  0.3471
   83MOL     C516569   6.465   0.198   5.462 -0.0003  0.2025 -0.1042
   83MOL     H616570   6.216   8.400   5.366  0.9746 -0.1735  0.7224
   83MOL     H716571   6.258   8.336   5.216 -0.9268  0.9027 -1.2341
   83MOL     H816572   6.591   0.014   5.461  0.4191 -0.3977 -1.1382
   83MOL     H916573   6.506   0.260   5.382  1.7825 -0.7013  0.0832
   83MOL    H1016574   6.357   0.207   5.449  0.1327  3.2165  0.5895
   83MOL    H1116575   6.287   0.091   5.243  1.7929 -1.1182 -1.0628
   83MOL    C1216576   6.501   0.242   5.604  0.4479  0.5164 -0.9108
   83MOL    C1316577   6.514   0.394   5.625  0.0170 -0.5526  0.3475
   83MOL   Cl1416578   6.648   0.428   5.717 -0.0964 -0.0571  0.3359
   83MOL    C1516579   6.439   0.496   5.570 -0.2358  0.4503  0.3386
   83MOL    C1616580   6.323   0.485   5.480  0.4948 -0.8192  0.3450
   83MOL    H1716581   6.426   0.202   5.672  2.2605 -2.0693 -0.3122
   83MOL    H1816582   6.593   0.188   5.627 -0.0097  0.0294 -0.1893
   83MOL    H1916583   6.469   0.595   5.597  1.7064  0.4172 -1.5441
   83MOL    H2016584   6.355   0.468   5.377 -0.5523 -1.6932  0.1507
   83MOL    H2116585   6.261   0.401   5.513 -0.7162  0.9278  2.6626
   83MOL    C2216586   6.237   0.615   5.478 -0.3587  0.0675 -0.3362
   83MOL    C2316587   6.101   0.595   5.409 -0.4616 -0.3093  0.2703
   83MOL   Cl2416588   5.971   0.560   5.520  0.0228  0.1330  0.0266
   83MOL    C2516589   6.075   0.622   5.279  0.2103  0.1092 -0.7806
   83MOL    C2616590   5.938   0.634   5.212  0.1751 -0.1659 -0.2635
   83MOL    H2716591   6.219   0.635   5.584  0.8567  0.0116 -0.1117
   83MOL    H2816592   6.286   0.705   5.441  2.0921 -0.3520  1.7239
   83MOL    H2916593   6.166   0.642   5.225 -0.6832  0.2778 -2.2800
   83MOL    H3016594   5.916   0.543   5.156  2.2626 -1.4029  0.8553
   83MOL    H3116595   5.856   0.638   5.283 -0.2003  3.4216 -0.8077
   83MOL    C3216596   5.930   0.753   5.115  0.1348  0.2980  0.3827
   83MOL    C3316597   6.042   0.758   5.013  0.5953  0.2102  0.3364
   83MOL   Cl3416598   6.029   0.628   4.905 -0.4002 -0.0923 -0.0034
   83MOL    C3516599   6.135   0.859   5.009  0.1174  0.0360 -0.1336
   83MOL    C3616600   6.256   0.859   4.930 -0.5987 -0.3939  0.3546
   83MOL    H3716601   5.834   0.764   5.066 -0.4388 -0.2075  1.3756
   83MOL    H3816602   5.953   0.845   5.168 -2.1729  1.7309 -1.0242
   83MOL    H3916603   6.120   0.942   5.076 -0.1497 -1.2246  1.4290
   83MOL    H4016604   6.228   0.829   4.828 -2.8384  3.2176 -0.1839
   83MOL    H4116605   6.296   0.958   4.912 -0.2902 -0.2287  1.9574
   83MOL    C4216606   6.364   0.775   4.998 -0.2609 -0.4270 -0.5677
   83MOL    C4316607   6.485   0.747   4.908  0.3899 -0.0473 -0.0654
   83MOL   Cl4416608   6.612   0.861   4.908  0.0547 -0.1922 -0.1837
   83MOL    C4516609   6.517   0.632   4.847  1.1748  0.8301 -0.3260
   83MOL    C4616610   6.418   0.513   4.841 -0.2469 -0.4746  0.4889
   83MOL    H4716611   6.395   0.826   5.090 -0.6694 -1.3011  0.0566
   83MOL    H4816612   6.325   0.680   5.034  0.5603 -1.1908 -1.6783
   83MOL    H4916613   6.612   0.620   4.797  0.7081  0.5396 -1.1493
   83MOL    H5016614   6.314   0.544   4.854 -0.1101  0.0163  0.4011
   83MOL    H5116615   6.416   0.462   4.745  2.6389  0.6612 -0.2167
   83MOL    C5216616   6.470   0.406   4.938 -0.7619  0.1384 -0.2697
   83MOL    C5316617   6.421   0.263   4.908  0.3080 -0.2757  0.3676
   83MOL   Cl5416618   6.242   0.248   4.888  0.5930  0.2208  0.2102
   83MOL    C5516619   6.507   0.162   4.875 -0.0255  0.0428 -0.5160
   83MOL    C5616620   6.480   0.019   4.830 -0.3811 -0.7324 -0.1946
   83MOL    H5716621   6.577   0.405   4.919 -0.5123  4.2226  0.3532
   83MOL    H5816622   6.455   0.433   5.043  0.9940 -1.1818  0.3433
   83MOL    H5916623   6.614   0.181   4.872 -0.2061  1.2426  0.6370
   83MOL    H6016624   6.380   8.414   4.865 -0.1627  0.2434  1.1874
   83MOL    H6116625   6.484   8.420   4.723 -0.4331 -1.4580 -0.0605
   83MOL    C6216626   6.573   8.348   4.911 -0.1830 -0.0915 -0.6279
   83MOL    C6316627   6.561   8.207   4.859 -0.0357 -0.2004 -0.4026
   83MOL   Cl6416628   6.543   8.097   4.993  0.1142  0.3482 -0.5218
   83MOL    C6516629   6.561   8.164   4.728 -0.0589  0.1049  0.3562
   83MOL    C6616630   6.538   8.026   4.675  0.8334 -0.2042  0.3179
   83MOL    H6716631   6.679   8.372   4.903  0.9339 -3.7398  1.8445
   83MOL    H6816632   6.551   8.362   5.017  1.8709  1.7970 -0.4081
   83MOL    H6916633   6.580   8.234   4.647  0.2962 -3.4618 -2.8064
   83MOL    H7016634   6.460   8.037   4.600  2.3349  0.2566 -1.2020
   83MOL    H7116635   6.507   7.956   4.752 -0.1284 -0.3556 -0.1958
   83MOL    C7216636   6.673   7.981   4.605 -0.2551 -0.3403  0.1756
   83MOL    C7316637   6.655   7.850   4.529  0.7724  0.0999  0.0599
   83MOL   Cl7416638   6.542   7.843   4.395  0.1529  0.1744 -0.2940
   83MOL    C7516639   6.736   7.748   4.564 -0.2096  0.4962 -0.4173
   83MOL    C7616640   6.729   7.611   4.504 -0.1003  0.4466  0.0734
   83MOL    H7716641   6.755   7.957   4.673 -0.0107 -0.3776 -0.1289
   83MOL    H7816642   6.710   8.060   4.541 -2.4778  0.3241 -0.3445
   83MOL    H7916643   6.816   7.767   4.634  1.0440 -3.2636 -0.7197
   83MOL    H8016644   6.779   7.601   4.407 -1.0208  1.3900 -0.5127
   83MOL    H8116645   6.625   7.580   4.501 -0.0031 -0.5836  4.1019
   83MOL    C8216646   6.801   7.508   4.583  0.2147  0.2135 -0.6139
   83MOL    C8316647   6.826   7.376   4.503 -0.3490  0.4844 -0.1467
   83MOL   Cl8416648   6.716   7.242   4.542  0.2169 -0.0128  0.7343
   83MOL    C8516649   6.930   7.352   4.423 -0.0036  0.5486 -0.5992
   83MOL    C8616650   6.956   7.237   4.329 -0.1452 -0.2760  0.3382
   83MOL    H8716651   6.743   7.495   4.674  2.4537 -2.6080  0.4704
   83MOL    H8816652   6.897   7.546   4.616  0.0534  0.5123 -0.4923
   83MOL    H8916653   7.004   7.427   4.400 -0.3613  1.3231  0.6883
   83MOL    H9016654   7.014   7.175   4.397 -2.1282 -1.5997  0.8358
   83MOL    H9116655   6.875   7.165   4.330 -0.7570  0.3719 -1.2746
   83MOL    C9216656   7.022   7.262   4.195  0.1756 -0.3836 -0.3973
   83MOL    C9316657   7.078   7.131   4.129  0.6802  0.7545 -0.3292
   83MOL   Cl9416658   6.969   7.069   4.018 -0.1509 -0.2841  0.3865
   83MOL    C9516659   7.200   7.078   4.147 -0.0206  0.2677  0.3093
   83MOL    C9616660   7.298   7.136   4.246  0.1228  0.4134  0.0909
   83MOL    H9716661   7.094   7.344   4.203 -1.2398  0.8518 -0.0418
   83MOL    H9816662   6.950   7.311   4.130 -1.3135 -0.2501  1.3055
   83MOL    H9916663   7.241   6.998   4.087  0.5319  0.8649 -0.1097
   83MOL   H10016664   7.396   7.149   4.201  0.1083 -0.9207 -0.3522
   83MOL   H10116665   7.269   7.236   4.278  2.4197  0.9682  0.4972
   83MOL   C10216666   7.304   7.058   4.380 -0.2766  0.1782  0.2384
   83MOL   C10316667   7.383   6.931   4.369  0.3365 -0.1354  0.3050
   83MOL  Cl10416668   7.290   6.808   4.291  0.0372 -0.3320 -0.3256
   83MOL   C10516669   7.512   6.917   4.403  0.2933  0.4957  0.3605
   83MOL   C10616670   7.604   6.794   4.378 -0.0411 -0.1728 -0.3916
   83MOL   H10716671   7.343   7.128   4.454  0.5315  2.2675 -2.0799
   83MOL   H10816672   7.204   7.042   4.421 -0.1845  0.1125  0.4341
   83MOL   H10916673   7.571   6.994   4.449 -1.0767  1.7948 -0.0339
   83MOL   H11016674   7.540   6.706   4.366  1.7654 -1.7110  1.0413
   83MOL   H11116675   7.654   6.812   4.283 -2.9056  3.0846 -1.4213
   83MOL   C11216676   7.695   6.773   4.498  0.3978  0.5452 -0.3058
   83MOL   C11316677   7.763   6.632   4.498 -0.2003  0.0385 -0.2637
   83MOL  Cl11416678   7.662   6.489   4.487  0.0023  0.0211 -0.3808
   83MOL   C11516679   7.900   6.611   4.490  1.1138 -0.3352  0.1362
   83MOL   C11616680   8.001   6.715   4.495  0.8625  0.2021  0.3864
   83MOL   H11716681   7.774   6.846   4.508  0.8948  0.2414 -1.9615
   83MOL   H11816682   7.637   6.769   4.591  0.0688 -0.1072 -0.5351
   83MOL   H11916683   7.934   6.509   4.484 -0.3950 -0.9317  1.4244
   83MOL   H12016684   8.012   6.745   4.599  2.2195 -1.8792  0.8975
   83MOL   H12116685   7.973   6.796   4.428 -1.7712 -1.5408 -0.7165
   83MOL   C12216686   8.148   6.654   4.477  0.1502  0.3831  0.2422
   83MOL   C12316687   8.193   6.582   4.598 -0.3029 -0.1501 -0.4453
   83MOL  Cl12416688   8.142   6.423   4.590  0.4796 -0.2652  0.2063
   83MOL   C12516689   8.273   6.626   4.699  0.0902 -0.5637 -0.4453
   83MOL   C12616690   8.333   6.766   4.700  0.2504 -0.4097 -0.3325
   83MOL   H12716691   8.142   6.574   4.403 -3.0019  1.0936 -0.3518
   83MOL   H12816692   8.220   6.728   4.442 -0.7099  1.1687  0.1140
   83MOL   H12916693   8.295   6.564   4.784  1.4495 -0.4961 -0.7432
   83MOL   H13016694   8.401   6.767   4.615  0.8421 -1.6827  0.1150
   83MOL   H13116695   8.255   6.839   4.681  1.9933  1.2520 -1.3760
   83MOL   C13216696   8.415   6.802   4.825 -0.1971  0.0560 -0.3371
   83MOL   C13316697   0.048   6.946   4.833  0.3135  0.7410 -0.8699
   83MOL  Cl13416698   0.046   7.023   4.677 -0.0995 -0.0386  0.1674
   83MOL   C13516699   0.095   7.015   4.944  0.4615 -0.5282  0.0862
   83MOL   C13616700   0.117   6.960   5.078  0.2661 -0.1449 -0.1961
   83MOL   H13716701   8.340   6.789   4.902  0.6366 -1.0636  0.3056
   83MOL   H13816702   0.080   6.735   4.828 -2.4722 -2.9996 -0.9241
   83MOL   H13916703   0.123   7.118   4.929 -1.3011 -0.1304 -0.6018
   83MOL   H14016704   0.112   6.851   5.070 -2.2225  0.0157 -1.5080
   83MOL   H14116705   0.219   6.985   5.107 -0.3591  1.1056  0.9811
   83MOL   C14216706   0.010   7.013   5.172  0.1928 -0.2096 -0.1585
   83MOL   C14316707   0.040   6.976   5.321 -0.3593 -0.1691  0.8266
   83MOL  Cl14416708   0.117   7.101   5.418 -0.1542  0.0237 -0.0804
   83MOL   C14516709   0.019   6.848   5.360 -0.6267 -0.0800  0.3395
   83MOL   C14616710   0.048   6.787   5.494  0.0757  0.3386 -0.0001
   83MOL   H14716711   8.340   6.961   5.143  0.2040 -1.0577  1.2708
   83MOL   H14816712   0.001   7.121   5.160  1.7842  0.0680  0.8775
   83MOL   H14916713   8.406   6.772   5.292  0.9901 -0.2896 -0.2346
   83MOL   H15016714   0.125   6.711   5.481 -1.7296 -1.4097 -0.7857
   83MOL   H15116715   0.096   6.866   5.552  0.3782 -0.9101  1.4851
   83MOL   C15216716   8.350   6.739   5.576  1.0646  0.0042 -0.4886
   83MOL   C15316717   8.279   6.618   5.537 -0.2617 -0.1376 -0.6805
   83MOL  Cl15416718   8.155   6.578   5.655  0.6346 -0.0849  0.1517
   83MOL   C15516719   8.310   6.529   5.444 -0.4459  0.2287 -0.3006
   83MOL   C15616720   8.237   6.395   5.423 -0.1792  0.1739  0.3133
   83MOL   H15716721   8.383   6.726   5.679  0.0741 -0.6025 -0.2450
   83MOL   H15816722   8.278   6.819   5.555 -0.2840 -0.5508  1.8607
   83MOL   H15916723   8.396   6.548   5.381 -0.1185 -0.2004  0.0179
   83MOL   H16016724   8.231   6.376   5.316  0.8590 -1.9650  0.6112
   83MOL   H16116725   8.136   6.407   5.463 -0.0719  0.4989  0.4831
   83MOL   C16216726   8.310   6.280   5.487 -0.8754  0.7046 -0.5234
   83MOL   C16316727   0.023   6.243   5.423 -0.1107 -0.6306  0.2966
   83MOL  Cl16416728   0.151   6.286   5.532  0.0014 -0.0691 -0.5765
   83MOL   C16516729   0.040   6.180   5.303 -0.0214  0.3403 -0.0257
   83MOL   C16616730   0.170   6.147   5.231  0.2673  0.2995  0.3810
   83MOL   H16716731   8.317   6.293   5.595  0.9935  2.9405 -0.8759
   83MOL   H16816732   8.245   6.193   5.476  0.1978  0.1216 -2.4089
   83MOL   H16916733   8.370   6.163   5.246 -0.0114 -0.2617  0.1323
   83MOL   H17016734   0.268   6.152   5.278 -1.0560  0.5560  3.1910
   83MOL   H17116735   0.160   6.041   5.206  1.7639  0.4165 -0.7594
   83MOL   C17216736   0.173   6.228   5.097 -0.1777  0.4871 -0.1198
   83MOL   C17316737   0.153   6.376   5.113 -0.6344  0.4044  0.7059
   83MOL  Cl17416738   0.021   6.445   5.023  0.4206 -0.1174  0.1107
   83MOL   C17516739   0.238   6.451   5.190  0.2336  0.4111 -0.1722
   83MOL   C17616740   0.234   6.596   5.205 -0.2769 -0.4092  0.0498
   83MOL   H17716741   0.109   6.182   5.021 -1.5654 -1.5241  2.1819
   83MOL   H17816742   0.272   6.219   5.054 -0.5761 -2.1434 -0.5826
   83MOL   H17916743   0.311   6.408   5.256  0.7293  1.1367 -0.2363
   83MOL   H18016744   0.204   6.597   5.309 -4.9970 -2.4718 -1.1338
   83MOL   H18116745   0.153   6.641   5.148 -1.0967 -0.1264  1.4172
   83MOL   C18216746   0.363   6.671   5.171 -0.5926  0.6892  0.0844
   83MOL   C18316747   0.404   6.657   5.021 -0.7567 -0.1008 -0.4472
   83MOL  Cl18416748   0.464   6.501   4.975 -0.1161  0.5599  0.2140
   83MOL   C18516749   0.386   6.756   4.938  0.3618 -0.5448  1.0335
   83MOL   C18616750   0.411   6.762   4.791 -0.0185  0.2402 -0.0099
   83MOL   H18716751   0.336   6.774   5.194 -2.8368  0.2858 -0.5221
   83MOL   H18816752   0.451   6.644   5.228 -1.0201 -2.9317 -0.8134
   83MOL   H18916753   0.339   6.844   4.981  0.2178  0.2394 -0.6949
   83MOL   H19016754   0.398   6.665   4.744 -0.1983  1.3372 -2.2731
   83MOL   H19116755   0.326   6.817   4.751  1.0097  0.0165 -2.5833
   83MOL   C19216756   0.540   6.831   4.752  0.7777  0.1215  0.0808
   83MOL   C19316757   0.541   6.879   4.603 -0.4001  0.4259 -0.1804
   83MOL  Cl19416758   0.625   6.767   4.493  0.1074  0.2970  0.1351
   83MOL   C19516759   0.494   6.992   4.556  0.2675 -0.4893 -0.1697
   83MOL   C19616760   0.410   7.096   4.631 -0.7473  0.4528 -0.1100
   83MOL   H19716761   0.625   6.764   4.761  0.5264 -0.2306 -0.1367
   83MOL   H19816762   0.564   6.915   4.816  0.0299 -0.8122  1.6011
   83MOL   H19916763   0.521   7.006   4.452 -0.2472  1.8823  0.0062
   83MOL   H20016764   0.313   7.117   4.586 -1.1045 -2.2195 -0.6851
   83MOL   H20116765   0.458   7.193   4.640  1.9362 -0.7016 -1.2713
   83MOL   H20216766   0.376   7.060   4.728 -0.6723  4.0139  1.3002
   84MOL     C116767   3.915   5.491   4.403  0.1706  0.0948  0.0846
   84MOL     C216768   3.835   5.409   4.313  0.8086 -0.5145  0.1796
   84MOL    Cl316769   3.833   5.247   4.377  0.1137 -0.0459 -0.0868
   84MOL     C416770   3.756   5.445   4.211 -0.1509  0.4333  0.2164
   84MOL     C516771   3.758   5.585   4.150 -0.4408 -0.1426  0.0847
   84MOL     H616772   3.976   5.422   4.462 -0.1609 -0.3192 -0.0555
   84MOL     H716773   3.846   5.543   4.470  0.7656  0.4226  0.4489
   84MOL     H816774   3.692   5.368   4.168 -1.4999  1.0794  1.0310
   84MOL     H916775   3.830   5.649   4.202 -0.9307 -0.3855  1.0800
   84MOL    H1016776   3.791   5.572   4.047 -0.7591  1.3153 -0.2112
   84MOL    H1116777   3.983   5.558   4.349 -0.6699  1.4196  0.6341
   84MOL    C1216778   3.618   5.645   4.153 -0.1922 -0.4531 -0.1015
   84MOL    C1316779   3.609   5.769   4.065  0.5747  0.1533  0.6837
   84MOL   Cl1416780   3.606   5.911   4.158 -0.2953 -0.0802 -0.0691
   84MOL    C1516781   3.599   5.767   3.925 -0.3076  0.1173  0.2176
   84MOL    C1616782   3.593   5.639   3.839 -0.3049  0.2669 -0.5398
   84MOL    H1716783   3.552   5.566   4.118 -0.9908  1.6237 -3.5647
   84MOL    H1816784   3.581   5.681   4.249 -1.0152 -3.8253  0.8933
   84MOL    H1916785   3.592   5.864   3.879  1.7447 -0.2851 -1.0186
   84MOL    H2016786   3.620   5.556   3.904  1.9359 -0.3692 -2.2229
   84MOL    H2116787   3.489   5.632   3.808  0.3740 -0.4541 -2.6824
   84MOL    C2216788   3.689   5.635   3.716 -0.4850  0.1764  0.0716
   84MOL    C2316789   3.644   5.744   3.619  0.5039  0.7231 -0.6988
   84MOL   Cl2416790   3.500   5.710   3.527  0.1112  0.1342 -0.2276
   84MOL    C2516791   3.713   5.858   3.595 -0.5442  0.5274  0.3358
   84MOL    C2616792   3.671   5.971   3.504  0.3606 -0.1720  0.2259
   84MOL    H2716793   3.794   5.651   3.740  0.3004  0.2839 -3.1679
   84MOL    H2816794   3.674   5.537   3.671  0.0974  0.4023 -0.6275
   84MOL    H2916795   3.805   5.881   3.646  0.9308 -0.4640 -1.7985
   84MOL    H3016796   3.586   5.944   3.440  1.3779 -1.7602 -0.4842
   84MOL    H3116797   3.632   6.046   3.572  1.3640  1.8080 -1.3497
   84MOL    C3216798   3.778   6.047   3.425 -0.1924  0.3722  0.7040
   84MOL    C3316799   3.729   6.170   3.348  0.3911 -0.2859 -0.0005
   84MOL   Cl3416800   3.727   6.148   3.179  0.3740 -0.0071 -0.4476
   84MOL    C3516801   3.692   6.282   3.412  0.1825 -0.3634 -0.1985
   84MOL    C3616802   3.629   6.395   3.338  0.3675  0.6144  0.3390
   84MOL    H3716803   3.867   6.067   3.484 -0.2183 -1.8348  1.5566
   84MOL    H3816804   3.797   5.965   3.355 -2.7604 -1.4052  1.9997
   84MOL    H3916805   3.698   6.293   3.519  0.5906  1.1059 -0.3579
   84MOL    H4016806   3.639   6.372   3.232  1.5137  1.1880  0.3114
   84MOL    H4116807   3.521   6.397   3.352  0.3136  0.9936 -0.1166
   84MOL    C4216808   3.693   6.534   3.367 -0.7985  0.0117  0.2119
   84MOL    C4316809   3.655   6.633   3.253 -0.3242 -0.1902  0.0215
   84MOL   Cl4416810   3.793   6.678   3.153 -0.0591  0.4189  0.2092
   84MOL    C4516811   3.531   6.689   3.231  0.1924 -0.4881 -0.2761
   84MOL    C4616812   3.397   6.663   3.295  0.3471  0.2059 -0.1147
   84MOL    H4716813   3.649   6.567   3.461 -1.3496  0.4474 -0.1981
   84MOL    H4816814   3.800   6.530   3.385 -0.6810 -0.0226 -0.5043
   84MOL    H4916815   3.530   6.752   3.143  3.4348 -0.6315 -0.4972
   84MOL    H5016816   3.419   6.613   3.389  0.1810 -0.0387 -0.2073
   84MOL    H5116817   3.341   6.750   3.329  1.6417  1.6936 -1.6684
   84MOL    C5216818   3.301   6.592   3.196  1.0975  0.0262 -0.0769
   84MOL    C5316819   3.165   6.556   3.262  0.0359  0.7137  0.4173
   84MOL   Cl5416820   3.169   6.459   3.409  0.2445  0.0592  0.3113
   84MOL    C5516821   3.046   6.586   3.204  0.1112  0.0517  0.2430
   84MOL    C5616822   2.904   6.556   3.257 -0.7646 -0.6657  0.4375
   84MOL    H5716823   3.289   6.641   3.100  1.0331 -2.6379 -1.4609
   84MOL    H5816824   3.342   6.500   3.154  0.6423  0.5513 -1.6984
   84MOL    H5916825   3.059   6.633   3.108  0.0062  2.4664  1.3637
   84MOL    H6016826   2.872   6.468   3.203  2.0485  0.0275 -2.4613
   84MOL    H6116827   2.905   6.537   3.365  1.0122 -0.0568  0.5413
   84MOL    C6216828   2.810   6.677   3.237 -0.3769  0.3256  0.6558
   84MOL    C6316829   2.774   6.764   3.356 -0.0275  0.7560  0.3221
   84MOL   Cl6416830   2.598   6.782   3.376 -0.2421 -0.0069  0.2250
   84MOL    C6516831   2.871   6.825   3.426  0.2265  0.5117 -0.1869
   84MOL    C6616832   2.848   6.922   3.545  0.0499 -0.0612 -0.4890
   84MOL    H6716833   2.859   6.743   3.165  0.7187  0.3837  1.4464
   84MOL    H6816834   2.716   6.643   3.192 -0.6648  1.2301  0.5614
   84MOL    H6916835   2.974   6.808   3.398 -0.0807 -4.4024  1.1861
   84MOL    H7016836   2.741   6.926   3.564 -0.0506 -1.4493 -0.6872
   84MOL    H7116837   2.892   7.019   3.521  2.6187 -0.7405  1.1558
   84MOL    C7216838   2.923   6.884   3.678 -0.2507  0.0642 -1.1443
   84MOL    C7316839   3.073   6.883   3.678  0.2825  0.9430  0.4930
   84MOL   Cl7416840   3.158   7.029   3.712  0.0392  0.0371  0.0960
   84MOL    C7516841   3.142   6.770   3.661 -0.2477 -0.2496  0.8226
   84MOL    C7616842   3.297   6.743   3.660  0.6086  0.6612  0.2319
   84MOL    H7716843   2.889   6.788   3.718  1.0223  0.2202  0.3907
   84MOL    H7816844   2.899   6.957   3.755  0.3145 -1.4235  0.4905
   84MOL    H7916845   3.077   6.685   3.647 -2.7784  1.7392  0.0357
   84MOL    H8016846   3.345   6.822   3.717  0.9946  0.0469  0.7551
   84MOL    H8116847   3.324   6.761   3.556 -1.3501  0.4872 -0.3316
   84MOL    C8216848   3.335   6.608   3.724  0.1995  0.3177  0.2421
   84MOL    C8316849   3.485   6.566   3.725 -0.3269 -0.3148  0.1293
   84MOL   Cl8416850   3.491   6.404   3.729 -0.0560  0.2633 -0.0196
   84MOL    C8516851   3.593   6.650   3.724  0.3642  0.0945  0.3187
   84MOL    C8616852   3.739   6.606   3.731 -0.1150  0.1259 -0.3007
   84MOL    H8716853   3.277   6.534   3.669  0.8797  0.2212 -0.3358
   84MOL    H8816854   3.301   6.589   3.827  2.1911 -2.4362  0.4614
   84MOL    H8916855   3.558   6.752   3.718 -2.0315 -0.8168 -2.1251
   84MOL    H9016856   3.759   6.538   3.814  2.8813  0.1080 -0.9857
   84MOL    H9116857   3.770   6.547   3.644 -1.5898 -1.6970  0.3750
   84MOL    C9216858   3.836   6.722   3.720  0.3939  0.0480 -0.0688
   84MOL    C9316859   3.978   6.682   3.768  0.1842 -0.6521  0.0257
   84MOL   Cl9416860   3.979   6.662   3.938 -0.1016 -0.4269 -0.0032
   84MOL    C9516861   4.088   6.653   3.695 -0.4706 -0.5836 -0.1539
   84MOL    C9616862   4.098   6.647   3.545  0.1171  0.1926  0.0215
   84MOL    H9716863   3.800   6.807   3.778  0.9183  1.3232 -1.5497
   84MOL    H9816864   3.841   6.769   3.621  3.0265  0.1182  0.0545
   84MOL    H9916865   4.180   6.622   3.743  1.3916  2.5705 -1.5474
   84MOL   H10016866   3.996   6.659   3.506 -0.7281  3.0876  2.9344
   84MOL   H10116867   4.160   6.732   3.517 -0.7666  0.9720  0.4036
   84MOL   C10216868   4.159   6.506   3.501 -0.5910 -0.0091 -0.2293
   84MOL   C10316869   4.167   6.498   3.348 -0.0014 -0.5108 -0.2160
   84MOL  Cl10416870   4.314   6.574   3.301  0.2020 -0.1528 -0.5648
   84MOL   C10516871   4.088   6.430   3.267 -0.0883  0.1162  0.4145
   84MOL   C10616872   4.099   6.413   3.118 -0.3931 -0.0805 -0.3489
   84MOL   H10716873   4.253   6.494   3.554  0.3685  0.5517 -1.7713
   84MOL   H10816874   4.092   6.423   3.524 -1.7640  0.6576 -1.1709
   84MOL   H10916875   4.005   6.377   3.312  1.0446 -1.8212  0.2809
   84MOL   H11016876   4.039   6.496   3.080  1.8857  1.2055 -1.3142
   84MOL   H11116877   4.198   6.438   3.078 -0.5693  1.7677  0.2992
   84MOL   C11216878   4.050   6.280   3.064  0.2337 -0.4684  0.0704
   84MOL   C11316879   4.039   6.280   2.913  0.7648 -0.3288  0.1347
   84MOL  Cl11416880   4.204   6.294   2.839  0.2796 -0.2760 -0.3679
   84MOL   C11516881   3.935   6.289   2.832  0.5358 -1.0372  0.1918
   84MOL   C11616882   3.790   6.299   2.854  0.0252 -0.2544 -0.5476
   84MOL   H11716883   4.117   6.198   3.085 -1.3736 -1.4239  1.5722
   84MOL   H11816884   3.954   6.241   3.097 -0.1159 -1.0106 -1.5033
   84MOL   H11916885   3.967   6.299   2.729  1.1953 -0.4617  0.4467
   84MOL   H12016886   3.767   6.330   2.956 -1.5878  0.8644 -1.2300
   84MOL   H12116887   3.761   6.195   2.839  5.2490 -2.4499  3.0697
   84MOL   C12216888   3.713   6.393   2.770  0.2571  0.0182  0.3987
   84MOL   C12316889   3.564   6.380   2.801 -0.1925  0.4086 -0.9781
   84MOL  Cl12416890   3.508   6.526   2.879 -0.0802 -0.3335 -0.1077
   84MOL   C12516891   3.479   6.288   2.748  0.1800  0.1632 -0.6544
   84MOL   C12616892   3.525   6.175   2.659 -0.3347  0.3488  0.1500
   84MOL   H12716893   3.754   6.491   2.795 -1.4332  0.0427  3.3271
   84MOL   H12816894   3.726   6.381   2.663  0.1775 -0.5559  0.4542
   84MOL   H12916895   3.376   6.297   2.780  0.0807 -1.0378 -0.6304
   84MOL   H13016896   3.506   6.213   2.559 -0.4422  2.1256  0.8354
   84MOL   H13116897   3.631   6.150   2.661 -0.5330 -0.6400 -1.1650
   84MOL   C13216898   3.449   6.048   2.696 -0.0202  0.1686  0.7950
   84MOL   C13316899   3.308   6.050   2.644 -0.1686  0.1260 -0.0656
   84MOL  Cl13416900   3.191   6.080   2.771 -0.1613  0.0664 -0.1877
   84MOL   C13516901   3.269   6.029   2.518 -0.3943 -0.0874 -0.2168
   84MOL   C13616902   3.355   6.000   2.395 -0.3390  0.4507  0.6781
   84MOL   H13716903   3.500   5.965   2.647  0.2118 -0.0447  1.3947
   84MOL   H13816904   3.451   6.015   2.800  1.6470 -0.6049  0.5395
   84MOL   H13916905   3.163   6.035   2.501 -0.7668 -2.5828  1.0119
   84MOL   H14016906   3.370   6.094   2.344 -0.8613  1.3461  2.1422
   84MOL   H14116907   3.457   5.974   2.423 -0.2737 -0.3251 -0.2538
   84MOL   C14216908   3.282   5.903   2.291 -0.4845 -0.2023  0.1030
   84MOL   C14316909   3.365   5.871   2.179 -0.1332 -0.0333  0.1884
   84MOL  Cl14416910   3.404   6.004   2.075 -0.3060  0.2488 -0.3221
   84MOL   C14516911   3.418   5.748   2.151  0.3195  0.4443  0.1184
   84MOL   C14616912   3.508   5.714   2.040  0.2952  0.2386  0.0885
   84MOL   H14716913   3.191   5.949   2.252 -1.5495 -1.8134  0.6631
   84MOL   H14816914   3.256   5.812   2.344  1.1012  1.2555  3.5400
   84MOL   H14916915   3.387   5.667   2.215 -0.6613  0.5831 -0.1776
   84MOL   H15016916   3.450   5.701   1.949  1.3850 -2.1144 -0.3204
   84MOL   H15116917   3.571   5.795   2.005  0.9891 -0.4270 -0.2163
   84MOL   C15216918   3.595   5.585   2.065 -0.5831 -0.0140  0.0165
   84MOL   C15316919   3.658   5.532   1.935  0.1500 -0.2945 -0.5118
   84MOL  Cl15416920   3.780   5.645   1.877 -0.0320 -0.3078 -0.2475
   84MOL   C15516921   3.617   5.419   1.878  0.0998  0.0593 -0.0752
   84MOL   C15616922   3.682   5.357   1.755 -0.4395 -0.3640  0.7842
   84MOL   H15716923   3.663   5.616   2.144 -0.2957 -1.7545  0.4790
   84MOL   H15816924   3.532   5.506   2.106 -1.9921  1.4488  0.6731
   84MOL   H15916925   3.529   5.366   1.909 -1.1781  1.3525 -1.4142
   84MOL   H16016926   3.773   5.302   1.778  0.8305  1.5899  0.4566
   84MOL   H16116927   3.700   5.436   1.682 -0.6393 -1.9980 -1.0792
   84MOL   C16216928   3.595   5.253   1.679  0.0310  0.0992 -0.2835
   84MOL   C16316929   3.460   5.302   1.621 -0.4708 -0.0269  0.9229
   84MOL  Cl16416930   3.330   5.232   1.712  0.2160 -0.4836  0.0953
   84MOL   C16516931   3.437   5.381   1.512  0.5442  0.0590  0.1624
   84MOL   C16616932   3.297   5.429   1.463 -0.3134  0.2202 -0.6312
   84MOL   H16716933   3.643   5.206   1.593 -2.7342  0.7205 -2.2461
   84MOL   H16816934   3.582   5.166   1.743 -2.2116 -0.5772 -1.5698
   84MOL   H16916935   3.523   5.419   1.458  1.1605  0.1908  1.2289
   84MOL   H17016936   3.256   5.342   1.413  0.4892 -2.0543  2.5345
   84MOL   H17116937   3.236   5.441   1.553  0.6392  1.4249 -0.1263
   84MOL   C17216938   3.309   5.561   1.375 -0.4207  0.2873 -0.0663
   84MOL   C17316939   3.319   5.535   1.227  0.4064  0.2371  1.4668
   84MOL  Cl17416940   3.207   5.632   1.132 -0.0809  0.1290 -0.0250
   84MOL   C17516941   3.401   5.445   1.172  0.5844  0.2936  0.2847
   84MOL   C17616942   3.422   5.408   1.022 -0.0028  0.1693  0.6424
   84MOL   H17716943   3.375   5.644   1.402  0.3927 -0.2460 -0.3779
   84MOL   H17816944   3.210   5.605   1.378  0.3097  2.0177 -0.5964
   84MOL   H17916945   3.461   5.385   1.238  0.6532  0.2469  0.1814
   84MOL   H18016946   3.351   5.456   0.956 -0.3265  0.0664  0.9123
   84MOL   H18116947   3.400   5.302   1.007 -2.2125  0.5081  1.2919
   84MOL   C18216948   3.564   5.440   0.987 -0.2186  0.6590 -0.3723
   84MOL   C18316949   3.599   5.400   0.844  0.5992 -0.1453  1.1543
   84MOL  Cl18416950   3.652   5.231   0.831  0.1948 -0.1266  0.1187
   84MOL   C18516951   3.581   5.477   0.732 -1.2010 -0.5138  0.0707
   84MOL   C18616952   3.610   5.436   0.594 -0.6530  0.3198 -0.2689
   84MOL   H18716953   3.569   5.549   0.996 -1.4456  0.6883  0.0439
   84MOL   H18816954   3.642   5.398   1.050 -1.1109  1.9779  1.6881
   84MOL   H18916955   3.541   5.576   0.749 -1.7306 -1.1302  2.6816
   84MOL   H19016956   3.695   5.500   0.571  1.3145 -2.3464 -0.5092
   84MOL   H19116957   3.651   5.336   0.582  0.8374  0.6912  1.4530
   84MOL   C19216958   3.488   5.476   0.506 -0.5556 -0.4879  0.1560
   84MOL   C19316959   3.522   5.475   0.362  0.6623  0.3479  0.0203
   84MOL  Cl19416960   3.525   5.634   0.299 -0.3768  0.2326  0.1824
   84MOL   C19516961   3.558   5.366   0.288 -0.4417 -0.0911 -0.5259
   84MOL   C19616962   3.550   5.229   0.339 -0.1469 -0.0331 -0.4842
   84MOL   H19716963   3.449   5.572   0.538  1.6707  0.1249  1.1885
   84MOL   H19816964   3.408   5.403   0.522 -0.1180 -1.5025 -2.0895
   84MOL   H19916965   3.594   5.370   0.186  2.1245  2.3006  0.4081
   84MOL   H20016966   3.526   5.210   0.444 -0.6901 -1.4026 -0.8417
   84MOL   H20116967   3.646   5.185   0.312 -1.3832 -3.1979  0.0386
   84MOL   H20216968   3.475   5.164   0.293  0.9401 -2.3400  0.8789
   85MOL     C116969   6.853   5.846   0.558 -0.8732  0.0997 -0.7155
   85MOL     C216970   6.912   5.884   0.691 -0.0218  0.9464  0.2985
   85MOL    Cl316971   7.025   5.760   0.732  0.0783  0.4804  0.0318
   85MOL     C416972   6.894   5.998   0.760 -0.0344  0.1269  0.4159
   85MOL     C516973   6.800   6.112   0.732  0.4688 -0.3296  0.5853
   85MOL     H616974   6.790   5.924   0.514  0.7884  1.8884 -0.0065
   85MOL     H716975   6.788   5.760   0.575 -0.5630  0.5278  3.0572
   85MOL     H816976   6.954   6.004   0.849  1.8780 -2.8618 -0.5927
   85MOL     H916977   6.866   6.193   0.699 -0.9203  0.7217  0.3197
   85MOL    H1016978   6.734   6.093   0.648  0.0026  0.4943  0.7533
   85MOL    H1116979   6.940   5.816   0.499  0.0376  0.6147  0.3619
   85MOL    C1216980   6.732   6.162   0.864  0.0229  0.2375 -0.2449
   85MOL    C1316981   6.643   6.280   0.838  1.4073  0.2382  0.9141
   85MOL   Cl1416982   6.479   6.237   0.807  0.0550  0.0918 -0.0796
   85MOL    C1516983   6.685   6.411   0.851 -0.1573  0.7426 -0.3863
   85MOL    C1616984   6.824   6.466   0.883  0.6357 -0.1119 -0.4657
   85MOL    H1716985   6.682   6.077   0.911  1.2119 -0.5031 -0.2918
   85MOL    H1816986   6.805   6.204   0.934 -1.6925  1.2869  0.9376
   85MOL    H1916987   6.607   6.486   0.845  0.0990  1.0423 -0.0022
   85MOL    H2016988   6.909   6.399   0.869  1.0418  0.0917  0.8946
   85MOL    H2116989   6.826   6.538   0.801 -0.5593 -1.4351 -1.6916
   85MOL    C2216990   6.821   6.536   1.026  0.5332 -0.5620 -1.0765
   85MOL    C2316991   6.948   6.580   1.097  0.1864 -0.1294 -0.4523
   85MOL   Cl2416992   7.082   6.537   1.004  0.0079  0.1324  0.5144
   85MOL    C2516993   6.949   6.626   1.223 -0.5896  0.6162  0.4806
   85MOL    C2616994   7.081   6.652   1.309 -0.3808  0.4731  0.4582
   85MOL    H2716995   6.758   6.625   1.014  0.6998 -0.6241 -2.5204
   85MOL    H2816996   6.771   6.473   1.099  0.0408  1.2663  0.1935
   85MOL    H2916997   6.865   6.650   1.286  0.0051 -0.3198  1.6626
   85MOL    H3016998   7.089   6.578   1.389 -0.1130  1.3423  1.2425
   85MOL    H3116999   7.170   6.626   1.251 -1.1775 -0.2006 -0.4716
   85MOL    C3217000   7.087   6.798   1.358  0.1105  0.0934 -0.4687
   85MOL    C3317001   7.204   6.829   1.451 -0.2907  0.4677  0.2267
   85MOL   Cl3417002   7.312   6.933   1.361 -0.0295 -0.0791  0.2473
   85MOL    C3517003   7.208   6.810   1.585 -0.7389 -0.2560  0.2959
   85MOL    C3617004   7.316   6.848   1.682 -0.1370  0.0593 -0.1602
   85MOL    H3717005   7.094   6.866   1.273 -0.3501  2.1326  1.0665
   85MOL    H3817006   6.995   6.826   1.411  0.3243 -2.2263  1.2117
   85MOL    H3917007   7.134   6.755   1.642 -1.1445 -0.6269 -0.5746
   85MOL    H4017008   7.357   6.757   1.727  0.9272 -0.7653 -2.7185
   85MOL    H4117009   7.387   6.912   1.629 -0.8311  1.2737  0.3499
   85MOL    C4217010   7.252   6.931   1.796 -0.6061  0.2591  0.5199
   85MOL    C4317011   7.360   6.998   1.886  0.3411  0.4601 -0.2550
   85MOL   Cl4417012   7.445   6.871   1.967 -0.1514 -0.1560  0.1590
   85MOL    C4517013   7.378   7.129   1.908 -0.0266  0.1518 -0.7183
   85MOL    C4617014   7.302   7.238   1.835 -0.1856  0.6597  0.0080
   85MOL    H4717015   7.187   7.008   1.755  0.7739  0.3492 -1.5738
   85MOL    H4817016   7.177   6.883   1.860  0.6326 -0.3608  1.5259
   85MOL    H4917017   7.463   7.153   1.971 -0.8866  0.7982  0.1924
   85MOL    H5017018   7.359   7.234   1.741  0.8443  0.3225  0.6363
   85MOL    H5117019   7.196   7.214   1.829 -0.0796  0.2874 -0.4315
   85MOL    C5217020   7.322   7.370   1.901  0.4168 -0.4600  0.1007
   85MOL    C5317021   7.245   7.489   1.838  0.9089 -0.0108 -0.1112
   85MOL   Cl5417022   7.293   7.636   1.907 -0.5221 -0.3356 -0.1927
   85MOL    C5517023   7.155   7.484   1.736 -0.0877  0.2427 -0.4133
   85MOL    C5617024   7.080   7.608   1.677  0.4798  0.4396 -0.6127
   85MOL    H5717025   7.294   7.352   2.005 -0.9107 -0.7726 -0.3051
   85MOL    H5817026   7.428   7.396   1.911 -0.0292  1.1544  0.7014
   85MOL    H5917027   7.136   7.386   1.693  2.0617 -0.2567 -0.2967
   85MOL    H6017028   7.116   7.704   1.714  0.3338 -0.1748  1.2034
   85MOL    H6117029   7.094   7.622   1.570  1.9853  1.2350 -0.3257
   85MOL    C6217030   6.927   7.599   1.684 -0.7787 -0.5728 -0.7100
   85MOL    C6317031   6.849   7.716   1.638  0.1297  0.0333 -0.1066
   85MOL   Cl6417032   6.899   7.788   1.490  0.3395 -0.6355  0.5182
   85MOL    C6517033   6.735   7.747   1.704  0.5489 -0.8365 -0.3004
   85MOL    C6617034   6.640   7.856   1.665 -0.2245 -0.1227 -0.1457
   85MOL    H6717035   6.891   7.503   1.646 -3.0828 -0.2856  0.7213
   85MOL    H6817036   6.906   7.585   1.790 -1.8655  1.7686 -0.5851
   85MOL    H6917037   6.717   7.694   1.796 -0.8887  1.4664  0.8047
   85MOL    H7017038   6.699   7.937   1.622  0.5488  0.0940  1.2869
   85MOL    H7117039   6.597   7.891   1.759  1.8758  1.1889  0.3623
   85MOL    C7217040   6.536   7.802   1.563 -0.6403 -0.4569  0.0819
   85MOL    C7317041   6.442   7.901   1.491 -0.3069 -0.2268 -0.2273
   85MOL   Cl7417042   6.391   7.838   1.341  0.0922  0.0580 -0.0782
   85MOL    C7517043   6.422   8.026   1.524 -0.0080 -0.1221  0.2456
   85MOL    C7617044   6.342   8.134   1.453  0.0012 -0.2636 -0.4176
   85MOL    H7717045   6.479   7.722   1.611 -1.1064  0.0141  0.3112
   85MOL    H7817046   6.589   7.750   1.483  0.3347 -0.2987  0.6115
   85MOL    H7917047   6.472   8.063   1.612  0.1310  0.6010 -0.1354
   85MOL    H8017048   6.327   8.101   1.350 -1.1921  1.5566 -0.8606
   85MOL    H8117049   6.406   8.222   1.463  0.8575 -0.9644  0.2567
   85MOL    C8217050   6.204   8.163   1.514  0.2281 -0.4204  0.4486
   85MOL    C8317051   6.123   8.271   1.446  0.8734  0.0309  0.1727
   85MOL   Cl8417052   5.993   8.206   1.360 -0.0574  0.2446  0.1524
   85MOL    C8517053   6.137   8.403   1.456  0.1215  0.8084  0.2172
   85MOL    C8617054   6.055   0.076   1.377 -0.0780 -0.5220  0.0024
   85MOL    H8717055   6.227   8.193   1.616 -2.7494  0.0033  1.0498
   85MOL    H8817056   6.153   8.067   1.522  2.6313 -1.9516 -1.9791
   85MOL    H8917057   6.225   0.026   1.502  1.8311 -1.0593 -1.1583
   85MOL    H9017058   6.105   0.084   1.280  2.7784 -1.1375  1.3748
   85MOL    H9117059   5.954   0.040   1.360 -0.5546  1.0045 -0.4477
   85MOL    C9217060   6.050   0.224   1.430  0.2044 -0.1113  0.2367
   85MOL    C9317061   5.961   0.258   1.550 -0.1195 -0.8034 -0.2450
   85MOL   Cl9417062   6.054   0.320   1.685 -0.1944 -0.1451  0.1466
   85MOL    C9517063   5.829   0.246   1.552  0.0345  1.1784 -0.6679
   85MOL    C9617064   5.735   0.212   1.434 -0.2952  0.0491 -0.4963
   85MOL    H9717065   6.017   0.279   1.343 -2.5372 -0.7458  0.8272
   85MOL    H9817066   6.151   0.258   1.455  0.4095  0.6691 -1.5879
   85MOL    H9917067   5.781   0.262   1.647  0.1515 -1.6231 -0.0764
   85MOL   H10017068   5.658   0.289   1.434  1.1914  1.5683 -0.6059
   85MOL   H10117069   5.791   0.214   1.340  2.0956 -1.9175  0.8392
   85MOL   C10217070   5.666   0.075   1.454 -0.7386 -0.5705  0.7436
   85MOL   C10317071   5.613   0.026   1.325 -0.3363 -0.0037  0.4583
   85MOL  Cl10417072   5.713   8.334   1.244  0.3890  0.2003  0.3619
   85MOL   C10517073   5.488   0.059   1.284 -0.9863  0.5341 -0.1816
   85MOL   C10617074   5.419   0.006   1.160 -0.0438 -0.2358  0.0925
   85MOL   H10717075   5.742   0.005   1.490  0.1319 -0.4665 -0.8555
   85MOL   H10817076   5.588   0.078   1.530 -1.8318  0.7815 -0.4250
   85MOL   H10917077   5.442   0.131   1.349 -1.2401  0.5041 -0.3274
   85MOL   H11017078   5.390   0.098   1.109  0.6296  0.6524  1.3167
   85MOL   H11117079   5.484   8.370   1.094  0.4358 -2.7244  2.6176
   85MOL   C11217080   5.302   8.343   1.192  0.4371 -0.5137 -0.3056
   85MOL   C11317081   5.232   8.291   1.070 -0.6178  0.4837  0.4068
   85MOL  Cl11417082   5.192   8.417   0.957 -0.2934 -0.0136  0.1437
   85MOL   C11517083   5.205   8.163   1.036  0.4687 -0.0390 -1.3156
   85MOL   C11617084   5.229   8.027   1.119  0.3157 -0.5373  0.2781
   85MOL   H11717085   5.320   8.273   1.273 -0.4532 -1.5713 -1.0160
   85MOL   H11817086   5.233   8.419   1.229  1.3526  0.0579  0.2880
   85MOL   H11917087   5.148   8.137   0.948  1.4143  1.5103 -2.4140
   85MOL   H12017088   5.297   8.043   1.202  0.2697  3.2681 -0.3378
   85MOL   H12117089   5.291   7.963   1.056  0.6898  0.4867 -0.4076
   85MOL   C12217090   5.099   7.962   1.180  0.3159 -0.3687 -0.5978
   85MOL   C12317091   5.133   7.829   1.238 -0.5344 -0.0140 -0.7085
   85MOL  Cl12417092   5.249   7.838   1.374 -0.3074 -0.3327  0.1705
   85MOL   C12517093   5.089   7.714   1.193  0.1440 -0.7036 -0.1266
   85MOL   C12617094   4.976   7.687   1.097 -0.0440  0.4108 -0.0896
   85MOL   H12717095   5.069   8.027   1.262  1.9553  1.7397 -1.6348
   85MOL   H12817096   5.027   7.952   1.099 -2.3111  1.4486  1.4265
   85MOL   H12917097   5.126   7.618   1.225  1.1734  0.2474  1.6014
   85MOL   H13017098   4.938   7.784   1.064 -1.2370 -0.0463 -0.0744
   85MOL   H13117099   5.019   7.633   1.013  0.5695 -1.2967  1.2869
   85MOL   C13217100   4.862   7.599   1.155 -0.0485 -0.4517 -0.3532
   85MOL   C13317101   4.733   7.595   1.068  0.3756 -1.0087  0.5866
   85MOL  Cl13417102   4.589   7.643   1.153  0.3423 -0.0449  0.1158
   85MOL   C13517103   4.718   7.566   0.935 -0.2395 -0.0302 -0.6301
   85MOL   C13617104   4.824   7.520   0.836  0.4048  0.0452 -0.0030
   85MOL   H13717105   4.890   7.494   1.147  0.4352 -0.3183 -0.4099
   85MOL   H13817106   4.849   7.617   1.262  3.2536  0.2676 -0.0104
   85MOL   H13917107   4.619   7.577   0.894 -1.2559 -1.0141  1.4613
   85MOL   H14017108   4.902   7.457   0.880  0.1349  0.4529  1.0648
   85MOL   H14117109   4.776   7.447   0.770  2.1903 -0.5360 -0.6880
   85MOL   C14217110   4.879   7.638   0.744  0.7047  0.5295 -0.3847
   85MOL   C14317111   4.991   7.603   0.648 -0.1802 -0.7864 -0.0697
   85MOL  Cl14417112   5.125   7.717   0.653  0.0730  0.4532 -0.1459
   85MOL   C14517113   5.000   7.493   0.577 -0.2193  0.0510  0.0688
   85MOL   C14617114   5.108   7.467   0.473  0.7860  0.0222 -0.0298
   85MOL   H14717115   4.922   7.710   0.814 -3.4494  1.4102  1.4364
   85MOL   H14817116   4.802   7.689   0.686  0.8744  0.2021 -0.8987
   85MOL   H14917117   4.930   7.413   0.596 -0.1827  1.1991  6.1492
   85MOL   H15017118   5.069   7.421   0.383 -1.1994 -0.8284  1.2374
   85MOL   H15117119   5.168   7.553   0.444  1.2307 -0.7808 -1.5904
   85MOL   C15217120   5.210   7.366   0.530 -0.2843  0.7368 -0.0573
   85MOL   C15317121   5.326   7.332   0.436 -0.3142  0.0810  0.5439
   85MOL  Cl15417122   5.295   7.347   0.267  0.2313 -0.2805 -0.0823
   85MOL   C15517123   5.450   7.286   0.477 -0.0516 -0.1495 -0.0049
   85MOL   C15617124   5.565   7.240   0.396 -1.1901 -0.3961 -0.1996
   85MOL   H15717125   5.238   7.395   0.631  0.5496  1.2749 -0.4430
   85MOL   H15817126   5.159   7.270   0.542  1.1104  0.0209  0.2350
   85MOL   H15917127   5.466   7.283   0.583  1.7099  0.4307 -0.2391
   85MOL   H16017128   5.647   7.313   0.396 -2.1202  0.7102  2.7866
   85MOL   H16117129   5.540   7.222   0.291  0.4762 -0.9148 -0.5207
   85MOL   C16217130   5.618   7.102   0.449  0.3513  0.4420 -0.3925
   85MOL   C16317131   5.737   7.050   0.381 -0.0599  0.2991  0.5173
   85MOL  Cl16417132   5.828   6.954   0.493 -0.2875  0.1492  0.0202
   85MOL   C16517133   5.778   7.073   0.255 -0.2965  0.4239  0.3845
   85MOL   C16617134   5.911   7.020   0.203  0.9887 -0.0551  0.1750
   85MOL   H16717135   5.623   7.095   0.557 -1.2463  0.1319 -0.3219
   85MOL   H16817136   5.539   7.030   0.429 -0.5685  1.5137 -0.6759
   85MOL   H16917137   5.713   7.128   0.188  1.0233  0.3269 -1.0202
   85MOL   H17017138   5.946   6.931   0.256 -2.1213 -1.1487  0.5097
   85MOL   H17117139   5.894   6.980   0.104  0.5155 -0.0473  0.2505
   85MOL   C17217140   6.026   7.114   0.190  0.4639 -0.2729  0.0482
   85MOL   C17317141   6.150   7.048   0.163 -0.1042 -0.1021  0.4430
   85MOL  Cl17417142   6.168   6.989   8.420  0.0456 -0.3082  0.2318
   85MOL   C17517143   6.241   7.019   0.256 -0.4390 -0.2975 -0.3181
   85MOL   C17617144   6.378   6.951   0.237 -0.4952 -0.2156 -1.0650
   85MOL   H17717145   6.027   7.170   0.283  0.5752  0.2261 -0.2528
   85MOL   H17817146   6.009   7.179   0.104 -0.6305 -2.3210 -1.3399
   85MOL   H17917147   6.224   7.059   0.355 -1.7293  1.9553 -1.4103
   85MOL   H18017148   6.384   6.882   0.153  1.6146 -0.1867 -0.9619
   85MOL   H18117149   6.396   6.894   0.328 -3.3849  2.8619  1.5689
   85MOL   C18217150   6.490   7.059   0.219 -0.1633  0.2883 -0.1374
   85MOL   C18317151   6.629   6.995   0.230  0.5697 -0.1475 -0.1256
   85MOL  Cl18417152   6.683   6.987   0.394  0.1431  0.2995 -0.2710
   85MOL   C18517153   6.702   6.946   0.130 -0.3368 -0.2009  0.1752
   85MOL   C18617154   6.836   6.878   0.136 -0.8485 -0.0723  0.2169
   85MOL   H18717155   6.479   7.105   0.121 -0.7083 -0.4634 -0.4358
   85MOL   H18817156   6.466   7.129   0.298  0.5342  0.4804 -0.0908
   85MOL   H18917157   6.657   6.973   0.036  0.0578 -0.8904 -0.2072
   85MOL   H19017158   6.898   6.912   0.219 -4.2180  0.5726  2.5708
   85MOL   H19117159   6.828   6.770   0.149 -1.0736  0.1727  2.2687
   85MOL   C19217160   6.910   6.921   0.011 -0.1875 -0.2453 -0.0495
   85MOL   C19317161   7.059   6.897   0.007  1.1284  0.3108 -0.4349
   85MOL  Cl19417162   7.096   6.739   8.373  0.0103 -0.1346 -0.1617
   85MOL   C19517163   7.147   6.988   0.053 -1.0757 -0.3146  0.0395
   85MOL   C19617164   7.112   7.124   0.102 -0.0075  0.7721  0.3732
   85MOL   H19717165   6.885   7.025   8.409  1.4254  0.3068  0.6533
   85MOL   H19817166   6.876   6.867   8.343 -1.6064 -2.0064  1.5222
   85MOL   H19917167   7.253   6.970   0.052 -1.0402 -0.2049  0.9446
   85MOL   H20017168   7.199   7.164   0.153 -0.8621 -0.7317  3.1549
   85MOL   H20117169   7.035   7.132   0.179  1.7502  1.0903  2.1433
   85MOL   H20217170   7.082   7.187   0.018 -2.4763 -1.6934 -0.7043
   86MOL     C117171   3.476   7.316   4.770  0.0307  0.3311 -0.4138
   86MOL     C217172   3.350   7.388   4.820 -0.0706  0.0175  0.4621
   86MOL    Cl317173   3.396   7.539   4.888 -0.0330  0.2005  0.0132
   86MOL     C417174   3.224   7.344   4.822 -0.0212 -0.0541  0.2956
   86MOL     C517175   3.172   7.215   4.775  0.1278  0.0250 -0.4145
   86MOL     H617176   3.477   7.217   4.815 -1.4398  0.4948 -0.0186
   86MOL     H717177   3.563   7.371   4.808 -0.5249  2.1940 -1.7599
   86MOL     H817178   3.148   7.407   4.866 -2.2393 -1.2342 -1.6779
   86MOL     H917179   3.262   7.165   4.741  0.4696  1.1939 -1.2751
   86MOL    H1017180   3.142   7.171   4.870  0.8150  2.3115  0.9014
   86MOL    H1117181   3.462   7.307   4.662 -0.7904 -1.3599 -0.1823
   86MOL    C1217182   3.061   7.237   4.676  0.3816 -0.5048 -0.1248
   86MOL    C1317183   2.972   7.112   4.665 -0.9596 -0.7990  0.0055
   86MOL   Cl1417184   3.024   7.010   4.530  0.0132 -0.0195  0.3542
   86MOL    C1517185   2.883   7.067   4.759  0.3111  0.2367 -0.0833
   86MOL    C1617186   2.834   7.140   4.882 -0.0807  0.3889 -0.0833
   86MOL    H1717187   2.993   7.320   4.694  1.3351  0.3831 -0.5870
   86MOL    H1817188   3.102   7.262   4.579 -0.4318 -1.0734 -0.6201
   86MOL    H1917189   2.839   6.970   4.739 -3.4496  1.9861 -0.6494
   86MOL    H2017190   2.843   7.248   4.872  0.0079  0.1016 -3.7460
   86MOL    H2117191   2.726   7.129   4.893 -0.3516  4.1438  2.1875
   86MOL    C2217192   2.900   7.091   5.003 -0.6059  0.1036 -0.3846
   86MOL    C2317193   2.934   7.200   5.101 -0.4785 -0.4372  0.2235
   86MOL   Cl2417194   2.783   7.282   5.138 -0.1055  0.3535  0.1838
   86MOL    C2517195   3.051   7.220   5.162  0.4803  0.6614 -0.3124
   86MOL    C2617196   3.074   7.325   5.269 -0.0870 -0.5478  0.0607
   86MOL    H2717197   2.838   7.017   5.054  1.2073 -0.0140  1.7564
   86MOL    H2817198   2.989   7.039   4.967 -0.4433  1.6541 -2.2775
   86MOL    H2917199   3.137   7.160   5.139 -0.7712 -1.6977  0.9126
   86MOL    H3017200   3.156   7.392   5.243  0.8312 -1.3342  0.8867
   86MOL    H3117201   2.983   7.386   5.273 -0.7508 -1.5773  0.9503
   86MOL    C3217202   3.111   7.266   5.400  0.0776 -0.2256 -0.7737
   86MOL    C3317203   3.108   7.354   5.524  0.2205 -1.5058 -0.9406
   86MOL   Cl3417204   3.051   7.264   5.665 -0.0472  0.5717 -0.3934
   86MOL    C3517205   3.136   7.487   5.526 -0.3108 -0.3328 -0.0700
   86MOL    C3617206   3.133   7.577   5.647  0.5928 -0.2633  0.6330
   86MOL    H3717207   3.051   7.178   5.426  0.1832 -0.0143  0.2222
   86MOL    H3817208   3.212   7.225   5.392  0.4611  0.8881 -1.8053
   86MOL    H3917209   3.161   7.522   5.427 -0.6655 -0.0982 -0.0779
   86MOL    H4017210   3.102   7.515   5.731 -0.1957 -1.5954 -0.6262
   86MOL    H4117211   3.234   7.607   5.674  0.2935 -1.4317  3.1876
   86MOL    C4217212   3.039   7.694   5.633 -0.9437  0.5117 -0.5027
   86MOL    C4317213   2.897   7.658   5.583 -0.7656  0.0675 -0.8335
   86MOL   Cl4417214   2.809   7.571   5.714 -0.4120 -0.1669  0.3904
   86MOL    C4517215   2.846   7.677   5.459 -0.3084 -0.3331  0.5617
   86MOL    C4617216   2.916   7.747   5.346  0.2028 -0.1575 -0.5440
   86MOL    H4717217   3.026   7.740   5.731  0.2752  0.5713 -0.3635
   86MOL    H4817218   3.078   7.773   5.568 -0.5521  0.4875 -0.2963
   86MOL    H4917219   2.743   7.656   5.436 -0.9553  1.3814  1.7725
   86MOL    H5017220   2.892   7.853   5.346  2.3474  0.3430 -0.1471
   86MOL    H5117221   3.023   7.731   5.360 -0.0456  0.5085  2.2216
   86MOL    C5217222   2.882   7.688   5.208 -0.9117  0.1925  0.4227
   86MOL    C5317223   2.982   7.720   5.102  0.2251  0.4963  0.4362
   86MOL   Cl5417224   3.032   7.586   5.009  0.0371 -0.3384 -0.0683
   86MOL    C5517225   3.033   7.847   5.087  0.0193 -0.0049  0.7082
   86MOL    C5617226   3.145   7.893   4.989 -0.0120 -0.1379  0.6824
   86MOL    H5717227   2.862   7.581   5.210 -1.4758  0.2395 -1.6096
   86MOL    H5817228   2.793   7.740   5.172 -1.0752 -1.4901 -1.6770
   86MOL    H5917229   2.990   7.921   5.152 -1.5115  0.6690 -1.0378
   86MOL    H6017230   3.208   7.808   4.961 -0.2985  0.5536 -2.3313
   86MOL    H6117231   3.100   7.943   4.903  0.5280 -0.0718  0.4319
   86MOL    C6217232   3.228   7.990   5.078 -0.3480  0.4631  0.3222
   86MOL    C6317233   3.355   8.038   5.009  0.6503  0.1608  0.3080
   86MOL   Cl6417234   3.486   8.057   5.116 -0.4300 -0.1624  0.4094
   86MOL    C6517235   3.354   8.084   4.885 -0.0831  0.1813  0.0016
   86MOL    C6617236   3.475   8.150   4.810  0.2442  0.6237  0.0062
   86MOL    H6717237   3.168   8.074   5.112  1.3532  0.8859  2.4365
   86MOL    H6817238   3.244   7.952   5.179 -2.3366 -0.2566  0.3705
   86MOL    H6917239   3.261   8.074   4.831 -0.8523 -0.6861  1.4630
   86MOL    H7017240   3.571   8.108   4.840  1.4161  3.5197  0.4842
   86MOL    H7117241   3.485   8.257   4.830 -0.7948  1.0158 -1.4637
   86MOL    C7217242   3.461   8.134   4.663  0.4875 -0.0510 -0.0880
   86MOL    C7317243   3.493   7.998   4.606  0.0432 -0.1214 -0.3608
   86MOL   Cl7417244   3.365   7.920   4.515  0.0761  0.4812 -0.0757
   86MOL    C7517245   3.611   7.935   4.625  0.1416  1.1507 -0.0989
   86MOL    C7617246   3.646   7.798   4.569  0.1234 -0.2034 -0.5752
   86MOL    H7717247   3.531   8.207   4.621 -0.0705  1.9397  2.3419
   86MOL    H7817248   3.365   8.160   4.619 -0.1287 -2.2651 -0.1351
   86MOL    H7917249   3.683   7.986   4.687  0.3491 -0.6440  1.1777
   86MOL    H8017250   3.749   7.814   4.539 -0.4177 -0.9093 -2.9095
   86MOL    H8117251   3.601   7.760   4.477  0.9635 -1.3533 -0.5115
   86MOL    C8217252   3.651   7.691   4.679 -0.3111 -0.2686  0.2753
   86MOL    C8317253   3.742   7.575   4.652 -0.3541 -0.2840 -0.1691
   86MOL   Cl8417254   3.879   7.574   4.753 -0.1104  0.0162  0.1577
   86MOL    C8517255   3.717   7.472   4.569 -0.5706 -0.2161 -0.5420
   86MOL    C8617256   3.792   7.345   4.564 -0.2306  0.5938  0.8215
   86MOL    H8717257   3.558   7.644   4.710 -0.9019  0.9647  0.4031
   86MOL    H8817258   3.686   7.741   4.769  0.2581  1.3750 -0.8229
   86MOL    H8917259   3.629   7.484   4.506 -1.5720  0.5043  0.9536
   86MOL    H9017260   3.893   7.352   4.605 -0.5145  0.9477  1.4755
   86MOL    H9117261   3.732   7.269   4.614  0.5798  0.8578  2.2130
   86MOL    C9217262   3.809   7.312   4.410  0.3360 -0.7973  0.4633
   86MOL    C9317263   3.872   7.176   4.384  0.7499 -0.5849  0.2731
   86MOL   Cl9417264   4.024   7.169   4.473 -0.0882  0.1519 -0.4364
   86MOL    C9517265   3.835   7.076   4.296  0.0022  0.1976  0.2282
   86MOL    C9617266   3.709   7.073   4.212  0.0881  0.2611  0.0380
   86MOL    H9717267   3.867   7.388   4.356  1.5766 -1.1543  1.2651
   86MOL    H9817268   3.708   7.300   4.371  0.2182 -2.8600  1.3485
   86MOL    H9917269   3.899   6.990   4.307 -0.6047 -0.1759  0.9057
   86MOL   H10017270   3.632   7.143   4.243  0.7767  1.0017  0.0713
   86MOL   H10117271   3.730   7.097   4.108 -1.0374  0.6725 -0.1019
   86MOL   C10217272   3.647   6.933   4.228  0.0633 -0.5505 -0.0412
   86MOL   C10317273   3.520   6.926   4.140  0.3996  0.1004 -0.0126
   86MOL  Cl10417274   3.560   6.899   3.976 -0.0316  0.0429  0.0178
   86MOL   C10517275   3.393   6.939   4.194 -0.5850 -0.1281  0.0995
   86MOL   C10617276   3.259   6.957   4.120 -0.4163  0.3446  0.0952
   86MOL   H10717277   3.710   6.852   4.191 -0.0511 -0.3557 -0.6757
   86MOL   H10817278   3.631   6.916   4.334 -1.1004  2.9516  0.4067
   86MOL   H10917279   3.387   6.952   4.301  2.3937  0.6376  0.2334
   86MOL   H11017280   3.222   7.059   4.126 -0.5836  0.1904  2.2444
   86MOL   H11117281   3.267   6.942   4.013 -0.6644 -2.4842  0.4382
   86MOL   C11217282   3.148   6.864   4.179  0.2581  0.5790 -0.0631
   86MOL   C11317283   3.024   6.874   4.093 -0.5092 -0.5294 -0.1568
   86MOL  Cl11417284   3.002   6.731   4.000  0.1252  0.1225 -0.0354
   86MOL   C11517285   2.927   6.972   4.100 -0.5079  0.0077 -0.4486
   86MOL   C11617286   2.932   7.094   4.192  0.5593  0.4870  0.0152
   86MOL   H11717287   3.191   6.764   4.184 -3.0782 -0.8746  0.8980
   86MOL   H11817288   3.122   6.880   4.284  0.3396  2.6918 -0.3567
   86MOL   H11917289   2.836   6.958   4.043 -0.3913  0.5352 -0.7683
   86MOL   H12017290   3.009   7.079   4.269  0.5643  0.0576 -0.0728
   86MOL   H12117291   2.838   7.091   4.247  0.3819 -0.9408 -0.3555
   86MOL   C12217292   2.949   7.231   4.123  0.4606 -0.0255  0.8393
   86MOL   C12317293   2.851   7.246   4.006 -0.5439 -0.9395  0.0681
   86MOL  Cl12417294   2.917   7.210   3.858 -0.0542  0.0905  0.2741
   86MOL   C12517295   2.721   7.288   4.015 -0.8191 -0.4866 -0.5629
   86MOL   C12617296   2.665   7.333   4.142 -0.9165  0.5396  0.2202
   86MOL   H12717297   2.953   7.306   4.202 -1.3879 -0.0266  0.9532
   86MOL   H12817298   3.051   7.227   4.084 -0.2799 -1.4489 -1.0342
   86MOL   H12917299   2.663   7.292   3.924 -1.6709 -0.0623 -0.0109
   86MOL   H13017300   2.593   7.256   4.168  0.4265 -1.5877 -2.0836
   86MOL   H13117301   2.731   7.324   4.228 -0.5062 -0.8244 -0.2286
   86MOL   C13217302   2.597   7.465   4.130 -0.7141  0.2311 -0.2641
   86MOL   C13317303   2.521   7.497   4.257 -0.2646 -0.0913 -0.2903
   86MOL  Cl13417304   2.353   7.466   4.253  0.0237  0.1107 -0.5365
   86MOL   C13517305   2.582   7.544   4.368 -0.6373 -0.0781  0.0898
   86MOL   C13617306   2.729   7.589   4.377  0.4094 -0.1070 -0.0978
   86MOL   H13717307   2.672   7.537   4.098 -1.2882  0.4739 -1.1023
   86MOL   H13817308   2.530   7.466   4.043  0.6799  0.3114 -1.3530
   86MOL   H13917309   2.534   7.554   4.464  0.5731 -0.1549  0.7153
   86MOL   H14017310   2.783   7.596   4.283 -0.8094  0.3206 -0.7632
   86MOL   H14117311   2.733   7.691   4.415 -1.0452 -0.8688  2.2126
   86MOL   C14217312   2.815   7.502   4.467  0.6720  0.4177  0.1498
   86MOL   C14317313   2.955   7.557   4.484 -0.4790 -0.3712 -0.5065
   86MOL  Cl14417314   2.968   7.614   4.645  0.1114 -0.2058 -0.3217
   86MOL   C14517315   3.044   7.581   4.384 -0.3460  0.2071 -0.0331
   86MOL   C14617316   3.168   7.659   4.407  0.6340 -0.4688 -0.4374
   86MOL   H14717317   2.814   7.397   4.440 -0.9102  0.6146 -0.5916
   86MOL   H14817318   2.770   7.497   4.566  2.0198  1.5169  0.8425
   86MOL   H14917319   3.019   7.539   4.287 -0.6037 -1.2145  0.6301
   86MOL   H15017320   3.190   7.722   4.321 -1.8931 -0.0853 -0.8609
   86MOL   H15117321   3.148   7.734   4.483  0.2626 -2.5872  1.6185
   86MOL   C15217322   3.287   7.563   4.441  0.2440 -0.8435  0.1375
   86MOL   C15317323   3.340   7.480   4.321 -0.6875  0.6713  0.2786
   86MOL  Cl15417324   3.376   7.324   4.378 -0.0190 -0.2893 -0.1268
   86MOL   C15517325   3.361   7.521   4.198  0.8276  0.6994 -0.0627
   86MOL   C15617326   3.416   7.439   4.084  0.1435  0.5591  0.2453
   86MOL   H15717327   3.361   7.614   4.502 -0.7560 -0.3806  0.9821
   86MOL   H15817328   3.237   7.498   4.513 -1.4812  0.0790 -0.2053
   86MOL   H15917329   3.331   7.619   4.163 -2.2671 -0.7470 -1.6237
   86MOL   H16017330   3.430   7.334   4.109  0.1605  0.2712 -0.9221
   86MOL   H16117331   3.513   7.477   4.052  0.3069  1.9579  2.3585
   86MOL   C16217332   3.314   7.434   3.965 -0.4639  0.4215 -0.7637
   86MOL   C16317333   3.380   7.373   3.845 -0.7006 -0.3559 -0.3791
   86MOL  Cl16417334   3.315   7.448   3.706  0.1925  0.1073 -0.4610
   86MOL   C16517335   3.480   7.286   3.838 -0.7081 -0.5080  0.0223
   86MOL   C16617336   3.554   7.240   3.716 -0.5187  0.1264  0.0748
   86MOL   H16717337   3.241   7.357   3.989 -0.1139  0.4571  0.4560
   86MOL   H16817338   3.270   7.530   3.939  0.0499  0.4800 -1.4266
   86MOL   H16917339   3.513   7.247   3.933 -1.5815 -0.9655  0.1480
   86MOL   H17017340   3.523   7.304   3.634 -0.6739  0.9357  0.7616
   86MOL   H17117341   3.660   7.261   3.735 -0.0733 -2.4026  0.5391
   86MOL   C17217342   3.534   7.089   3.697 -0.1472  1.0524 -0.5814
   86MOL   C17317343   3.586   7.041   3.565  0.2131 -0.3140 -0.1375
   86MOL  Cl17417344   3.463   7.042   3.447 -0.2043  0.0399 -0.2721
   86MOL   C17517345   3.715   7.012   3.541 -0.1432 -0.2773 -0.2298
   86MOL   C17617346   3.767   6.965   3.415 -0.9774 -0.0365  0.5746
   86MOL   H17717347   3.433   7.051   3.716 -0.0559  1.1250  0.0888
   86MOL   H17817348   3.595   7.034   3.769 -0.3170 -2.4525 -3.0326
   86MOL   H17917349   3.785   7.016   3.623 -1.8336  1.9671  1.1863
   86MOL   H18017350   3.697   6.954   3.332 -0.8129  0.2880  0.3933
   86MOL   H18117351   3.803   6.866   3.444 -2.1214 -0.2973  1.1205
   86MOL   C18217352   3.880   7.053   3.363 -0.2747 -0.5374 -0.1760
   86MOL   C18317353   3.945   7.021   3.229 -0.4076  0.5220  0.4979
   86MOL  Cl18417354   3.848   7.067   3.095 -0.0194  0.3553  0.0754
   86MOL   C18517355   4.061   6.952   3.217  0.5460 -0.2625 -0.2255
   86MOL   C18617356   4.130   6.925   3.090  0.0495 -0.3608  0.1065
   86MOL   H18717357   3.847   7.156   3.356 -2.6102 -1.3632 -2.0680
   86MOL   H18817358   3.961   7.042   3.436  1.4699  1.1514 -1.7972
   86MOL   H18917359   4.103   6.913   3.309 -1.6909  0.5884  1.1800
   86MOL   H19017360   4.082   6.982   3.010 -0.4402 -1.5366 -0.4483
   86MOL   H19117361   4.231   6.963   3.105 -0.3143  1.3016 -1.3889
   86MOL   C19217362   4.130   6.775   3.042 -0.2786 -0.0242 -0.0320
   86MOL   C19317363   4.202   6.740   2.913  0.1482  0.1766 -0.3079
   86MOL  Cl19417364   4.360   6.682   2.943 -0.0339  0.0796  0.1619
   86MOL   C19517365   4.137   6.734   2.793 -0.1960 -0.5071  0.1196
   86MOL   C19617366   3.994   6.766   2.767  0.3070  0.2846 -0.1617
   86MOL   H19717367   4.026   6.741   3.031  0.2297 -1.4696 -0.5199
   86MOL   H19817368   4.176   6.719   3.124 -0.2046 -0.9720 -0.7105
   86MOL   H19917369   4.192   6.701   2.705 -1.4621 -0.8619 -0.5499
   86MOL   H20017370   3.987   6.842   2.689  1.0424 -1.5032 -1.9939
   86MOL   H20117371   3.941   6.807   2.853 -1.0190 -1.9440  0.1253
   86MOL   H20217372   3.935   6.677   2.745 -1.5440  1.8732 -1.7351
   87MOL     C117373   2.790   3.666   6.995  0.2944 -0.0635  0.7846
   87MOL     C217374   2.884   3.763   6.947 -0.4379 -0.3474  0.1003
   87MOL    Cl317375   2.848   3.923   7.014 -0.3214  0.2649  0.0920
   87MOL     C417376   2.987   3.749   6.859 -0.6134  0.4728 -0.3406
   87MOL     C517377   3.021   3.611   6.813  0.3242 -0.2811  0.1761
   87MOL     H617378   2.704   3.703   7.051  0.0307  1.8324 -0.8177
   87MOL     H717379   2.840   3.595   7.060 -1.1313  0.8667  2.9561
   87MOL     H817380   3.051   3.828   6.821  0.8862 -0.4447  0.2239
   87MOL     H917381   3.125   3.601   6.844 -0.3320 -3.1898  1.5820
   87MOL    H1017382   2.967   3.541   6.876 -1.9774  0.8602 -0.4699
   87MOL    H1117383   2.741   3.607   6.917  0.4469 -1.0929  1.4520
   87MOL    C1217384   2.994   3.584   6.669  0.0485 -0.3249  0.4601
   87MOL    C1317385   2.849   3.573   6.642  0.1771  0.3682 -0.2552
   87MOL   Cl1417386   2.791   3.406   6.651 -0.0115 -0.2525 -0.0993
   87MOL    C1517387   2.764   3.661   6.587  0.0682  0.1141  0.9298
   87MOL    C1617388   2.814   3.801   6.544  0.1468 -0.5135  0.8335
   87MOL    H1717389   3.042   3.655   6.601 -1.2502 -1.8230 -2.0659
   87MOL    H1817390   3.051   3.497   6.638 -0.8305 -0.6420 -0.2721
   87MOL    H1917391   2.662   3.633   6.563  1.0250 -1.5232 -1.4357
   87MOL    H2017392   2.745   3.877   6.580  1.8284  1.6502 -0.4163
   87MOL    H2117393   2.912   3.820   6.587  0.2082  0.8861  0.1168
   87MOL    C2217394   2.817   3.803   6.392 -0.2669 -0.1296 -0.3360
   87MOL    C2317395   2.854   3.941   6.327 -0.4530  0.7357  0.0687
   87MOL   Cl2417396   3.022   3.956   6.304 -0.1044 -0.3476 -0.0780
   87MOL    C2517397   2.762   4.025   6.277  0.3896 -0.3624  0.1117
   87MOL    C2617398   2.780   4.160   6.207 -0.4152 -0.8941  0.4425
   87MOL    H2717399   2.884   3.723   6.361 -1.7250 -1.3827 -0.3157
   87MOL    H2817400   2.723   3.766   6.352  0.1049  0.2556 -1.5879
   87MOL    H2917401   2.660   3.990   6.291 -0.0626  0.1645 -1.6903
   87MOL    H3017402   2.699   4.228   6.235  0.5302  0.8192 -0.8448
   87MOL    H3117403   2.868   4.202   6.254  0.6647  0.2041 -2.4399
   87MOL    C3217404   2.802   4.156   6.058 -0.1939 -0.0797  0.1375
   87MOL    C3317405   2.699   4.072   5.976 -0.6649 -0.0201  0.1750
   87MOL   Cl3417406   2.619   4.173   5.866 -0.0028 -0.2979 -0.1190
   87MOL    C3517407   2.677   3.943   5.974 -0.7868  0.6155 -0.7620
   87MOL    C3617408   2.592   3.863   5.879  0.1803 -0.3278 -0.2611
   87MOL    H3717409   2.812   4.261   6.029 -0.4005  0.4833  2.0411
   87MOL    H3817410   2.896   4.102   6.048 -0.0872  0.5055 -2.2644
   87MOL    H3917411   2.726   3.879   6.046  2.5248 -0.9830 -4.2391
   87MOL    H4017412   2.549   3.936   5.810 -0.4326 -0.6118 -0.1919
   87MOL    H4117413   2.651   3.797   5.815 -0.9798 -1.8539  0.1999
   87MOL    C4217414   2.473   3.786   5.937  0.0392 -0.7906  0.2705
   87MOL    C4317415   2.362   3.877   5.987 -0.3121 -0.4710  0.0314
   87MOL   Cl4417416   2.349   3.888   6.163  0.0899 -0.0260  0.0100
   87MOL    C4517417   2.267   3.936   5.904  0.5379 -0.0141  0.0939
   87MOL    C4617418   2.252   3.924   5.753 -0.2254  0.7681 -0.2322
   87MOL    H4717419   2.433   3.721   5.860 -1.8138 -0.3302  0.8361
   87MOL    H4817420   2.507   3.717   6.015 -1.9134  0.0020  1.8586
   87MOL    H4917421   2.191   3.997   5.949 -0.6321  0.9565 -3.0636
   87MOL    H5017422   2.330   3.865   5.705 -0.8171  1.4908 -2.1416
   87MOL    H5117423   2.155   3.875   5.741 -0.5331  0.8633  1.7507
   87MOL    C5217424   2.243   4.066   5.689 -0.5122  0.5238 -0.0881
   87MOL    C5317425   2.163   4.077   5.560 -0.4307  0.8618 -0.7580
   87MOL   Cl5417426   2.040   4.196   5.559 -0.3016  0.0860 -0.3538
   87MOL    C5517427   2.183   3.996   5.454  0.6917  0.3414 -0.4870
   87MOL    C5617428   2.111   4.003   5.321 -0.0130  0.5124 -0.3895
   87MOL    H5717429   2.180   4.134   5.748 -0.6577 -0.8549  1.3952
   87MOL    H5817430   2.343   4.109   5.694  0.4236 -1.6361  0.2004
   87MOL    H5917431   2.247   3.910   5.460 -1.1311 -0.8798  3.2166
   87MOL    H6017432   2.077   3.902   5.298  0.0579  0.5310 -0.5735
   87MOL    H6117433   2.018   4.059   5.324  0.9674  2.2945 -1.6257
   87MOL    C6217434   2.198   4.047   5.205  0.0090 -1.0069 -0.4107
   87MOL    C6317435   2.333   3.971   5.182 -0.2642 -0.8523 -0.4217
   87MOL   Cl6417436   2.476   4.064   5.152  0.4536 -0.0700 -0.0201
   87MOL    C6517437   2.324   3.836   5.172 -0.1489  0.0698  0.3654
   87MOL    C6617438   2.430   3.739   5.127 -0.4291 -0.3117 -0.3009
   87MOL    H6717439   2.150   4.032   5.108 -0.0201  0.3215 -0.6125
   87MOL    H6817440   2.227   4.150   5.227  0.4216 -1.1323 -0.3520
   87MOL    H6917441   2.225   3.801   5.196 -0.9614  3.1321  1.7831
   87MOL    H7017442   2.525   3.792   5.132  0.3188 -1.7019  0.6244
   87MOL    H7117443   2.411   3.715   5.023  0.7088 -1.5376 -0.2254
   87MOL    C7217444   2.454   3.613   5.210 -0.0375 -0.4320 -0.1020
   87MOL    C7317445   2.558   3.525   5.146 -0.2296  0.2388  0.2002
   87MOL   Cl7417446   2.687   3.457   5.245 -0.0444 -0.0459  0.0674
   87MOL    C7517447   2.542   3.480   5.018 -0.2984  0.9107 -0.4592
   87MOL    C7617448   2.630   3.381   4.948 -0.2267  0.6791  0.2895
   87MOL    H7717449   2.369   3.546   5.218  0.9446 -1.5403  1.0962
   87MOL    H7817450   2.486   3.636   5.311 -0.3278 -1.0929  0.1389
   87MOL    H7917451   2.455   3.514   4.964  0.3607  0.0541 -2.1314
   87MOL    H8017452   2.557   3.302   4.927  0.0599  0.4430  0.1808
   87MOL    H8117453   2.703   3.339   5.017  0.0123  0.1169 -0.2998
   87MOL    C8217454   2.690   3.434   4.824 -0.3205  0.5861 -0.2089
   87MOL    C8317455   2.787   3.338   4.756  0.1853  0.0974  0.4395
   87MOL   Cl8417456   2.916   3.429   4.692 -0.1332  0.0165 -0.3306
   87MOL    C8517457   2.787   3.202   4.759  0.2655  0.1292  0.3316
   87MOL    C8617458   2.899   3.122   4.696  0.1569  0.2927  0.1628
   87MOL    H8717459   2.739   3.531   4.839  0.5005  0.7154 -3.2336
   87MOL    H8817460   2.612   3.445   4.749  0.2161  2.1043 -0.5688
   87MOL    H8917461   2.696   3.153   4.790  0.7724 -0.8082  0.3426
   87MOL    H9017462   2.908   3.180   4.604  2.4635  2.4916  1.6908
   87MOL    H9117463   2.990   3.137   4.754  1.0163 -2.2595 -0.4747
   87MOL    C9217464   2.871   2.972   4.687  0.1250 -0.6740 -0.1907
   87MOL    C9317465   2.946   2.907   4.573 -0.7252  0.8464 -0.0414
   87MOL   Cl9417466   3.074   2.802   4.631 -0.0184  0.0656  0.0387
   87MOL    C9517467   2.931   2.919   4.444  1.4381  0.4380  1.7986
   87MOL    C9617468   2.817   3.006   4.388 -0.6738 -0.6646 -0.7491
   87MOL    H9717469   2.763   2.966   4.673  0.0825 -0.4064  0.0098
   87MOL    H9817470   2.891   2.924   4.783 -1.1735  0.9759  0.9389
   87MOL    H9917471   2.993   2.876   4.367 -0.0260 -0.5951  1.1819
   87MOL   H10017472   2.752   2.943   4.328 -0.8480  0.4064 -1.7114
   87MOL   H10117473   2.758   3.055   4.465  2.5620  1.6366  0.3667
   87MOL   C10217474   2.871   3.107   4.288 -0.4651 -0.1545  0.4302
   87MOL   C10317475   2.771   3.228   4.270 -0.0331 -0.4778  1.0863
   87MOL  Cl10417476   2.696   3.219   4.111  0.3205  0.1139 -0.4806
   87MOL   C10517477   2.756   3.336   4.349  0.9384 -0.5746  0.3383
   87MOL   C10617478   2.666   3.457   4.321  0.9093 -0.4015 -0.2089
   87MOL   H10717479   2.962   3.152   4.328 -0.8196 -0.1568  1.2395
   87MOL   H10817480   2.892   3.070   4.187 -1.2772  0.5698 -0.0150
   87MOL   H10917481   2.814   3.331   4.439 -3.1252  2.6433  3.3034
   87MOL   H11017482   2.718   3.541   4.275  1.5588  0.7618  2.5465
   87MOL   H11117483   2.589   3.431   4.248 -1.0423  0.2774  1.5688
   87MOL   C11217484   2.606   3.503   4.453 -0.6488 -0.3965  0.8118
   87MOL   C11317485   2.565   3.648   4.449  0.3056 -0.0914 -0.8923
   87MOL  Cl11417486   2.388   3.668   4.436  0.0558 -0.3867  0.3347
   87MOL   C11517487   2.647   3.755   4.463  0.0228 -0.5573  0.5091
   87MOL   C11617488   2.790   3.756   4.486 -0.4162 -0.7331 -0.7361
   87MOL   H11717489   2.522   3.443   4.487 -1.0285 -0.7106 -0.6294
   87MOL   H11817490   2.679   3.487   4.532 -1.2380 -3.0176  0.8745
   87MOL   H11917491   2.603   3.853   4.460 -0.6186 -0.8492  0.1976
   87MOL   H12017492   2.814   3.826   4.407 -0.2266  1.9744  1.6458
   87MOL   H12117493   2.826   3.655   4.464  1.9398  0.1405 -1.0081
   87MOL   C12217494   2.834   3.797   4.628  0.5345 -0.1936  0.0565
   87MOL   C12317495   2.975   3.842   4.631 -0.2132 -0.0853  0.0068
   87MOL  Cl12417496   3.069   3.735   4.738 -0.0870  0.3929  0.0287
   87MOL   C12517497   3.027   3.948   4.571 -0.3506 -0.6228  0.9591
   87MOL   C12617498   2.950   4.040   4.469 -0.0595  0.1567  0.1188
   87MOL   H12717499   2.771   3.873   4.674 -0.8882 -1.3631  0.0508
   87MOL   H12817500   2.820   3.710   4.692 -0.7890  1.2800  1.8403
   87MOL   H12917501   3.131   3.959   4.598 -0.0115 -1.8696  0.2096
   87MOL   H13017502   2.939   3.998   4.369  0.2073 -1.5065  0.7774
   87MOL   H13117503   2.848   4.052   4.505 -0.6681 -0.1150 -1.4691
   87MOL   C13217504   3.019   4.181   4.458 -0.0763 -0.4811 -0.9902
   87MOL   C13317505   2.960   4.271   4.351  0.0435  0.2715  0.2324
   87MOL  Cl13417506   2.788   4.246   4.330 -0.3475 -0.2723 -0.2875
   87MOL   C13517507   3.030   4.368   4.285 -0.5700  0.0150  0.7445
   87MOL   C13617508   3.173   4.398   4.298 -0.1063  0.3195  0.3013
   87MOL   H13717509   3.027   4.240   4.549  1.4787 -1.3207 -0.5680
   87MOL   H13817510   3.122   4.161   4.431  0.7669 -1.2661  2.4955
   87MOL   H13917511   2.983   4.429   4.209 -1.5150 -0.4662  0.9418
   87MOL   H14017512   3.240   4.312   4.297 -2.8951 -2.0020  1.4574
   87MOL   H14117513   3.192   4.433   4.197  1.6644 -0.7522  0.2552
   87MOL   C14217514   3.198   4.513   4.396  0.4181  0.2333 -0.6136
   87MOL   C14317515   3.325   4.585   4.378  0.0864 -0.2591  0.3490
   87MOL  Cl14417516   3.315   4.736   4.461  0.3345 -0.1214 -0.4264
   87MOL   C14517517   3.433   4.550   4.301 -0.6986  0.4292 -0.1710
   87MOL   C14617518   3.566   4.628   4.283 -0.1570  0.2471  0.2500
   87MOL   H14717519   3.193   4.480   4.500  2.7615  0.0078 -0.5474
   87MOL   H14817520   3.130   4.597   4.383 -0.3340 -0.3910 -0.7358
   87MOL   H14917521   3.422   4.456   4.250 -1.2949  1.5913 -2.2448
   87MOL   H15017522   3.550   4.727   4.326  1.7943  1.0401 -0.7696
   87MOL   H15117523   3.638   4.570   4.341 -1.7916 -0.8604  1.1930
   87MOL   C15217524   3.615   4.630   4.142  0.2664  0.0404 -0.0504
   87MOL   C15317525   3.722   4.729   4.120 -1.0575 -0.1606 -0.3516
   87MOL  Cl15417526   3.864   4.649   4.064  0.3877 -0.2545 -0.2171
   87MOL   C15517527   3.709   4.866   4.127 -0.2609 -0.0519  0.1080
   87MOL   C15617528   3.815   4.964   4.084  0.1946  0.4743 -0.7046
   87MOL   H15717529   3.644   4.528   4.118 -0.0526 -0.6179  2.2853
   87MOL   H15817530   3.537   4.666   4.075 -0.0214  1.3699  0.9660
   87MOL   H15917531   3.620   4.912   4.167  1.8352  2.8673  1.5626
   87MOL   H16017532   3.906   4.909   4.060  0.1834 -0.3097  1.0187
   87MOL   H16117533   3.845   5.018   4.173  1.9772  2.5474 -2.4961
   87MOL   C16217534   3.765   5.070   3.987 -0.3128  0.0092  1.0347
   87MOL   C16317535   3.868   5.186   3.972  0.1485  0.6772  0.5727
   87MOL  Cl16417536   3.796   5.330   3.897  0.2152  0.4456  0.0470
   87MOL   C16517537   3.997   5.198   4.019  0.2375 -0.0320  0.0110
   87MOL   C16617538   4.082   5.327   4.008 -0.4302 -0.3241 -0.0161
   87MOL   H16717539   3.745   5.020   3.893 -0.8461  0.6254  0.8148
   87MOL   H16817540   3.671   5.104   4.030 -1.5923 -0.4397 -1.3240
   87MOL   H16917541   4.041   5.112   4.068 -2.3066 -1.1062  0.4891
   87MOL   H17017542   4.069   5.356   3.904 -0.7183  1.6220  0.5394
   87MOL   H17117543   4.055   5.415   4.067  2.1156  0.1229  0.5317
   87MOL   C17217544   4.224   5.286   4.036  0.0924 -0.1731 -0.1395
   87MOL   C17317545   4.332   5.385   3.989  0.3293 -0.1408  0.2540
   87MOL  Cl17417546   4.333   5.533   4.084 -0.1445 -0.0924 -0.1570
   87MOL   C17517547   4.428   5.362   3.899 -0.9270 -0.3866 -0.6374
   87MOL   C17617548   4.533   5.452   3.843  0.3059  0.5296 -0.0612
   87MOL   H17717549   4.249   5.187   4.000 -1.0090 -0.2127 -0.8043
   87MOL   H17817550   4.237   5.283   4.144 -1.7846  0.2129  0.1269
   87MOL   H17917551   4.446   5.265   3.856  4.9535  0.8365 -1.3795
   87MOL   H18017552   4.542   5.544   3.902  3.2122  0.1861  0.1134
   87MOL   H18117553   4.506   5.474   3.740 -2.9955 -0.4314  0.5585
   87MOL   C18217554   4.670   5.386   3.847 -0.4402  0.2042 -0.0300
   87MOL   C18317555   4.785   5.476   3.801 -1.1000  0.7371 -0.3371
   87MOL  Cl18417556   4.819   5.574   3.938 -0.1350  0.2574  0.4807
   87MOL   C18517557   4.852   5.476   3.682  0.4819 -0.7877  0.1348
   87MOL   C18617558   4.968   5.558   3.651 -0.4566 -0.1859  0.1343
   87MOL   H18717559   4.690   5.352   3.948  0.9758 -2.7356 -1.2257
   87MOL   H18817560   4.654   5.300   3.782  1.1797 -1.0602  1.2135
   87MOL   H18917561   4.815   5.416   3.600 -0.0414 -1.4455  0.8456
   87MOL   H19017562   4.949   5.632   3.573  0.0973  0.2328  0.3959
   87MOL   H19117563   4.985   5.626   3.734  0.5793 -0.1805 -0.0651
   87MOL   C19217564   5.097   5.472   3.627 -0.4952  0.6624 -0.8024
   87MOL   C19317565   5.232   5.551   3.625 -0.3332  0.3928  0.0536
   87MOL  Cl19417566   5.275   5.593   3.465  0.0692 -0.5329 -0.2572
   87MOL   C19517567   5.312   5.579   3.733 -0.1041  0.2747 -0.0156
   87MOL   C19617568   5.295   5.529   3.876  0.1440  0.6547 -0.4536
   87MOL   H19717569   5.091   5.412   3.536 -0.5566 -0.1608 -0.2556
   87MOL   H19817570   5.105   5.393   3.701  1.6250  0.5431 -1.1400
   87MOL   H19917571   5.394   5.645   3.709  0.5657 -1.0780 -1.5276
   87MOL   H20017572   5.193   5.499   3.901  0.6860  0.0196  1.0198
   87MOL   H20117573   5.334   5.601   3.947  1.0823  1.4987 -1.7837
   87MOL   H20217574   5.359   5.441   3.891  0.0432  0.3896 -1.5020
   88MOL     C117575   7.347   5.777   3.595  0.3343 -0.1304 -0.1472
   88MOL     C217576   7.397   5.889   3.683 -0.0975  0.2187 -0.4664
   88MOL    Cl317577   7.527   5.832   3.779  0.1136 -0.2735  0.1387
   88MOL     C417578   7.354   6.019   3.694  0.0304 -0.5663  0.3546
   88MOL     C517579   7.251   6.081   3.593  0.4947  0.1301 -0.0708
   88MOL     H617580   7.380   5.789   3.492  2.1444  0.1539  0.4480
   88MOL     H717581   7.240   5.794   3.581  0.6021  2.5349  0.7227
   88MOL     H817582   7.397   6.082   3.770  0.2466  1.6828 -1.5779
   88MOL     H917583   7.296   6.143   3.515  0.0306 -0.0652 -0.5021
   88MOL    H1017584   7.210   5.994   3.541 -1.2396 -0.1336  1.6742
   88MOL    H1117585   7.369   5.674   3.622  1.0772  0.3946  1.3290
   88MOL    C1217586   7.121   6.141   3.663 -0.5763 -0.0766  0.5191
   88MOL    C1317587   7.005   6.168   3.567 -0.8660 -0.2591  0.4413
   88MOL   Cl1417588   7.052   6.231   3.411 -0.7209  0.0839  0.2587
   88MOL    C1517589   6.871   6.148   3.591  0.7093  0.4107 -0.4914
   88MOL    C1617590   6.813   6.081   3.715 -0.4994 -0.0512  0.2526
   88MOL    H1717591   7.088   6.069   3.738 -0.5683 -0.8295 -0.1937
   88MOL    H1817592   7.142   6.226   3.728  1.3881 -1.7899  2.1464
   88MOL    H1917593   6.801   6.184   3.518 -1.0703  3.0151  2.3834
   88MOL    H2017594   6.723   6.028   3.684 -1.0975  1.3700 -0.5265
   88MOL    H2117595   6.890   6.024   3.766 -0.4523  1.1511  1.5501
   88MOL    C2217596   6.760   6.191   3.811  0.3401  0.3339 -0.2397
   88MOL    C2317597   6.678   6.125   3.921  0.1782 -0.2123 -0.1905
   88MOL   Cl2417598   6.764   6.150   4.074 -0.0013 -0.0625 -0.2902
   88MOL    C2517599   6.555   6.073   3.916 -0.2599 -0.1705  0.0198
   88MOL    C2617600   6.483   6.001   4.028 -0.1433  0.4492 -0.4638
   88MOL    H2717601   6.831   6.265   3.850  0.5848 -1.3699  2.7452
   88MOL    H2817602   6.691   6.256   3.758  1.1712  0.6587 -0.9421
   88MOL    H2917603   6.509   6.074   3.818 -0.2305 -1.0762 -0.0119
   88MOL    H3017604   6.519   6.025   4.128  0.6334  2.0524 -1.1145
   88MOL    H3117605   6.382   6.041   4.017  0.0690  1.8078  2.2040
   88MOL    C3217606   6.474   5.853   3.999 -0.0177  0.0491  0.7860
   88MOL    C3317607   6.432   5.762   4.113 -0.1345  0.0686 -0.1573
   88MOL   Cl3417608   6.333   5.833   4.237 -0.1849 -0.3293  0.2424
   88MOL    C3517609   6.470   5.637   4.125 -0.4706  0.3102 -0.0171
   88MOL    C3617610   6.430   5.542   4.239 -0.6466  0.3339  0.2590
   88MOL    H3717611   6.412   5.825   3.913  1.7453 -1.6125  0.0295
   88MOL    H3817612   6.574   5.816   3.979 -0.1594  1.3101 -2.6088
   88MOL    H3917613   6.529   5.597   4.043  0.8093  1.0921  0.4921
   88MOL    H4017614   6.323   5.558   4.249 -1.0257 -2.1338  0.4739
   88MOL    H4117615   6.449   5.439   4.208  0.2118  1.4163 -3.0302
   88MOL    C4217616   6.513   5.558   4.368 -0.0254 -0.1284 -0.9052
   88MOL    C4317617   6.489   5.466   4.487  0.2493 -0.0337 -0.2391
   88MOL   Cl4417618   6.328   5.403   4.478 -0.5291  0.4829  0.2188
   88MOL    C4517619   6.573   5.435   4.588  0.1866  0.5643  0.2432
   88MOL    C4617620   6.714   5.478   4.607 -0.5556 -0.6112  0.3651
   88MOL    H4717621   6.618   5.551   4.340 -0.3322 -1.4424 -1.8383
   88MOL    H4817622   6.491   5.652   4.417 -3.6617 -2.2917  1.8951
   88MOL    H4917623   6.537   5.369   4.666  0.1104  0.9285  0.5189
   88MOL    H5017624   6.781   5.405   4.561  0.1877  0.2591  0.0422
   88MOL    H5117625   6.740   5.576   4.566 -0.5344 -0.1998  1.3667
   88MOL    C5217626   6.750   5.480   4.756  0.5745  0.4094  0.0550
   88MOL    C5317627   6.883   5.544   4.782  0.1861 -0.5536  0.0024
   88MOL   Cl5417628   7.013   5.439   4.733 -0.0689 -0.2975 -0.0431
   88MOL    C5517629   6.894   5.676   4.798 -0.2842 -0.1103 -0.3805
   88MOL    C5617630   7.025   5.750   4.782 -0.0917  0.0570 -0.6230
   88MOL    H5717631   6.674   5.524   4.820 -0.3292 -1.4995  0.3122
   88MOL    H5817632   6.760   5.377   4.790 -1.3103 -0.1613 -1.0538
   88MOL    H5917633   6.805   5.735   4.814  0.0390  0.4372 -0.5789
   88MOL    H6017634   7.089   5.688   4.720 -1.3170  1.0757 -2.9884
   88MOL    H6117635   7.001   5.833   4.715  1.0521  1.8069  1.0763
   88MOL    C6217636   7.093   5.791   4.911  0.2726  0.4809 -0.1569
   88MOL    C6317637   7.225   5.868   4.888 -0.0624  0.6161  0.1829
   88MOL   Cl6417638   7.293   5.848   4.728 -0.0905 -0.4954  0.2178
   88MOL    C6517639   7.291   5.939   4.986  0.5232  0.0287 -0.0153
   88MOL    C6617640   7.431   5.997   4.981 -0.6082 -0.6142 -0.1513
   88MOL    H6717641   7.030   5.850   4.977 -1.3675 -0.6522 -0.6951
   88MOL    H6817642   7.122   5.704   4.968 -1.2393 -0.9085 -1.4652
   88MOL    H6917643   7.238   5.948   5.080 -0.1625 -1.2947 -0.2767
   88MOL    H7017644   7.453   6.007   4.874 -0.0256 -0.0077  0.0270
   88MOL    H7117645   7.508   5.925   5.010 -0.2968  0.0683  0.7429
   88MOL    C7217646   7.448   6.129   5.063 -0.7209 -0.8113  0.5638
   88MOL    C7317647   7.367   6.243   5.012 -0.1308 -0.0631  0.2576
   88MOL   Cl7417648   7.199   6.233   5.051  0.0268  0.1070  0.2053
   88MOL    C7517649   7.413   6.344   4.936 -0.1179  0.3012  0.5065
   88MOL    C7617650   7.334   6.465   4.889  0.0000  0.2561 -0.0412
   88MOL    H7717651   7.550   6.165   5.060 -0.1710 -2.4415 -0.9584
   88MOL    H7817652   7.435   6.117   5.171  0.2654 -0.5228  0.7194
   88MOL    H7917653   7.514   6.345   4.897 -0.9398  1.3107 -1.6072
   88MOL    H8017654   7.244   6.474   4.951 -1.5500 -1.9009 -1.9089
   88MOL    H8117655   7.296   6.442   4.789  1.3740 -0.7422 -0.3531
   88MOL    C8217656   7.420   6.591   4.879  0.4266 -0.2007  0.0716
   88MOL    C8317657   7.347   6.720   4.826 -0.0265 -0.2458 -0.3807
   88MOL   Cl8417658   7.433   6.864   4.838 -0.1489 -0.1267 -0.0328
   88MOL    C8517659   7.216   6.721   4.783  0.5827 -0.1569 -0.1314
   88MOL    C8617660   7.145   6.844   4.736 -0.3947  1.2846  0.1161
   88MOL    H8717661   7.510   6.566   4.822  0.1345  0.4047 -0.6583
   88MOL    H8817662   7.450   6.597   4.984 -0.7954 -3.7762  0.6771
   88MOL    H8917663   7.161   6.627   4.789  0.8641 -0.3247 -0.1701
   88MOL    H9017664   7.090   6.894   4.816 -1.7886  2.0404 -1.3027
   88MOL    H9117665   7.220   6.911   4.695 -0.0180  0.0883 -1.2113
   88MOL    C9217666   7.059   6.803   4.615 -0.2988  0.4577  0.3469
   88MOL    C9317667   6.952   6.900   4.569 -0.2526 -0.9864  0.1175
   88MOL   Cl9417668   6.939   7.045   4.662 -0.0723  0.1843  0.0417
   88MOL    C9517669   6.882   6.886   4.456  0.4121  0.4729  0.3327
   88MOL    C9617670   6.896   6.772   4.358 -0.4648 -0.1754 -0.0627
   88MOL    H9717671   7.016   6.703   4.622 -1.8946  0.9289 -1.8521
   88MOL    H9817672   7.137   6.802   4.539 -1.3497  0.9105 -0.7561
   88MOL    H9917673   6.813   6.961   4.420 -0.6456  0.1455  1.6658
   88MOL   H10017674   6.994   6.773   4.312  0.0458  0.9702  1.0330
   88MOL   H10117675   6.892   6.679   4.416  3.0583 -1.3234 -1.5314
   88MOL   C10217676   6.791   6.786   4.245  0.8549  0.0773  0.7889
   88MOL   C10317677   6.809   6.696   4.121 -0.3912  0.0746 -0.0702
   88MOL  Cl10417678   6.816   6.534   4.163  0.1026  0.2104  0.0282
   88MOL   C10517679   6.832   6.742   3.996 -0.4801 -0.0495 -0.1311
   88MOL   C10617680   6.868   6.658   3.879  0.0323 -0.2278  0.2502
   88MOL   H10717681   6.687   6.765   4.274  0.6174  1.5315  1.0480
   88MOL   H10817682   6.790   6.886   4.201  0.5037 -0.6941 -0.9900
   88MOL   H10917683   6.824   6.846   3.968 -2.0124 -0.5776 -1.7674
   88MOL   H11017684   6.976   6.676   3.873 -0.3854  2.9180  1.1928
   88MOL   H11117685   6.848   6.553   3.900 -0.4609 -0.4371 -1.2397
   88MOL   C11217686   6.792   6.683   3.753 -0.2299 -0.3569  0.3175
   88MOL   C11317687   6.832   6.595   3.638  0.9289 -0.1757 -0.1487
   88MOL  Cl11417688   6.700   6.493   3.591  0.1695  0.2641 -0.0343
   88MOL   C11517689   6.950   6.597   3.566 -0.1751  0.2653 -0.0917
   88MOL   C11617690   7.070   6.684   3.596  0.7080  0.2461 -0.4487
   88MOL   H11717691   6.685   6.670   3.763 -0.5099  0.4814 -1.3588
   88MOL   H11817692   6.832   6.781   3.723  1.6013 -1.6112 -1.4734
   88MOL   H11917693   6.969   6.527   3.486  0.0538 -0.4446  0.5769
   88MOL   H12017694   7.140   6.620   3.651 -0.7732  0.4088  1.6815
   88MOL   H12117695   7.050   6.757   3.674  2.5569 -0.6641  0.9154
   88MOL   C12217696   7.123   6.748   3.474 -0.9376  0.6604 -0.3836
   88MOL   C12317697   7.267   6.799   3.495 -0.4628  0.6245 -0.6751
   88MOL  Cl12417698   7.245   6.960   3.545 -0.1451  0.0656  0.0779
   88MOL   C12517699   7.385   6.731   3.476  0.6906 -0.3476 -0.2343
   88MOL   C12617700   7.391   6.592   3.428  0.7707 -0.0416 -0.0652
   88MOL   H12717701   7.129   6.670   3.397  0.9283 -0.5804  0.9910
   88MOL   H12817702   7.052   6.823   3.438 -0.3300  3.1207  3.3350
   88MOL   H12917703   7.476   6.785   3.497  2.1423 -2.6349 -0.5327
   88MOL   H13017704   7.474   6.545   3.481  0.1189 -0.3035  0.7351
   88MOL   H13117705   7.299   6.542   3.460 -0.6012  1.7439 -1.1025
   88MOL   C13217706   7.410   6.591   3.277  0.5867  0.0558  0.3373
   88MOL   C13317707   7.378   6.462   3.203 -0.4577  1.0901  0.0888
   88MOL  Cl13417708   7.219   6.470   3.128  0.4983 -0.0672 -0.3916
   88MOL   C13517709   7.456   6.353   3.201 -0.4761 -0.1448  0.4310
   88MOL   C13617710   7.590   6.334   3.261 -0.7537 -0.2388 -0.6738
   88MOL   H13717711   7.331   6.659   3.244  1.3460  1.8964  2.1971
   88MOL   H13817712   7.505   6.636   3.246  0.1559  3.1163  3.1626
   88MOL   H13917713   7.413   6.265   3.155 -1.7211 -0.2124  1.6942
   88MOL   H14017714   7.663   6.314   3.182 -1.7745  2.8827 -2.5330
   88MOL   H14117715   7.621   6.425   3.312 -0.1534  0.2520 -1.8774
   88MOL   C14217716   7.587   6.214   3.363 -0.4218  0.1853 -0.0916
   88MOL   C14317717   7.715   6.172   3.435 -0.3783  0.0443  0.6477
   88MOL  Cl14417718   7.675   6.081   3.579  0.0307  0.0328 -0.0901
   88MOL   C14517719   7.839   6.204   3.397 -0.2975 -0.4226 -0.6992
   88MOL   C14617720   7.968   6.173   3.472 -0.9368 -0.9428  0.6176
   88MOL   H14717721   7.541   6.126   3.317  0.1519 -0.7220  1.0291
   88MOL   H14817722   7.513   6.247   3.436 -0.3229 -0.1908  0.1803
   88MOL   H14917723   7.847   6.241   3.296 -2.4914  1.5754 -0.1767
   88MOL   H15017724   8.010   6.269   3.500 -0.6243 -0.3746 -1.6971
   88MOL   H15117725   7.944   6.110   3.558 -2.0835 -0.0126  0.9958
   88MOL   C15217726   8.062   6.099   3.382 -0.0615  0.5913 -0.3757
   88MOL   C15317727   8.188   6.066   3.446 -0.1968  0.2288 -0.4090
   88MOL  Cl15417728   8.206   5.891   3.443  0.1398  0.2019  0.1244
   88MOL   C15517729   8.270   6.147   3.520 -0.5601  0.5572  0.5288
   88MOL   C15617730   8.394   6.099   3.592 -0.3674  0.2942  0.1112
   88MOL   H15717731   8.012   6.006   3.353  1.0471 -0.3880  0.8353
   88MOL   H15817732   8.083   6.163   3.297 -2.4729  0.4307 -1.1553
   88MOL   H15917733   8.242   6.251   3.517 -0.7653  0.5625  2.2219
   88MOL   H16017734   0.059   6.146   3.544 -0.1540 -1.4899 -1.2985
   88MOL   H16117735   8.410   5.996   3.561  0.2704  0.0406  1.2661
   88MOL   C16217736   8.388   6.112   3.743  0.2791 -0.8094 -0.1562
   88MOL   C16317737   8.414   6.252   3.801  0.2248 -0.4180 -0.3478
   88MOL  Cl16417738   8.277   6.306   3.881  0.4427 -0.0130  0.3673
   88MOL   C16517739   0.110   6.328   3.796  0.2729  0.5451 -0.2197
   88MOL   C16617740   0.122   6.462   3.866 -0.1106 -0.6475 -0.1130
   88MOL   H16717741   8.294   6.074   3.784 -0.4855  1.2578  0.0387
   88MOL   H16817742   0.046   6.047   3.782 -1.4728 -1.5447  2.3044
   88MOL   H16917743   0.198   6.289   3.747  0.7947  1.1660  0.2068
   88MOL   H17017744   0.049   6.473   3.947  1.2034 -0.5667  1.0760
   88MOL   H17117745   0.222   6.469   3.909  1.4623 -1.7975 -3.4186
   88MOL   C17217746   0.093   6.572   3.761  0.0004  0.2847  0.7540
   88MOL   C17317747   0.026   6.690   3.843  0.6953  0.0568 -0.1923
   88MOL  Cl17417748   0.145   6.807   3.885  0.3754 -0.0753  0.2844
   88MOL   C17517749   8.313   6.701   3.867  0.1867  0.0086 -0.5577
   88MOL   C17617750   8.240   6.808   3.953  0.0238 -0.3918  0.8929
   88MOL   H17717751   0.019   6.554   3.684 -1.0112  0.5343  1.6543
   88MOL   H17817752   0.186   6.605   3.714  0.1953 -0.4312  0.6323
   88MOL   H17917753   8.247   6.623   3.832 -0.5171  0.3826 -0.0874
   88MOL   H18017754   8.160   6.869   3.912  0.5934 -0.2881 -0.0710
   88MOL   H18117755   8.317   6.882   3.972  0.2935  0.2235 -2.3109
   88MOL   C18217756   8.178   6.768   4.085 -0.1376 -0.1276  0.4802
   88MOL   C18317757   8.047   6.701   4.063  0.7301  0.1052  0.0008
   88MOL  Cl18417758   7.919   6.804   4.092 -0.0906 -0.0206  0.0416
   88MOL   C18517759   8.035   6.564   4.053 -1.0082 -0.3480  0.5796
   88MOL   C18617760   7.906   6.486   4.021 -0.1097 -0.2021 -0.3926
   88MOL   H18717761   8.239   6.697   4.142  0.4525  1.4884  1.9155
   88MOL   H18817762   8.158   6.856   4.146 -0.4522  0.6596 -0.7701
   88MOL   H18917763   8.125   6.505   4.046 -0.3281  0.8358 -0.6232
   88MOL   H19017764   7.821   6.554   4.013 -0.6364 -1.0309 -2.2431
   88MOL   H19117765   7.921   6.457   3.917  1.1199  2.1642 -0.9189
   88MOL   C19217766   7.888   6.378   4.122  0.9379 -0.0093  0.4131
   88MOL   C19317767   7.755   6.299   4.104 -0.0016 -0.5231  0.1484
   88MOL  Cl19417768   7.627   6.358   4.193 -0.0447  0.4930  0.0529
   88MOL   C19517769   7.738   6.184   4.033 -0.1373  0.5321 -0.1146
   88MOL   C19617770   7.843   6.109   3.947  0.8631  0.0371  0.0207
   88MOL   H19717771   7.886   6.428   4.219 -0.9999 -0.7265  0.7618
   88MOL   H19817772   7.973   6.309   4.127  0.6381 -0.5861 -1.8371
   88MOL   H19917773   7.641   6.137   4.035 -0.7551  1.7791 -0.1885
   88MOL   H20017774   7.854   6.007   3.984  2.9195  0.2507  0.0661
   88MOL   H20117775   7.940   6.159   3.941 -0.2266  2.1309 -0.7066
   88MOL   H20217776   7.798   6.085   3.851  2.2412 -2.5415 -0.0214
   89MOL     C117777   1.838   0.670   6.626 -0.1389 -0.5751 -0.4908
   89MOL     C217778   1.806   0.528   6.650 -0.0589  0.5016 -0.8040
   89MOL    Cl317779   1.855   0.434   6.513 -0.3475  0.0095  0.0342
   89MOL     C417780   1.750   0.477   6.761 -0.2655 -0.5833  0.5021
   89MOL     C517781   1.695   0.555   6.880  0.9163 -0.5161  0.4000
   89MOL     H617782   1.770   0.691   6.544 -0.2807  0.4157 -0.1230
   89MOL     H717783   1.943   0.676   6.595  0.2509  0.6732  0.9940
   89MOL     H817784   1.740   0.370   6.769  0.6416 -0.6482  0.7702
   89MOL     H917785   1.699   0.661   6.856  0.1395 -0.6890 -0.5266
   89MOL    H1017786   1.586   0.551   6.884  0.8623  0.8950  0.7453
   89MOL    H1117787   1.830   0.733   6.714  2.0934 -0.6816 -0.1721
   89MOL    C1217788   1.760   0.507   7.009 -0.8135 -0.1332 -0.1322
   89MOL    C1317789   1.749   0.614   7.116  0.8288  0.6350  0.4509
   89MOL   Cl1417790   1.617   0.602   7.231 -0.3358  0.0752 -0.0325
   89MOL    C1517791   1.839   0.714   7.135  0.4404  0.4257  0.1315
   89MOL    C1617792   1.961   0.746   7.054 -0.3144  0.2951 -0.0615
   89MOL    H1717793   1.703   0.420   7.039 -1.8617 -0.7889 -3.8375
   89MOL    H1817794   1.865   0.485   6.991 -0.2150  2.4990 -0.1312
   89MOL    H1917795   1.831   0.779   7.221 -0.0001  1.0365 -0.3632
   89MOL    H2017796   1.946   0.694   6.960 -1.5753  0.1661  0.2084
   89MOL    H2117797   1.964   0.853   7.033  1.5371  0.2042 -0.3523
   89MOL    C2217798   2.091   0.714   7.124 -0.0159  0.0719 -0.2126
   89MOL    C2317799   2.222   0.756   7.051  0.2482 -0.1708 -0.6496
   89MOL   Cl2417800   2.284   0.905   7.110 -0.2657 -0.1085  0.2083
   89MOL    C2517801   2.293   0.671   6.978  0.0151  0.0903  0.0378
   89MOL    C2617802   2.421   0.700   6.905  0.6458  0.2061 -0.1410
   89MOL    H2717803   2.095   0.751   7.226 -0.8084  2.5361 -1.0334
   89MOL    H2817804   2.091   0.607   7.146 -0.4879 -0.2723 -1.8082
   89MOL    H2917805   2.257   0.571   6.965 -0.7273  0.4186 -0.4739
   89MOL    H3017806   2.438   0.808   6.903  0.8142  0.1979  0.5297
   89MOL    H3117807   2.502   0.650   6.957 -0.1685 -1.2586 -0.2655
   89MOL    C3217808   2.429   0.634   6.766 -0.3792  0.2681 -0.4040
   89MOL    C3317809   2.340   0.702   6.664 -0.6816 -0.4878 -0.1151
   89MOL   Cl3417810   2.209   0.600   6.629 -0.0655 -0.3588 -0.0279
   89MOL    C3517811   2.381   0.811   6.592  0.4321  0.0260  0.0967
   89MOL    C3617812   2.308   0.888   6.487  0.1482  0.7393  0.7149
   89MOL    H3717813   2.535   0.631   6.742 -0.2538 -0.3104  0.1895
   89MOL    H3817814   2.397   0.530   6.778 -0.0349  0.0235 -1.5732
   89MOL    H3917815   2.476   0.859   6.612 -0.0149  0.3654  1.4384
   89MOL    H4017816   2.373   0.907   6.402  1.3044 -0.1842  1.3676
   89MOL    H4117817   2.222   0.827   6.461  1.5374 -2.2211  2.7029
   89MOL    C4217818   2.269   1.034   6.529  0.1380  0.0963 -0.4327
   89MOL    C4317819   2.192   1.101   6.418 -0.1287 -0.2278 -0.3629
   89MOL   Cl4417820   2.309   1.182   6.312  0.0308 -0.2072  0.0102
   89MOL    C4517821   2.060   1.087   6.389 -0.2555 -0.5825  0.2091
   89MOL    C4617822   1.960   1.007   6.468 -0.6860 -0.4367  0.2366
   89MOL    H4717823   2.218   1.049   6.625 -0.8227  1.3705 -1.1166
   89MOL    H4817824   2.357   1.097   6.540  0.0706  0.2574 -0.7939
   89MOL    H4917825   2.026   1.137   6.300 -0.3539 -2.2124 -0.6940
   89MOL    H5017826   1.919   0.926   6.407 -1.7082  1.8478 -2.2060
   89MOL    H5117827   2.008   0.959   6.554  1.1697 -0.8191 -0.9754
   89MOL    C5217828   1.848   1.098   6.521 -0.0814 -0.5761  0.1152
   89MOL    C5317829   1.755   1.028   6.623  0.6585  0.7758 -0.1705
   89MOL   Cl5417830   1.615   0.971   6.539  0.1907  0.1662 -0.1442
   89MOL    C5517831   1.760   1.017   6.759 -0.0717  0.0872  0.6401
   89MOL    C5617832   1.669   0.951   6.857  0.4789 -0.8867 -0.1318
   89MOL    H5717833   1.900   1.182   6.566  2.5424 -2.1545  0.1402
   89MOL    H5817834   1.787   1.145   6.444  0.0685  0.4300  0.6002
   89MOL    H5917835   1.850   1.060   6.800  0.5733 -0.7733  0.1465
   89MOL    H6017836   1.591   0.897   6.803  0.5181 -0.8298 -0.2453
   89MOL    H6117837   1.725   0.880   6.917 -0.7558 -1.0879  0.7822
   89MOL    C6217838   1.587   1.055   6.942 -0.2912  0.0929  0.4611
   89MOL    C6317839   1.467   0.987   7.008 -0.4438  0.1450 -0.2373
   89MOL   Cl6417840   1.341   1.102   7.035 -0.0033  0.0433  0.1878
   89MOL    C6517841   1.458   0.858   7.042  0.2245 -0.7345  0.8712
   89MOL    C6617842   1.340   0.778   7.108  0.1116 -0.7081  0.1874
   89MOL    H6717843   1.646   1.117   7.009 -0.7307  1.5197 -0.4677
   89MOL    H6817844   1.543   1.132   6.879 -1.1269 -0.6437  0.1324
   89MOL    H6917845   1.541   0.793   7.020 -1.0445 -2.1864  0.2423
   89MOL    H7017846   1.257   0.843   7.134  0.6053 -0.1118  0.2948
   89MOL    H7117847   1.391   0.747   7.199  0.2084 -0.6807  0.1425
   89MOL    C7217848   1.296   0.652   7.034  0.7877 -0.8877  0.3164
   89MOL    C7317849   1.174   0.582   7.091  0.2782  0.1943  0.7314
   89MOL   Cl7417850   1.203   0.494   7.242  0.0672  0.2094  0.1420
   89MOL    C7517851   1.051   0.594   7.042  0.7076 -0.3682  0.6044
   89MOL    C7617852   0.925   0.548   7.094  0.9682 -0.3903 -0.5322
   89MOL    H7717853   1.370   0.573   7.018 -0.1190 -1.7547  0.3577
   89MOL    H7817854   1.266   0.679   6.933  1.3755 -0.5539  0.2275
   89MOL    H7917855   1.034   0.650   6.951  0.3836  0.2807  1.0648
   89MOL    H8017856   0.945   0.484   7.180 -0.5759  0.0069  0.1318
   89MOL    H8117857   0.875   0.484   7.022 -0.6830  1.7019 -1.3050
   89MOL    C8217858   0.836   0.659   7.164 -0.7256  0.4341  0.4050
   89MOL    C8317859   0.700   0.627   7.226 -0.3000  0.1023 -0.1344
   89MOL   Cl8417860   0.631   0.783   7.266  0.1051 -0.1569 -0.2948
   89MOL    C8517861   0.630   0.511   7.243  0.0176  0.2456 -0.5033
   89MOL    C8617862   0.491   0.490   7.307  0.0543 -0.7585  0.0192
   89MOL    H8717863   0.817   0.733   7.086 -1.8539 -0.7807 -0.4862
   89MOL    H8817864   0.897   0.704   7.242  2.7510 -0.7639 -1.4789
   89MOL    H8917865   0.686   0.422   7.218  0.2670  0.4924 -0.8214
   89MOL    H9017866   0.445   0.580   7.350  0.0785 -1.1467  0.8764
   89MOL    H9117867   0.423   0.462   7.227 -0.1206  0.9412 -0.4519
   89MOL    C9217868   0.492   0.382   7.419 -0.7171 -0.0708 -0.5055
   89MOL    C9317869   0.356   0.328   7.472 -0.4516  0.7058  0.0104
   89MOL   Cl9417870   0.246   0.447   7.541  0.1818  0.0874 -0.3211
   89MOL    C9517871   0.310   0.203   7.464  0.1088  0.0200  0.1348
   89MOL    C9617872   0.379   0.079   7.415  0.1261  0.5415 -0.1967
   89MOL    H9717873   0.544   0.430   7.502 -1.1978  0.7299 -0.6688
   89MOL    H9817874   0.555   0.299   7.388 -2.1317 -0.7927 -1.4795
   89MOL    H9917875   0.207   0.197   7.498  0.4970  1.2729  1.6268
   89MOL   H10017876   0.486   0.094   7.409  0.1395 -0.2680 -2.1054
   89MOL   H10117877   0.366   0.009   7.498 -0.5115  1.4903  0.5075
   89MOL   C10217878   0.316   0.024   7.286  0.0117 -0.0067  0.1277
   89MOL   C10317879   0.394   8.324   7.239  0.0349 -0.0972  0.1483
   89MOL  Cl10417880   0.307   8.181   7.285  0.4924  0.4018  0.0368
   89MOL   C10517881   0.519   8.320   7.183  0.7955 -0.4596 -0.1669
   89MOL   C10617882   0.586   8.191   7.150  0.3416  0.2301  0.4890
   89MOL   H10717883   0.212   8.419   7.308  0.6850  0.8764  4.9852
   89MOL   H10817884   0.325   0.108   7.217  0.2286 -0.3845 -0.3063
   89MOL   H10917885   0.563   8.416   7.160  0.7453 -0.0369  1.4799
   89MOL   H11017886   0.688   8.193   7.187  0.2345 -1.5653  0.9207
   89MOL   H11117887   0.535   8.110   7.203  0.6902 -0.0601  0.3823
   89MOL   C11217888   0.591   8.177   6.997  0.0340 -0.2197  0.0950
   89MOL   C11317889   0.590   8.037   6.942 -0.3458  0.1568 -0.1342
   89MOL  Cl11417890   0.428   7.983   6.901  0.2242 -0.4430 -0.0488
   89MOL   C11517891   0.696   7.950   6.956 -0.2161  0.4817  0.5711
   89MOL   C11617892   0.831   7.993   7.021 -0.1755  0.1952 -0.6257
   89MOL   H11717893   0.501   8.221   6.954  0.4765 -0.3995 -1.0359
   89MOL   H11817894   0.667   8.235   6.945 -2.0150  2.9162  0.5188
   89MOL   H11917895   0.674   7.850   6.923 -1.3961  0.8659  0.1528
   89MOL   H12017896   0.838   7.938   7.115 -1.5542 -0.0656 -0.6693
   89MOL   H12117897   0.829   8.097   7.053  0.1752 -0.3907  1.3746
   89MOL   C12217898   0.947   7.970   6.920 -0.5277 -0.3378 -0.5117
   89MOL   C12317899   1.092   7.990   6.971  0.2480 -0.7036  0.7715
   89MOL  Cl12417900   1.168   7.836   6.968  0.1020  0.5350  0.2860
   89MOL   C12517901   1.150   8.114   6.990 -0.5656  0.0340 -0.5781
   89MOL   C12617902   1.082   8.244   6.986  0.2814 -0.4212  0.0613
   89MOL   H12717903   0.947   7.872   6.871 -1.5180 -0.8274  0.4737
   89MOL   H12817904   0.936   8.028   6.828 -0.5156 -0.4098 -0.5582
   89MOL   H12917905   1.255   8.101   7.015 -0.0232  0.5065 -2.5005
   89MOL   H13017906   1.144   8.299   6.916  3.6434 -3.0637  0.8264
   89MOL   H13117907   0.983   8.249   6.942 -0.4707 -0.1908  1.7343
   89MOL   C13217908   1.084   8.302   7.124  0.1248  0.3595 -0.3785
   89MOL   C13317909   1.073   0.037   7.119 -0.2954  0.1603 -0.1145
   89MOL  Cl13417910   0.910   0.092   7.126 -0.1448 -0.3202  0.2714
   89MOL   C13517911   1.176   0.124   7.128  0.1547  0.1165 -0.1020
   89MOL   C13617912   1.323   0.087   7.130 -0.0112 -1.0909  0.6310
   89MOL   H13717913   0.996   8.271   7.180  0.2058 -0.9781 -0.9682
   89MOL   H13817914   1.173   8.274   7.180  1.0930  0.4129 -1.8659
   89MOL   H13917915   1.159   0.229   7.144  1.6716  0.4426 -0.5777
   89MOL   H14017916   1.345   8.409   7.089  1.4105 -0.4589 -0.1544
   89MOL   H14117917   1.374   0.157   7.065  0.1047  0.1790  2.0672
   89MOL   C14217918   1.391   0.097   7.273  0.4145 -0.2100  0.0306
   89MOL   C14317919   1.535   0.059   7.277  0.1946  0.4348 -0.7464
   89MOL  Cl14417920   1.555   8.306   7.296  0.1118  0.0932  0.2603
   89MOL   C14517921   1.635   0.143   7.259  0.0444 -0.3555 -0.1208
   89MOL   C14617922   1.786   0.110   7.265  0.6463 -0.1582  0.2452
   89MOL   H14717923   1.342   0.039   7.351 -1.5612  0.8490 -0.3901
   89MOL   H14817924   1.381   0.203   7.298 -0.6021 -0.2462 -0.1873
   89MOL   H14917925   1.624   0.249   7.238  1.5025 -0.3253 -0.8221
   89MOL   H15017926   1.831   0.173   7.341  2.1054 -0.6844 -0.1630
   89MOL   H15117927   1.781   0.008   7.301 -0.9527 -0.0989  0.2535
   89MOL   C15217928   1.860   0.117   7.133  0.3680 -0.2276 -0.0534
   89MOL   C15317929   1.827   0.021   7.024 -0.5348  0.9501 -0.4162
   89MOL  Cl15417930   1.799   0.102   6.880  0.1238 -0.5529  0.1325
   89MOL   C15517931   1.811   8.313   7.044 -0.0323  0.3572  0.4220
   89MOL   C15617932   1.770   8.209   6.946 -0.1693 -0.5098  0.2107
   89MOL   H15717933   1.860   0.218   7.092  0.5947 -0.2698 -0.1595
   89MOL   H15817934   1.962   0.090   7.162  0.2756  1.0166  1.5441
   89MOL   H15917935   1.838   8.267   7.138 -0.7392 -0.7819  0.0768
   89MOL   H16017936   1.831   8.119   6.950  0.1395 -0.2575  1.5298
   89MOL   H16117937   1.764   8.253   6.847 -2.1594  3.7954  2.1377
   89MOL   C16217938   1.634   8.151   6.984 -0.3409 -0.4912  0.1861
   89MOL   C16317939   1.598   8.027   6.896 -0.4523  0.0173  0.7328
   89MOL  Cl16417940   1.655   7.877   6.962 -0.0140 -0.0579 -0.3026
   89MOL   C16517941   1.538   8.028   6.770  0.2460  0.5954  0.8899
   89MOL   C16617942   1.497   7.913   6.685  0.2872 -0.6369  0.3038
   89MOL   H16717943   1.629   8.112   7.086  1.9892 -1.8082 -0.1554
   89MOL   H16817944   1.557   8.227   6.969  1.0105  1.0549  0.9525
   89MOL   H16917945   1.530   8.127   6.730 -0.4973  0.2687  0.2100
   89MOL   H17017946   1.560   7.921   6.597 -0.7962  3.2016 -0.2232
   89MOL   H17117947   1.512   7.815   6.729 -1.7412 -2.7890 -3.5272
   89MOL   C17217948   1.348   7.919   6.651 -0.2591 -0.4708  0.4032
   89MOL   C17317949   1.309   8.038   6.562  0.1944 -0.3022  0.1815
   89MOL  Cl17417950   1.187   8.127   6.646 -0.1776  0.1638 -0.3017
   89MOL   C17517951   1.345   8.065   6.432  0.0006  0.2575 -0.2822
   89MOL   C17617952   1.295   8.182   6.356  0.4729  0.1485 -0.1501
   89MOL   H17717953   1.282   7.916   6.738  0.1661  0.9760  0.7750
   89MOL   H17817954   1.338   7.827   6.594  2.5094 -2.0963  2.3637
   89MOL   H17917955   1.410   8.001   6.373  1.1436  0.1393  1.0849
   89MOL   H18017956   1.277   8.266   6.423 -1.9763 -0.5966  0.2047
   89MOL   H18117957   1.194   8.149   6.328  1.3943 -1.9452 -1.1176
   89MOL   C18217958   1.373   8.220   6.227  0.5329  0.3506 -0.6496
   89MOL   C18317959   1.292   8.309   6.146  0.3238 -0.1811 -0.2127
   89MOL  Cl18417960   1.169   8.218   6.066 -0.1880  0.0405 -0.3782
   89MOL   C18517961   1.310   0.022   6.147  0.8537  0.2930 -0.6678
   89MOL   C18617962   1.220   0.110   6.066 -0.2693  0.0610  1.1628
   89MOL   H18717963   1.470   8.270   6.232 -0.7440  2.7383  2.6525
   89MOL   H18817964   1.379   8.134   6.161 -1.8121 -0.6208  0.3270
   89MOL   H18917965   1.392   0.072   6.197  1.2134  0.1207 -1.0838
   89MOL   H19017966   1.284   0.173   6.003 -0.9164  0.6321  1.0781
   89MOL   H19117967   1.163   0.047   5.999 -0.4371  0.5969  0.7956
   89MOL   C19217968   1.119   0.191   6.152 -0.5352 -0.4206 -0.3629
   89MOL   C19317969   1.065   0.310   6.081  0.2768 -0.3142 -0.6748
   89MOL  Cl19417970   1.188   0.431   6.054 -0.0614  0.1082 -0.0868
   89MOL   C19517971   0.941   0.331   6.034  0.7318 -0.1616  0.3971
   89MOL   C19617972   0.823   0.234   6.049  0.2345  0.1844  0.1118
   89MOL   H19717973   1.149   0.234   6.248  0.9012 -1.5413 -0.2960
   89MOL   H19817974   1.037   0.129   6.187 -0.8838  0.2614  0.0465
   89MOL   H19917975   0.916   0.426   5.990 -0.6880 -0.2749  0.9183
   89MOL   H20017976   0.732   0.292   6.066  1.2629  1.7062  0.5303
   89MOL   H20117977   0.826   0.164   6.133  1.6562  1.1060  0.8408
   89MOL   H20217978   0.804   0.184   5.954  0.7238  0.3017 -0.0474
   90MOL     C117979   1.446   0.127   5.234 -0.8147  0.2491 -0.3974
   90MOL     C217980   1.540   0.211   5.325  0.2308 -0.1860  0.4590
   90MOL    Cl317981   1.456   0.319   5.430  0.1395 -0.1857 -0.5062
   90MOL     C417982   1.668   0.191   5.335 -0.1427  0.2378  0.3203
   90MOL     C517983   1.757   0.111   5.250 -0.0426  0.4785 -0.1098
   90MOL     H617984   1.461   0.138   5.127 -0.1655  1.1339 -0.2194
   90MOL     H717985   1.341   0.152   5.243 -1.3349 -1.7951 -0.5411
   90MOL     H817986   1.723   0.252   5.404  1.0011 -0.2883 -0.1194
   90MOL     H917987   1.696   0.047   5.186 -0.1959  0.9611 -0.4459
   90MOL    H1017988   1.809   0.173   5.178 -1.7357  0.6997 -1.1786
   90MOL    H1117989   1.451   0.027   5.279 -1.5376 -0.7674 -2.4903
   90MOL    C1217990   1.851   0.025   5.339 -0.0106  0.3817 -0.0867
   90MOL    C1317991   1.792   8.334   5.419  0.2144  0.0278 -0.0128
   90MOL   Cl1417992   1.766   8.380   5.587  0.0754  0.0031 -0.2067
   90MOL    C1517993   1.766   8.211   5.372 -0.6512  0.1083 -0.1952
   90MOL    C1617994   1.785   8.165   5.225 -0.3808 -0.3254  0.0144
   90MOL    H1717995   1.933   8.401   5.283  1.4951  1.0940  1.4985
   90MOL    H1817996   1.907   0.085   5.410  0.1669  1.7931 -1.4021
   90MOL    H1917997   1.719   8.140   5.439 -1.7153  0.4936 -0.5320
   90MOL    H2017998   1.869   8.223   5.185 -0.2087 -1.0997 -0.7614
   90MOL    H2117999   1.816   8.061   5.218 -0.2342 -0.1429 -2.6148
   90MOL    C2218000   1.652   8.167   5.145 -0.4012  0.2722 -0.1069
   90MOL    C2318001   1.556   8.064   5.204 -1.4579 -0.0127 -0.5855
   90MOL   Cl2418002   1.455   8.136   5.329 -0.0981  0.2813 -0.2079
   90MOL    C2518003   1.541   7.943   5.149  0.5849 -0.0562  0.1174
   90MOL    C2618004   1.444   7.839   5.179 -0.0084 -0.6791  1.0379
   90MOL    H2718005   1.607   8.265   5.155  1.0794  1.0097 -0.5819
   90MOL    H2818006   1.672   8.154   5.038  1.9508 -0.5300  0.3901
   90MOL    H2918007   1.617   7.918   5.077  1.6507 -0.8035  1.4830
   90MOL    H3018008   1.358   7.874   5.236  0.0627  0.8541  0.2337
   90MOL    H3118009   1.413   7.815   5.077  0.5242  2.2566  0.1301
   90MOL    C3218010   1.509   7.717   5.248 -0.2124 -0.2368 -0.2831
   90MOL    C3318011   1.407   7.617   5.301  0.2097 -0.1396  0.3139
   90MOL   Cl3418012   1.424   7.590   5.469  0.5028  0.1506 -0.6281
   90MOL    C3518013   1.310   7.559   5.222 -0.5379 -0.4863  0.0140
   90MOL    C3618014   1.204   7.462   5.274 -0.1045 -0.4759 -0.1056
   90MOL    H3718015   1.579   7.670   5.179 -0.0411 -0.8778  0.3130
   90MOL    H3818016   1.576   7.746   5.330  0.2037  0.8137 -0.9783
   90MOL    H3918017   1.301   7.575   5.116 -0.4969  1.4071  0.2761
   90MOL    H4018018   1.228   7.359   5.247  1.3845  0.1746 -1.3477
   90MOL    H4118019   1.199   7.465   5.382  1.2480  0.8581 -0.0693
   90MOL    C4218020   1.061   7.505   5.223  0.1453 -0.2523 -0.6545
   90MOL    C4318021   0.949   7.415   5.265 -0.0460  0.3025 -0.9854
   90MOL   Cl4418022   0.939   7.414   5.439  0.2309  0.1616 -0.0033
   90MOL    C4518023   0.847   7.355   5.199 -0.0881  0.8323  0.0241
   90MOL    C4618024   0.832   7.347   5.055 -0.4881  0.7278 -0.2988
   90MOL    H4718025   1.043   7.609   5.251 -1.0406 -0.7233  0.3969
   90MOL    H4818026   1.055   7.511   5.115 -1.2903 -1.4344 -0.6575
   90MOL    H4918027   0.767   7.307   5.254  0.2164  0.1715 -0.0982
   90MOL    H5018028   0.741   7.401   5.027 -0.6528  0.7052  0.1929
   90MOL    H5118029   0.921   7.398   5.019  0.4759  0.0645  1.1088
   90MOL    C5218030   0.813   7.205   5.008 -0.3509 -1.0585 -0.3797
   90MOL    C5318031   0.687   7.134   5.063  0.0401  0.2186 -0.1390
   90MOL   Cl5418032   0.551   7.197   4.982 -0.1122 -0.3683 -0.2202
   90MOL    C5518033   0.679   7.040   5.152  0.0111 -0.7096  0.2410
   90MOL    C5618034   0.549   6.972   5.196  0.1612  0.0507 -0.1801
   90MOL    H5718035   0.788   7.217   4.903 -0.4310  1.4306 -0.1024
   90MOL    H5818036   0.899   7.137   5.012  1.5181  1.3538  3.8286
   90MOL    H5918037   0.766   7.004   5.205  0.1924 -0.4919  0.0899
   90MOL    H6018038   0.484   6.997   5.112  0.7240  1.5851 -0.1730
   90MOL    H6118039   0.567   6.865   5.202  2.5299  0.4559  0.5630
   90MOL    C6218040   0.492   7.014   5.334  0.2525  0.4037 -0.0872
   90MOL    C6318041   0.499   7.168   5.356  0.5610 -0.5440 -0.2685
   90MOL   Cl6418042   0.599   7.224   5.492 -0.0238 -0.1415 -0.1091
   90MOL    C6518043   0.428   7.260   5.283  0.2925 -0.5289  0.4119
   90MOL    C6618044   0.414   7.410   5.311  0.4152  0.5958  0.4304
   90MOL    H6718045   0.387   6.989   5.343  0.6721 -1.1450  0.6535
   90MOL    H6818046   0.529   6.968   5.425  0.5466 -0.4191 -0.6251
   90MOL    H6918047   0.374   7.221   5.198  1.0153  1.8195 -1.1639
   90MOL    H7018048   0.384   7.461   5.219  0.1763  3.4839  2.0481
   90MOL    H7118049   0.511   7.448   5.344  1.2060 -1.1889  0.2072
   90MOL    C7218050   0.306   7.435   5.418  0.3539 -0.4428  0.1709
   90MOL    C7318051   0.309   7.576   5.468  0.2737 -0.0720 -0.9801
   90MOL   Cl7418052   0.348   7.690   5.339  0.1184  0.1500 -0.1148
   90MOL    C7518053   0.272   7.622   5.592  0.1112 -0.3526 -0.0186
   90MOL    C7618054   0.266   7.765   5.645  0.3236 -0.8178  0.3213
   90MOL    H7718055   0.334   7.365   5.497  0.5742  1.0852  1.4778
   90MOL    H7818056   0.206   7.405   5.388  0.1869  1.8442 -1.6114
   90MOL    H7918057   0.236   7.550   5.665  2.8720  0.9116  2.6624
   90MOL    H8018058   0.160   7.783   5.665  0.8322  0.7663  1.6972
   90MOL    H8118059   0.298   7.846   5.580 -1.1276  0.3387  1.0128
   90MOL    C8218060   0.347   7.779   5.782  0.9691 -0.6932  0.1343
   90MOL    C8318061   0.341   7.915   5.849 -0.4121 -0.1626 -0.0626
   90MOL   Cl8418062   0.453   8.023   5.784 -0.0238  0.0042 -0.2238
   90MOL    C8518063   0.257   7.943   5.945  1.2720  0.3277  0.8805
   90MOL    C8618064   0.248   8.083   6.005 -0.6459 -0.5710 -0.0227
   90MOL    H8718065   0.451   7.747   5.780  0.3588 -2.9792  2.0448
   90MOL    H8818066   0.308   7.698   5.844 -1.0729  0.0356 -0.1518
   90MOL    H8918067   0.188   7.868   5.981  0.1213  1.6330  1.4369
   90MOL    H9018068   0.302   8.162   5.953 -1.4091  0.6647  1.0341
   90MOL    H9118069   0.145   8.116   6.022 -0.6555 -0.2183 -0.7459
   90MOL    C9218070   0.298   8.079   6.155  0.1244  0.7233 -0.5809
   90MOL    C9318071   0.305   8.218   6.207  0.1837  0.7064  0.2804
   90MOL   Cl9418072   0.164   8.248   6.296  0.4067 -0.2797 -0.0570
   90MOL    C9518073   0.401   8.314   6.193  0.0557  0.3643  0.4755
   90MOL    C9618074   0.530   8.292   6.114 -0.3487  0.1725 -0.0747
   90MOL    H9718075   0.393   8.027   6.152  0.5820  1.5338 -0.3294
   90MOL    H9818076   0.228   8.018   6.212  1.2744  0.8883  1.0415
   90MOL    H9918077   0.397   8.408   6.246  0.6863  0.5412  0.2168
   90MOL   H10018078   0.617   8.288   6.179 -1.4402  0.7538  1.4601
   90MOL   H10118079   0.529   8.195   6.065  1.0624  0.1511 -0.0706
   90MOL   C10218080   0.538   8.399   6.001  0.2183  0.0278  0.8292
   90MOL   C10318081   0.631   8.358   5.886  0.3882 -0.3470 -0.3185
   90MOL  Cl10418082   0.549   8.365   5.730 -0.0346  0.2104  0.0711
   90MOL   C10518083   0.757   8.309   5.903  0.0039 -0.4759 -0.5349
   90MOL   C10618084   0.843   8.265   5.790 -0.4303  0.8022 -0.0409
   90MOL   H10718085   0.436   8.407   5.966  1.2251 -0.4185 -2.3428
   90MOL   H10818086   0.568   0.075   6.043  1.0998 -0.0557  0.4081
   90MOL   H10918087   0.796   8.300   6.004  1.8876  0.8588 -1.1300
   90MOL   H11018088   0.918   8.203   5.839 -1.9826  0.8021  2.4077
   90MOL   H11118089   0.791   8.200   5.720  0.8759  0.1676 -0.4475
   90MOL   C11218090   0.891   8.396   5.721  0.3480 -0.4710 -0.0730
   90MOL   C11318091   0.961   8.369   5.592  0.3098 -0.8361 -0.5206
   90MOL  Cl11418092   0.853   8.375   5.453  0.1127 -0.0255  0.2321
   90MOL   C11518093   1.088   8.366   5.566  0.2071  0.1892 -0.0792
   90MOL   C11618094   1.188   8.377   5.672 -0.7450 -0.1004  0.5506
   90MOL   H11718095   0.808   0.042   5.700  0.5530 -0.0508  0.4395
   90MOL   H11818096   0.958   0.025   5.791  0.0672 -0.7479  0.3908
   90MOL   H11918097   1.110   8.354   5.461 -1.5473  1.6169 -0.6368
   90MOL   H12018098   1.192   8.278   5.717  0.9252 -0.9945 -1.4723
   90MOL   H12118099   1.155   0.030   5.746  0.4430  0.3302  0.6615
   90MOL   C12218100   1.324   8.417   5.619  0.2228 -0.2133 -0.3502
   90MOL   C12318101   1.430   0.005   5.719 -0.5615 -0.3100 -0.0568
   90MOL  Cl12418102   1.507   0.159   5.723 -0.1220 -0.0596  0.0641
   90MOL   C12518103   1.478   8.326   5.792  0.0757  0.0491 -0.2107
   90MOL   C12618104   1.431   8.182   5.799 -0.1273  0.3327 -0.2297
   90MOL   H12718105   1.347   8.342   5.544 -1.9492  0.3884 -1.6589
   90MOL   H12818106   1.319   0.096   5.574  0.1187  1.4458  3.1255
   90MOL   H12918107   1.573   8.347   5.837 -0.2566  0.0995  0.4681
   90MOL   H13018108   1.341   8.173   5.860  0.2590 -1.0792  0.1506
   90MOL   H13118109   1.402   8.156   5.697  3.1707  0.3816 -1.2571
   90MOL   C13218110   1.538   8.089   5.848  0.1683 -0.1261  0.3085
   90MOL   C13318111   1.504   7.946   5.828 -0.4299  0.4124 -0.2839
   90MOL  Cl13418112   1.427   7.878   5.967  0.1128  0.4769 -0.0578
   90MOL   C13518113   1.541   7.873   5.721  0.7102 -0.5738 -0.0217
   90MOL   C13618114   1.617   7.921   5.594 -0.4651  0.1895 -0.2531
   90MOL   H13718115   1.635   8.098   5.799 -0.3388 -3.7048 -1.4644
   90MOL   H13818116   1.551   8.106   5.955 -0.1922 -1.9865  0.6622
   90MOL   H13918117   1.507   7.771   5.712  3.5943 -1.7314  1.5081
   90MOL   H14018118   1.552   7.898   5.510  0.6861  0.6600 -1.2803
   90MOL   H14118119   1.637   8.027   5.583 -1.8206  0.8585  3.0769
   90MOL   C14218120   1.745   7.832   5.567  0.1598  0.1708  1.1008
   90MOL   C14318121   1.880   7.882   5.617 -0.4219 -0.0930 -0.2237
   90MOL  Cl14418122   1.867   8.023   5.711 -0.3775  0.0284  0.0935
   90MOL   C14518123   1.994   7.816   5.589 -0.1728 -0.4755 -0.8569
   90MOL   C14618124   2.131   7.858   5.627 -0.4553  0.2343  0.1617
   90MOL   H14718125   1.761   7.827   5.460 -0.1971  0.6908  1.0237
   90MOL   H14818126   1.727   7.727   5.589  1.7718 -0.5345 -0.8268
   90MOL   H14918127   1.981   7.725   5.533  2.2572 -0.9657 -0.6936
   90MOL   H15018128   2.182   7.886   5.535  0.6711  1.7727  1.2236
   90MOL   H15118129   2.114   7.952   5.679  4.5823  0.9748  0.6783
   90MOL   C15218130   2.201   7.771   5.729 -0.3299  0.1277 -0.2642
   90MOL   C15318131   2.329   7.827   5.787 -0.3794 -0.3275 -0.0528
   90MOL  Cl15418132   2.301   7.920   5.929  0.0880  0.3028  0.1198
   90MOL   C15518133   2.447   7.799   5.729  0.3218 -0.3781  0.0478
   90MOL   C15618134   2.584   7.836   5.773  0.1825  0.5466 -0.4296
   90MOL   H15718135   2.131   7.753   5.810  1.6770 -3.2617  0.8110
   90MOL   H15818136   2.210   7.670   5.690  2.9972  0.8273 -1.5455
   90MOL   H15918137   2.434   7.739   5.640  0.2657 -1.2324  0.6279
   90MOL   H16018138   2.635   7.742   5.796 -2.8539 -0.7061  1.5340
   90MOL   H16118139   2.563   7.895   5.863  1.8621  0.0637  0.2955
   90MOL   C16218140   2.648   7.931   5.673 -0.2224 -0.2914 -0.4716
   90MOL   C16318141   2.789   7.979   5.716  0.3752 -0.3039  0.8967
   90MOL  Cl16418142   2.875   8.044   5.574  0.3483  0.2881  0.0490
   90MOL   C16518143   2.843   7.968   5.835 -0.3210  0.5448 -1.0993
   90MOL   C16618144   2.984   8.007   5.870 -0.1970 -0.7198  0.9932
   90MOL   H16718145   2.662   7.878   5.579 -2.2663 -1.6299 -0.0524
   90MOL   H16818146   2.578   8.009   5.645  1.0257  0.4856 -1.4527
   90MOL   H16918147   2.793   7.924   5.920  1.0491  0.2142 -0.4583
   90MOL   H17018148   3.052   7.926   5.842 -1.3538 -0.8508 -1.5629
   90MOL   H17118149   3.007   8.095   5.809 -0.6034 -1.6326 -0.4914
   90MOL   C17218150   3.010   8.036   6.017 -0.1890  0.2222  0.4589
   90MOL   C17318151   3.127   8.126   6.038  0.0234  0.4168 -0.8560
   90MOL  Cl17418152   3.287   8.059   6.034 -0.5941 -0.1470 -0.1548
   90MOL   C17518153   3.101   8.254   6.059  0.7415 -0.0252 -0.3211
   90MOL   C17618154   3.206   8.365   6.078 -0.0368 -0.0451 -0.0487
   90MOL   H17718155   3.031   7.946   6.075 -0.1699 -0.4707 -0.6113
   90MOL   H17818156   2.915   8.078   6.050 -0.4572 -0.2759  0.3310
   90MOL   H17918157   2.996   8.277   6.063  0.4814 -1.3077  0.8369
   90MOL   H18018158   3.298   8.321   6.119 -0.9937 -1.3969  0.6891
   90MOL   H18118159   3.168   0.011   6.156 -0.8889  0.3791 -0.8234
   90MOL   C18218160   3.238   0.028   5.952 -0.5628  0.2532 -0.1773
   90MOL   C18318161   3.340   0.138   5.964  0.2828 -0.2069 -0.5796
   90MOL  Cl18418162   3.499   0.080   5.969  0.0372  0.0812  0.2920
   90MOL   C18518163   3.305   0.267   5.956 -0.4170  0.0454  0.1579
   90MOL   C18618164   3.393   0.385   5.968 -0.1396  0.0274  0.3731
   90MOL   H18718165   3.288   8.380   5.884 -0.5730 -1.5573  1.5962
   90MOL   H18818166   3.140   0.054   5.912 -0.5427  0.3208 -0.1820
   90MOL   H18918167   3.201   0.286   5.934 -0.8926 -0.3249  1.9334
   90MOL   H19018168   3.354   0.445   6.050 -0.0942 -0.4633  0.7586
   90MOL   H19118169   3.497   0.357   5.988  0.3521 -0.6954 -2.9637
   90MOL   C19218170   3.394   0.485   5.848 -0.2917  0.4866  0.1020
   90MOL   C19318171   3.482   0.604   5.887  0.4343  0.3362 -0.0975
   90MOL  Cl19418172   3.383   0.745   5.917  0.1934  0.0810  0.4481
   90MOL   C19518173   3.613   0.604   5.901 -0.3513 -0.0594  0.3473
   90MOL   C19618174   3.715   0.490   5.891  0.7357  0.0240 -0.4255
   90MOL   H19718175   3.291   0.506   5.819 -0.5686  0.3586  0.9566
   90MOL   H19818176   3.436   0.442   5.757 -1.3716  2.7004 -1.4816
   90MOL   H19918177   3.663   0.698   5.921 -1.0841  0.1260  1.3637
   90MOL   H20018178   3.673   0.393   5.863 -1.6399  1.1335 -0.8499
   90MOL   H20118179   3.764   0.477   5.988 -1.1894 -2.5382  0.2775
   90MOL   H20218180   3.797   0.510   5.823  0.7071  1.7543  0.0294
   91MOL     C118181   0.993   5.966   6.624 -0.0706  0.4789 -0.3589
   91MOL     C218182   1.083   5.878   6.706  0.1654 -0.0845  0.3998
   91MOL    Cl318183   1.236   5.947   6.746  0.0226  0.1557 -0.1151
   91MOL     C418184   1.038   5.760   6.763  0.4853  0.4317 -0.4874
   91MOL     C518185   0.905   5.692   6.733  0.2995 -0.1496  0.0760
   91MOL     H618186   0.896   5.979   6.672 -0.4441 -2.7950 -0.1537
   91MOL     H718187   0.979   5.923   6.525  0.4345  1.3767 -0.8272
   91MOL     H818188   1.099   5.709   6.836  1.2432 -1.1424 -2.1779
   91MOL     H918189   0.837   5.753   6.674 -2.5479 -1.0883  2.2625
   91MOL    H1018190   0.931   5.605   6.672  0.1766 -1.2998  1.6254
   91MOL    H1118191   1.040   6.064   6.614  0.6315  0.2424  0.6146
   91MOL    C1218192   0.829   5.636   6.857  0.0560 -0.6109  0.1723
   91MOL    C1318193   0.730   5.530   6.823 -0.0033 -0.0024  0.5707
   91MOL   Cl1418194   0.647   5.559   6.678 -0.1379 -0.2663  0.0963
   91MOL    C1518195   0.717   5.423   6.898  0.6420  0.1334 -0.3575
   91MOL    C1618196   0.787   5.385   7.024 -0.7885  0.2788  0.6592
   91MOL    H1718197   0.915   5.601   6.914  1.6166  0.2131 -1.6318
   91MOL    H1818198   0.772   5.718   6.900 -0.3055  0.2939 -1.9427
   91MOL    H1918199   0.651   5.346   6.861  0.9523  0.8406 -2.4453
   91MOL    H2018200   0.824   5.475   7.073 -0.6541  0.1435  0.8053
   91MOL    H2118201   0.706   5.349   7.087 -1.4260  0.5855  0.0297
   91MOL    C2218202   0.884   5.267   7.001  0.6295 -0.0919  0.3509
   91MOL    C2318203   0.925   5.189   7.127 -0.3281  0.6168 -0.0867
   91MOL   Cl2418204   1.076   5.111   7.091 -0.0774 -0.5429 -0.0109
   91MOL    C2518205   0.865   5.164   7.246  0.6777  0.2793  0.7009
   91MOL    C2618206   0.902   5.057   7.347 -0.7349  0.0654 -0.4075
   91MOL    H2718207   0.824   5.198   6.941 -2.7302 -0.1499  3.5534
   91MOL    H2818208   0.979   5.295   6.956 -0.0108  0.9958 -0.3383
   91MOL    H2918209   0.776   5.222   7.269  1.4253  1.9176 -0.4493
   91MOL    H3018210   0.807   5.008   7.372  0.1200 -1.3328  0.2043
   91MOL    H3118211   0.966   4.976   7.312 -0.4460  0.4269 -0.7165
   91MOL    C3218212   0.961   5.123   7.471  0.2339  0.0229  0.5012
   91MOL    C3318213   0.988   5.030   7.591  0.0858  0.0021 -0.4231
   91MOL   Cl3418214   1.103   5.106   7.694  0.2116  0.0110  0.2438
   91MOL    C3518215   0.939   4.906   7.610 -0.8447  0.0054  0.3995
   91MOL    C3618216   0.974   4.821   7.731 -0.8774  0.4825 -0.2755
   91MOL    H3718217   1.053   5.179   7.454 -0.2998  0.8809  0.3902
   91MOL    H3818218   0.895   5.204   7.501 -0.5616 -1.0111  1.5321
   91MOL    H3918219   0.872   4.860   7.539 -0.7111 -0.7714  0.7658
   91MOL    H4018220   1.026   4.869   7.813  2.0219  0.2235 -1.8992
   91MOL    H4118221   0.879   4.798   7.779  0.3251 -6.4332 -0.7189
   91MOL    C4218222   1.051   4.691   7.703  0.3350 -0.2333 -0.6737
   91MOL    C4318223   1.077   4.599   7.821  0.3138 -0.5490  0.0497
   91MOL   Cl4418224   0.956   4.597   7.945  0.4601  0.1438 -0.3351
   91MOL    C4518225   1.175   4.506   7.822 -0.5209  0.2417  0.2242
   91MOL    C4618226   1.275   4.497   7.710  0.2054 -0.9609  0.0872
   91MOL    H4718227   1.013   4.637   7.616 -1.9577 -0.8698  0.6668
   91MOL    H4818228   1.147   4.735   7.675  0.2970 -0.5441 -1.3093
   91MOL    H4918229   1.192   4.440   7.906 -0.4502 -0.1671 -0.1098
   91MOL    H5018230   1.235   4.505   7.608 -0.1431 -0.8856  0.2300
   91MOL    H5118231   1.349   4.576   7.724  1.5207 -1.9993 -0.9173
   91MOL    C5218232   1.346   4.363   7.694 -1.0140  0.4103 -0.3291
   91MOL    C5318233   1.418   4.361   7.569 -0.3280 -0.0144  0.2269
   91MOL   Cl5418234   1.587   4.393   7.584 -0.0967 -0.1428 -0.1612
   91MOL    C5518235   1.371   4.300   7.460 -0.7353  0.9385 -0.0549
   91MOL    C5618236   1.450   4.271   7.332  0.0696 -0.0646 -0.7398
   91MOL    H5718237   1.405   4.342   7.784 -0.5717  0.9934 -0.4785
   91MOL    H5818238   1.279   4.277   7.691 -1.0507  0.3493  1.5898
   91MOL    H5918239   1.268   4.269   7.453  0.4394 -2.9949 -1.4731
   91MOL    H6018240   1.557   4.260   7.348 -0.0100 -0.2327 -0.3316
   91MOL    H6118241   1.410   4.172   7.311 -1.6714  0.2377  0.9333
   91MOL    C6218242   1.408   4.354   7.210 -0.4963 -0.9998 -0.2966
   91MOL    C6318243   1.504   4.332   7.094 -0.2773 -0.0136  0.5073
   91MOL   Cl6418244   1.425   4.233   6.980  0.2430  0.0822 -0.0174
   91MOL    C6518245   1.625   4.382   7.076  0.2075  0.1309 -0.0583
   91MOL    C6618246   1.726   4.341   6.968  0.1315  0.0147 -0.0936
   91MOL    H6718247   1.302   4.349   7.185 -1.0185  1.6150  1.1994
   91MOL    H6818248   1.424   4.459   7.234 -2.1702 -1.2314  1.9918
   91MOL    H6918249   1.654   4.456   7.148  0.2348  0.2061 -0.1471
   91MOL    H7018250   1.691   4.266   6.896  1.2239 -0.5443 -0.0642
   91MOL    H7118251   1.797   4.288   7.031  0.4347  0.3692 -0.1374
   91MOL    C7218252   1.769   4.465   6.891  0.7699  0.1288  0.8003
   91MOL    C7318253   1.891   4.454   6.807 -0.2897  0.2857  0.4439
   91MOL   Cl7418254   2.026   4.435   6.915  0.2539  0.5716  0.1350
   91MOL    C7518255   1.909   4.460   6.672  0.5554 -1.2730  0.6656
   91MOL    C7618256   2.041   4.445   6.597  0.0819 -0.4209 -0.5622
   91MOL    H7718257   1.784   4.555   6.951 -1.3234  1.1813 -0.1991
   91MOL    H7818258   1.686   4.495   6.828  0.8166 -1.4047 -0.0126
   91MOL    H7918259   1.825   4.485   6.609 -0.3250 -0.5732  2.0941
   91MOL    H8018260   2.021   4.371   6.519 -0.7777  1.0331 -1.7316
   91MOL    H8118261   2.123   4.409   6.660 -0.1342  2.5517  1.5178
   91MOL    C8218262   2.090   4.568   6.520  0.0890 -0.0989  0.5854
   91MOL    C8318263   2.081   4.695   6.598  0.2321 -0.0675  0.4040
   91MOL   Cl8418264   1.927   4.771   6.568 -0.2676 -0.1856  0.2105
   91MOL    C8518265   2.174   4.736   6.686 -0.4066 -0.1400 -0.0694
   91MOL    C8618266   2.153   4.858   6.760  0.4578 -0.3744  0.3953
   91MOL    H8718267   2.031   4.582   6.429  0.3771 -2.1105  0.0657
   91MOL    H8818268   2.186   4.551   6.473 -0.2925 -1.9140  0.3930
   91MOL    H8918269   2.263   4.677   6.704  0.8131  1.5730 -0.4076
   91MOL    H9018270   2.238   4.925   6.773  0.1236  0.1162  0.0843
   91MOL    H9118271   2.084   4.927   6.711 -2.2609 -2.7493  0.7914
   91MOL    C9218272   2.093   4.831   6.899 -0.7000 -0.3129 -0.1674
   91MOL    C9318273   2.066   4.965   6.976  0.5596  0.2101 -0.1279
   91MOL   Cl9418274   2.201   5.045   7.034  0.1031 -0.2218  0.0347
   91MOL    C9518275   1.951   5.025   6.996 -0.5709  0.2057  0.1770
   91MOL    C9618276   1.812   4.988   6.945  0.8366 -0.0097  0.1303
   91MOL    H9718277   2.159   4.776   6.966 -1.2680  0.4834  1.0642
   91MOL    H9818278   2.006   4.767   6.903 -1.0768  0.2394  0.7874
   91MOL    H9918279   1.946   5.120   7.047 -2.1791  1.5577 -2.3772
   91MOL   H10018280   1.771   5.065   6.880  2.8737  0.7148 -0.3215
   91MOL   H10118281   1.838   4.904   6.881  1.6527 -1.4678  2.3328
   91MOL   C10218282   1.698   4.942   7.045 -0.2826  0.1587  0.0891
   91MOL   C10318283   1.573   4.904   6.969 -0.3541  0.6532 -0.1362
   91MOL  Cl10418284   1.433   4.994   7.030  0.0657  0.1476 -0.0857
   91MOL   C10518285   1.559   4.814   6.867  0.7607 -0.1365 -0.7369
   91MOL   C10618286   1.426   4.784   6.797 -0.5468  0.0992 -0.1682
   91MOL   H10718287   1.741   4.859   7.102 -0.6064 -1.2920 -1.7369
   91MOL   H10818288   1.681   5.033   7.102  0.0408  1.7171 -2.2483
   91MOL   H10918289   1.645   4.755   6.838  0.5731 -0.9565  0.3453
   91MOL   H11018290   1.346   4.829   6.857 -1.1080 -1.0212 -0.0643
   91MOL   H11118291   1.401   4.827   6.700  1.6395 -2.5637 -1.9385
   91MOL   C11218292   1.400   4.631   6.795  0.2618  0.2266  0.0561
   91MOL   C11318293   1.254   4.615   6.757 -0.9667  0.6081 -0.0055
   91MOL  Cl11418294   1.245   4.605   6.587 -0.0900 -0.0761  0.0494
   91MOL   C11518295   1.148   4.610   6.840  0.2708  0.0116  0.6979
   91MOL   C11618296   1.156   4.622   6.991 -0.9238 -0.8797 -0.2983
   91MOL   H11718297   1.452   4.578   6.715 -1.7468 -1.7698  0.0305
   91MOL   H11818298   1.419   4.578   6.888  1.8493  0.1053 -0.3293
   91MOL   H11918299   1.052   4.596   6.793  1.2227  0.8103 -1.5837
   91MOL   H12018300   1.259   4.645   7.017 -1.5637 -0.9601  2.4186
   91MOL   H12118301   1.129   4.525   7.032 -2.2103  0.6647  2.6147
   91MOL   C12218302   1.068   4.733   7.049  1.0671  1.0444 -0.0645
   91MOL   C12318303   1.029   4.697   7.196  0.6361 -0.5234  0.3593
   91MOL  Cl12418304   0.862   4.675   7.196 -0.2167 -0.0847 -0.2305
   91MOL   C12518305   1.106   4.690   7.306  0.3816 -0.5579 -0.1299
   91MOL   C12618306   1.259   4.697   7.309 -0.6611 -0.5991 -0.8067
   91MOL   H12718307   1.134   4.816   7.075  1.9250  0.4579 -0.3223
   91MOL   H12818308   0.980   4.755   6.989 -0.2708 -1.7504  0.7835
   91MOL   H12918309   1.067   4.664   7.403 -0.1230 -2.6996 -0.8662
   91MOL   H13018310   1.300   4.596   7.303  1.0626 -0.0680  1.6539
   91MOL   H13118311   1.297   4.722   7.210  0.1922  0.6037 -0.1807
   91MOL   C13218312   1.321   4.774   7.424 -0.2241  0.4852  0.1965
   91MOL   C13318313   1.464   4.814   7.408  0.1113  0.1963 -0.2701
   91MOL  Cl13418314   1.552   4.699   7.321 -0.2998  0.1709 -0.0676
   91MOL   C13518315   1.523   4.918   7.468  0.2125  0.0291  0.1899
   91MOL   C13618316   1.458   5.011   7.566  0.4468  0.0183  0.0244
   91MOL   H13718317   1.258   4.862   7.434 -1.9755 -0.7975  0.6331
   91MOL   H13818318   1.309   4.717   7.516 -0.9370  1.6224  0.8214
   91MOL   H13918319   1.627   4.935   7.442 -0.0079 -0.5429 -1.1223
   91MOL   H14018320   1.515   5.104   7.572  0.7941 -0.3131  2.7609
   91MOL   H14118321   1.358   5.034   7.529  0.1546 -1.6117 -0.2332
   91MOL   C14218322   1.452   4.950   7.706  0.6668 -0.2103 -0.5905
   91MOL   C14318323   1.581   4.886   7.752  0.3462  0.4705  0.0817
   91MOL  Cl14418324   1.569   4.715   7.774 -0.2378 -0.1137 -0.3027
   91MOL   C14518325   1.692   4.960   7.771 -0.6391 -0.1294 -0.4995
   91MOL   C14618326   1.828   4.899   7.817  0.3209  0.0419  0.1134
   91MOL   H14718327   1.375   4.873   7.698  1.8401 -1.4197 -0.5134
   91MOL   H14818328   1.442   5.032   7.777  1.9183  0.0827 -0.7387
   91MOL   H14918329   1.686   5.065   7.746  0.3019  0.6832  2.4651
   91MOL   H15018330   1.847   4.940   7.916  0.7957 -0.4968  0.2444
   91MOL   H15118331   1.826   4.790   7.827  2.1252 -0.3664 -3.2116
   91MOL   C15218332   1.940   4.924   7.714 -0.4057  0.3655 -0.3821
   91MOL   C15318333   2.073   4.910   7.781 -0.5659 -0.4684 -0.0909
   91MOL  Cl15418334   2.148   5.062   7.820  0.3681  0.3996  0.5738
   91MOL   C15518335   2.138   4.793   7.793  0.0201  0.1068  0.4690
   91MOL   C15618336   2.271   4.765   7.866 -0.2893 -0.3553  0.0503
   91MOL   H15718337   1.939   4.856   7.628 -0.6163 -0.2600  0.1117
   91MOL   H15818338   1.932   5.024   7.672 -3.0219  0.6605  0.7539
   91MOL   H15918339   2.083   4.708   7.754 -0.7642  0.6499  0.3798
   91MOL   H16018340   2.307   4.858   7.911  0.2093 -0.8090  0.5877
   91MOL   H16118341   2.344   4.735   7.792  0.6517  0.1482  0.7634
   91MOL   C16218342   2.267   4.651   7.966  0.1376 -0.2856  0.0813
   91MOL   C16318343   2.406   4.607   8.015  0.9358  0.7122 -0.1982
   91MOL  Cl16418344   2.431   4.435   7.989 -0.1009 -0.2922  0.0186
   91MOL   C16518345   2.493   4.686   8.083 -0.3295  0.0443  0.0698
   91MOL   C16618346   2.633   4.652   8.131 -0.5254 -0.1495  0.3921
   91MOL   H16718347   2.211   4.676   8.055  1.0575  0.4071  0.4727
   91MOL   H16818348   2.224   4.559   7.925 -0.9292  0.1277  0.2742
   91MOL   H16918349   2.462   4.788   8.094 -1.7576 -0.4454  0.6959
   91MOL   H17018350   2.646   4.546   8.112 -1.4656 -0.2525  0.3317
   91MOL   H17118351   2.699   4.706   8.062 -1.6117  0.0041 -0.5422
   91MOL   C17218352   2.667   4.694   8.277 -0.1083 -0.1616 -0.0220
   91MOL   C17318353   2.660   4.843   8.305 -0.3000  0.1165  0.0340
   91MOL  Cl17418354   2.540   4.879   0.007 -0.0172 -0.3806 -0.2190
   91MOL   C17518355   2.749   4.929   8.262 -0.1567 -0.7119  0.3298
   91MOL   C17618356   2.752   5.072   8.305 -0.2956  0.2608 -0.0147
   91MOL   H17718357   2.766   4.674   8.318 -0.3119  1.8891  1.5539
   91MOL   H17818358   2.593   4.647   8.342 -1.3193  1.2424 -0.3641
   91MOL   H17918359   2.828   4.898   8.195  1.7392  1.1974  1.6259
   91MOL   H18018360   2.813   5.066   8.396 -0.4264  0.2559  0.0727
   91MOL   H18118361   2.654   5.108   8.334 -0.2350 -0.6504  1.3610
   91MOL   C18218362   2.811   5.160   8.190  0.1935 -0.3788  1.0793
   91MOL   C18318363   2.833   5.310   8.226  0.0275  0.0774  0.1600
   91MOL  Cl18418364   2.963   5.341   8.338 -0.1552 -0.2106  0.0289
   91MOL   C18518365   2.761   5.415   8.176 -0.4927  0.0481 -0.3422
   91MOL   C18618366   2.785   5.561   8.198 -0.2122  0.1685  0.1683
   91MOL   H18718367   2.911   5.125   8.165 -0.2887 -0.2833 -1.0549
   91MOL   H18818368   2.760   5.142   8.095  0.6547  1.6843  0.4325
   91MOL   H18918369   2.682   5.387   8.108 -0.8763  0.4187 -0.0488
   91MOL   H19018370   2.696   5.614   8.232  0.7520  0.0165  3.1029
   91MOL   H19118371   2.860   5.584   8.274  0.9953  1.9183 -1.5327
   91MOL   C19218372   2.842   5.618   8.063 -0.1674  0.5295  0.1911
   91MOL   C19318373   2.785   5.747   8.021 -0.4981  0.2010 -1.0418
   91MOL  Cl19418374   2.684   5.741   7.883  0.2779  0.1047 -0.0960
   91MOL   C19518375   2.820   5.868   8.070  0.3678  0.0738  0.3641
   91MOL   C19618376   2.905   5.899   8.186 -0.8789 -0.1304 -0.3204
   91MOL   H19718377   2.831   5.543   7.984  0.2887  0.8547 -0.1779
   91MOL   H19818378   2.950   5.612   8.069 -0.0100 -0.1605 -2.5859
   91MOL   H19918379   2.767   5.949   8.021 -2.2184 -1.3832  0.6747
   91MOL   H20018380   2.975   5.982   8.172  1.3607 -1.7773  0.8108
   91MOL   H20118381   2.963   5.810   8.208 -1.2816  0.0021  1.2921
   91MOL   H20218382   2.844   5.925   8.272 -0.6701  1.2922 -0.5833
   92MOL     C118383   4.243   4.276   7.365  0.3088  0.5034 -0.6119
   92MOL     C218384   4.130   4.374   7.383 -0.3506 -0.3874 -0.1555
   92MOL    Cl318385   4.186   4.524   7.456  0.0467 -0.0764  0.3268
   92MOL     C418386   4.002   4.355   7.356 -0.4703 -0.5115  0.0595
   92MOL     C518387   3.952   4.237   7.272  0.5518  0.4858  0.2479
   92MOL     H618388   4.272   4.265   7.260 -1.1137  2.3394 -1.2129
   92MOL     H718389   4.217   4.178   7.407  3.2733  0.1278  0.4728
   92MOL     H818390   3.936   4.436   7.381 -0.3616  0.2527 -2.0554
   92MOL     H918391   3.890   4.273   7.190  0.3187  1.7614  0.9767
   92MOL    H1018392   4.040   4.182   7.240 -0.2846 -0.9757  0.3919
   92MOL    H1118393   4.331   4.313   7.418 -0.2205  0.5168  0.2618
   92MOL    C1218394   3.870   4.142   7.350 -0.1276 -0.3514 -0.7494
   92MOL    C1318395   3.812   4.020   7.280 -0.4224  1.0265 -0.5166
   92MOL   Cl1418396   3.881   3.873   7.345  0.2504  0.1618  0.1122
   92MOL    C1518397   3.718   4.014   7.185 -0.2174 -0.1005  0.0346
   92MOL    C1618398   3.645   4.131   7.109  0.0149  0.3990  0.0327
   92MOL    H1718399   3.923   4.111   7.440 -2.4222 -0.5782  0.5527
   92MOL    H1818400   3.783   4.200   7.380  1.7431  1.5889  1.1240
   92MOL    H1918401   3.685   3.916   7.153 -0.3355 -0.1051  0.1725
   92MOL    H2018402   3.537   4.117   7.116  0.0856 -1.1522 -1.5768
   92MOL    H2118403   3.665   4.228   7.156  0.6678 -0.4636  1.5619
   92MOL    C2218404   3.690   4.141   6.963  0.4224 -0.3127 -0.2129
   92MOL    C2318405   3.623   4.250   6.880 -0.0502 -0.5451 -0.4726
   92MOL   Cl2418406   3.452   4.246   6.889 -0.3033  0.0316 -0.3363
   92MOL    C2518407   3.682   4.339   6.798 -0.0572 -0.3763  0.0374
   92MOL    C2618408   3.604   4.440   6.714 -0.2422 -0.3333  0.2332
   92MOL    H2718409   3.798   4.152   6.953  0.6654 -3.3449 -1.6685
   92MOL    H2818410   3.671   4.061   6.891  0.5903 -0.5283 -0.0186
   92MOL    H2918411   3.790   4.338   6.788 -0.1391 -4.3379 -1.1952
   92MOL    H3018412   3.505   4.453   6.758  0.6484  1.4655  1.8054
   92MOL    H3118413   3.672   4.523   6.735  0.3121 -0.9470  0.9375
   92MOL    C3218414   3.584   4.399   6.572 -0.3266  0.2756 -0.0668
   92MOL    C3318415   3.581   4.515   6.471  0.0792  0.3074  0.4664
   92MOL   Cl3418416   3.611   4.461   6.304  0.0217  0.1181  0.0646
   92MOL    C3518417   3.545   4.636   6.502 -0.1429 -0.2274 -0.6264
   92MOL    C3618418   3.543   4.744   6.409  0.0481  0.0913 -0.1746
   92MOL    H3718419   3.664   4.330   6.547 -0.5898 -0.4121  0.9514
   92MOL    H3818420   3.491   4.343   6.561 -0.7289  0.4695  2.2143
   92MOL    H3918421   3.525   4.661   6.606  0.7046  1.7708 -0.9225
   92MOL    H4018422   3.587   4.829   6.461  1.6642  0.7675 -2.5795
   92MOL    H4118423   3.591   4.727   6.313 -0.6186 -0.9043 -0.3396
   92MOL    C4218424   3.398   4.790   6.379 -0.1938  0.4856 -0.2892
   92MOL    C4318425   3.402   4.910   6.274 -0.6038 -0.4541  0.5018
   92MOL   Cl4418426   3.368   4.850   6.115  0.0341  0.3023 -0.1616
   92MOL    C4518427   3.429   5.039   6.295 -0.2902 -0.2622 -0.3089
   92MOL    C4618428   3.465   5.104   6.429  1.2739  0.3773 -0.3090
   92MOL    H4718429   3.343   4.703   6.343 -0.9171  0.0197  1.8925
   92MOL    H4818430   3.353   4.819   6.474 -0.2424  0.1929 -0.2232
   92MOL    H4918431   3.429   5.112   6.215 -0.6809  0.0691 -0.0105
   92MOL    H5018432   3.389   5.072   6.501 -0.5591 -0.6633 -2.6145
   92MOL    H5118433   3.559   5.067   6.470  0.3375 -1.3513  0.3197
   92MOL    C5218434   3.465   5.255   6.437 -0.0047  0.8852 -0.3106
   92MOL    C5318435   3.330   5.314   6.397 -1.5354 -0.9584 -0.7236
   92MOL   Cl5418436   3.341   5.416   6.260  0.0913 -0.3295 -0.0461
   92MOL    C5518437   3.219   5.309   6.477 -0.0797 -0.1363  0.6461
   92MOL    C5618438   3.082   5.373   6.452 -0.2222 -1.0408 -0.7738
   92MOL    H5718439   3.491   5.295   6.535 -0.4793  1.1467 -0.2904
   92MOL    H5818440   3.543   5.288   6.369  0.6053 -0.7356 -0.4151
   92MOL    H5918441   3.205   5.252   6.567 -1.9791  0.3460  0.6775
   92MOL    H6018442   3.084   5.426   6.357  2.5294 -0.1246 -0.2546
   92MOL    H6118443   2.994   5.309   6.446  0.4754 -2.0745 -0.3265
   92MOL    C6218444   3.053   5.475   6.560 -0.5396  0.0666  0.2895
   92MOL    C6318445   2.933   5.576   6.524 -0.3028  0.2756 -0.8204
   92MOL   Cl6418446   2.821   5.583   6.658  0.0021  0.2850  0.4031
   92MOL    C6518447   2.927   5.658   6.416 -0.2409  0.4783 -0.2450
   92MOL    C6618448   2.826   5.770   6.393 -0.1786  0.0550 -1.1519
   92MOL    H6718449   3.047   5.434   6.661  1.0316 -0.9744 -0.0204
   92MOL    H6818450   3.137   5.544   6.570 -1.1701  1.4097 -2.8312
   92MOL    H6918451   3.000   5.643   6.338 -0.5558  0.8638 -0.6197
   92MOL    H7018452   2.864   5.869   6.367 -1.4698  0.9227  0.1627
   92MOL    H7118453   2.773   5.778   6.488  2.1554 -0.9892  0.2995
   92MOL    C7218454   2.729   5.731   6.281 -0.1639 -0.1053 -0.0620
   92MOL    C7318455   2.602   5.810   6.278  0.0997  0.6156 -0.1452
   92MOL   Cl7418456   2.558   5.871   6.123 -0.1374 -0.1129  0.2712
   92MOL    C7518457   2.518   5.825   6.384 -0.0483 -0.5599  0.8099
   92MOL    C7618458   2.387   5.905   6.382  0.6194  0.4881  0.6264
   92MOL    H7718459   2.694   5.631   6.308  0.6629 -0.8681 -1.7419
   92MOL    H7818460   2.777   5.719   6.184 -2.6519 -0.2217 -1.2916
   92MOL    H7918461   2.541   5.773   6.476  1.0298 -1.2315  0.1802
   92MOL    H8018462   2.310   5.828   6.386 -1.4436  2.5879  3.0682
   92MOL    H8118463   2.382   5.964   6.291  1.9694 -0.0939  0.1700
   92MOL    C8218464   2.365   5.998   6.503 -0.3791  0.3543  0.4988
   92MOL    C8318465   2.273   5.933   6.602 -0.5129 -0.2544  0.7864
   92MOL   Cl8418466   2.331   5.772   6.637 -0.1127  0.0361  0.0815
   92MOL    C8518467   2.156   5.982   6.650 -0.3345 -0.2701  0.5937
   92MOL    C8618468   2.068   5.911   6.747  0.3595 -0.5320  0.0505
   92MOL    H8718469   2.322   6.089   6.462 -1.2558  0.1434  0.9585
   92MOL    H8818470   2.464   6.027   6.538 -0.0009  2.0208 -1.7728
   92MOL    H8918471   2.139   6.086   6.625 -1.4507 -0.9345 -1.5218
   92MOL    H9018472   1.969   5.945   6.716  1.4380  0.8523 -1.9504
   92MOL    H9118473   2.087   5.808   6.717  1.2797 -1.1969  2.7293
   92MOL    C9218474   2.109   5.925   6.894 -0.4348 -0.1982 -0.2656
   92MOL    C9318475   2.026   5.844   6.992  0.3690 -0.3887 -0.2204
   92MOL   Cl9418476   1.864   5.899   6.985  0.2309 -0.5668 -0.6343
   92MOL    C9518477   2.067   5.734   7.059  0.4058 -0.4374 -0.6446
   92MOL    C9618478   2.204   5.688   7.073  0.5823  0.4484  0.1223
   92MOL    H9718479   2.098   6.031   6.913  0.2139 -0.0483 -0.7306
   92MOL    H9818480   2.216   5.908   6.903 -0.6936 -1.3375  0.8444
   92MOL    H9918481   1.989   5.684   7.114  0.8353 -0.2874  0.1003
   92MOL   H10018482   2.284   5.761   7.065 -0.3859  1.4374 -0.5619
   92MOL   H10118483   2.210   5.645   7.173 -0.5986 -0.2704 -0.1122
   92MOL   C10218484   2.234   5.575   6.969  0.2825 -0.4705 -0.3991
   92MOL   C10318485   2.368   5.500   7.000  0.0649  0.0370 -0.1724
   92MOL  Cl10418486   2.355   5.386   7.132 -0.2641 -0.3470 -0.2974
   92MOL   C10518487   2.485   5.522   6.942  0.2224  0.4238  0.5319
   92MOL   C10618488   2.617   5.459   6.975  0.0555 -0.1476  0.2513
   92MOL   H10718489   2.153   5.502   6.972 -0.8985  0.6164 -3.6504
   92MOL   H10818490   2.243   5.618   6.870  1.7871 -1.1479 -0.5682
   92MOL   H10918491   2.482   5.597   6.864 -6.6324 -0.9508 -0.8273
   92MOL   H11018492   2.698   5.532   6.968 -0.0854  0.1515  1.5700
   92MOL   H11118493   2.613   5.431   7.080  1.5728  0.7521  0.5801
   92MOL   C11218494   2.643   5.329   6.898  0.6700  0.7982 -0.2825
   92MOL   C11318495   2.767   5.248   6.944 -0.4998 -0.3834  0.5214
   92MOL  Cl11418496   2.898   5.279   6.830  0.1373 -0.4180  0.0230
   92MOL   C11518497   2.775   5.166   7.054  0.1269  0.2479  0.1107
   92MOL   C11618498   2.668   5.128   7.144  0.0532  0.0199 -0.4532
   92MOL   H11718499   2.564   5.256   6.881 -0.3312  1.8850 -0.3651
   92MOL   H11818500   2.673   5.379   6.806 -2.0697  2.2403 -0.4394
   92MOL   H11918501   2.867   5.119   7.085 -0.6329 -1.2556  0.1451
   92MOL   H12018502   2.649   5.021   7.137 -1.6555  0.2057  0.7848
   92MOL   H12118503   2.571   5.160   7.104  0.2065  1.6021  0.3782
   92MOL   C12218504   2.689   5.171   7.293  0.4001  0.0708  0.0431
   92MOL   C12318505   2.801   5.088   7.364  0.4141 -0.2366  0.4966
   92MOL  Cl12418506   2.938   5.181   7.407  0.0538 -0.1026  0.1337
   92MOL   C12518507   2.796   4.956   7.401  0.1412 -0.8975  0.8207
   92MOL   C12618508   2.674   4.869   7.379  0.5169  0.1822  0.0446
   92MOL   H12718509   2.705   5.278   7.293 -0.7329  0.2903  2.9207
   92MOL   H12818510   2.589   5.162   7.337  1.0793 -0.1241  1.5971
   92MOL   H12918511   2.881   4.903   7.442 -0.2204 -0.8806  1.5890
   92MOL   H13018512   2.626   4.834   7.470 -0.0402 -0.7571 -0.6059
   92MOL   H13118513   2.594   4.908   7.317  0.5942  0.4502  0.1149
   92MOL   C13218514   2.727   4.746   7.292  0.1220  0.2685 -0.1896
   92MOL   C13318515   2.623   4.634   7.266 -0.1735 -0.5760  0.5710
   92MOL  Cl13418516   2.650   4.512   7.377 -0.2264  0.3094 -0.1856
   92MOL   C13518517   2.537   4.625   7.167 -0.4119  0.5042  0.2956
   92MOL   C13618518   2.510   4.734   7.061  0.6023 -0.2592 -0.0868
   92MOL   H13718519   2.753   4.778   7.191 -0.1838  1.3265  0.0690
   92MOL   H13818520   2.812   4.699   7.342 -0.0095  0.4395  0.1960
   92MOL   H13918521   2.484   4.531   7.164  1.3604 -0.5565  1.3519
   92MOL   H14018522   2.407   4.722   7.029 -0.1392  2.8980  0.9831
   92MOL   H14118523   2.512   4.831   7.109 -0.6256 -0.2283 -0.0967
   92MOL   C14218524   2.595   4.715   6.939 -0.0127 -0.6903 -0.4891
   92MOL   C14318525   2.566   4.794   6.816 -0.3026  0.5531 -0.7652
   92MOL  Cl14418526   2.537   4.960   6.856  0.0258  0.0952 -0.1161
   92MOL   C14518527   2.547   4.744   6.693  0.2196  0.2220  0.6142
   92MOL   C14618528   2.496   4.824   6.568 -0.0307  0.1062  0.0621
   92MOL   H14718529   2.593   4.610   6.910 -0.9206 -0.3574 -1.6679
   92MOL   H14818530   2.698   4.730   6.973 -0.2274  1.3172 -0.6613
   92MOL   H14918531   2.570   4.638   6.687  0.5620  0.2118  1.9293
   92MOL   H15018532   2.395   4.857   6.592 -1.3638 -2.5357 -1.7091
   92MOL   H15118533   2.561   4.912   6.571  4.2112 -2.9101  0.6402
   92MOL   C15218534   2.514   4.741   6.438  0.1307  0.2616 -0.0891
   92MOL   C15318535   2.462   4.806   6.306 -0.4909  0.8965  0.2718
   92MOL  Cl15418536   2.290   4.791   6.286 -0.5318  0.1012 -0.0526
   92MOL   C15518537   2.546   4.859   6.220 -0.0819 -0.2814  1.4141
   92MOL   C15618538   2.505   4.909   6.082  0.0852  0.3751  0.0584
   92MOL   H15718539   2.607   4.689   6.416 -1.7599 -2.0071 -3.0946
   92MOL   H15818540   2.445   4.658   6.457 -0.6128  0.8818 -0.0469
   92MOL   H15918541   2.650   4.874   6.245  0.7309  1.2517 -2.5601
   92MOL   H16018542   2.434   4.831   6.054  0.7881  0.3210 -1.6411
   92MOL   H16118543   2.586   4.912   6.009  0.4996 -1.6776  0.4109
   92MOL   C16218544   2.421   5.038   6.076  0.5242 -0.7393  0.1124
   92MOL   C16318545   2.351   5.056   5.946  0.4680  0.0803 -0.2972
   92MOL  Cl16418546   2.205   4.958   5.943 -0.2182  0.2812  0.2527
   92MOL   C16518547   2.380   5.155   5.857 -0.3136 -0.4894  0.2614
   92MOL   C16618548   2.292   5.194   5.743  0.1332 -0.2926  0.0560
   92MOL   H16718549   2.345   5.049   6.153  0.1024 -0.4906 -0.3325
   92MOL   H16818550   2.491   5.119   6.096 -1.0508  1.6553 -3.5185
   92MOL   H16918551   2.462   5.224   5.868  0.4009 -0.4633 -4.3430
   92MOL   H17018552   2.340   5.168   5.649  3.3100 -1.1918  1.8385
   92MOL   H17118553   2.203   5.131   5.738 -2.1612  2.5429  2.7640
   92MOL   C17218554   2.241   5.343   5.748  0.6821  0.6790 -0.1975
   92MOL   C17318555   2.132   5.366   5.648  0.6409 -0.0362  0.7810
   92MOL  Cl17418556   2.187   5.448   5.507 -0.2566 -0.3762 -0.4452
   92MOL   C17518557   2.006   5.325   5.669  0.3480  0.3469  0.3021
   92MOL   C17618558   1.886   5.336   5.580 -0.0494 -0.1547  0.5566
   92MOL   H17718559   2.318   5.417   5.730  0.9227  0.4893  0.0586
   92MOL   H17818560   2.195   5.376   5.841  1.8205  1.4878  0.0783
   92MOL   H17918561   1.986   5.272   5.761 -0.2196 -1.2601 -0.7248
   92MOL   H18018562   1.838   5.239   5.592  0.7698 -0.5890  0.3920
   92MOL   H18118563   1.926   5.346   5.479 -0.0139 -0.2705  0.5595
   92MOL   C18218564   1.787   5.454   5.612 -0.0643  0.5208 -0.8936
   92MOL   C18318565   1.738   5.439   5.757  0.3654 -0.3332  0.2386
   92MOL  Cl18418566   1.613   5.314   5.763  0.3775 -0.2866 -0.0445
   92MOL   C18518567   1.778   5.511   5.860  0.1781 -1.0300 -1.0045
   92MOL   C18618568   1.744   5.472   6.002 -0.3861 -0.9957 -0.4001
   92MOL   H18718569   1.827   5.555   5.608 -1.0270  0.9276 -0.6001
   92MOL   H18818570   1.707   5.440   5.539 -0.7673 -3.5038  0.5319
   92MOL   H18918571   1.851   5.589   5.846 -0.7330 -0.1862 -1.1086
   92MOL   H19018572   1.718   5.367   6.008  2.1265 -1.6705 -0.8577
   92MOL   H19118573   1.831   5.464   6.066 -0.6703 -0.7421  0.0237
   92MOL   C19218574   1.632   5.559   6.065 -0.3018  0.2023 -0.3507
   92MOL   C19318575   1.506   5.564   5.980 -0.7320  0.4932  0.0934
   92MOL  Cl19418576   1.495   5.706   5.881  0.4141  0.2487 -0.3193
   92MOL   C19518577   1.401   5.478   5.993 -0.3801 -0.3420  0.3087
   92MOL   C19618578   1.399   5.352   6.079 -0.5034  0.1815  0.1695
   92MOL   H19718579   1.666   5.660   6.088 -1.0718  0.8422 -2.0087
   92MOL   H19818580   1.610   5.513   6.162  1.3889 -0.2414 -0.1547
   92MOL   H19918581   1.309   5.492   5.939  0.6696  1.7242 -1.0145
   92MOL   H20018582   1.336   5.359   6.167 -2.5233 -1.8470 -1.0435
   92MOL   H20118583   1.504   5.338   6.105 -0.4387  1.9099  0.8917
   92MOL   H20218584   1.380   5.267   6.013 -1.3924  1.7313 -1.5976
   93MOL     C118585   4.904   0.376   4.209 -0.3207 -0.6049  0.2379
   93MOL     C218586   4.892   0.510   4.148 -0.6899 -0.2868 -0.2043
   93MOL    Cl318587   4.867   0.630   4.268  0.2827  0.2797  0.1832
   93MOL     C418588   4.902   0.552   4.016  0.0460  0.0585  0.3648
   93MOL     C518589   4.922   0.459   3.903 -0.5983 -0.0700  0.4957
   93MOL     H618590   4.844   0.375   4.300 -0.2155  0.4293  0.3147
   93MOL     H718591   5.006   0.374   4.247 -0.3137 -1.2622  0.1892
   93MOL     H818592   4.900   0.660   4.007  2.1247 -0.0947 -2.5450
   93MOL     H918593   5.019   0.489   3.864 -0.3357  2.3075  2.8543
   93MOL    H1018594   4.937   0.354   3.929  2.0071  0.0444 -0.4005
   93MOL    H1118595   4.862   0.300   4.143 -0.8755  0.2105 -0.3525
   93MOL    C1218596   4.817   0.469   3.797 -0.5109  0.2695  0.5443
   93MOL    C1318597   4.827   0.377   3.679  0.3210 -0.1555  0.7983
   93MOL   Cl1418598   4.957   0.423   3.576 -0.0939  0.3121  0.2959
   93MOL    C1518599   4.756   0.266   3.647  0.7809  0.4234  0.0845
   93MOL    C1618600   4.661   0.201   3.751  0.3480  0.1211  0.4229
   93MOL    H1718601   4.719   0.470   3.844 -0.9052  0.1113 -0.2786
   93MOL    H1818602   4.822   0.567   3.749  1.8508  0.4271  0.9988
   93MOL    H1918603   4.775   0.220   3.551 -0.6220  0.7458 -0.3492
   93MOL    H2018604   4.614   0.273   3.817  0.7827 -0.1732  1.0534
   93MOL    H2118605   4.580   0.154   3.696  1.0659 -1.2205  0.4874
   93MOL    C2218606   4.730   0.092   3.835 -0.1813 -0.2977 -0.5445
   93MOL    C2318607   4.634   0.049   3.947  0.6334 -0.3824 -0.4191
   93MOL   Cl2418608   4.694   0.076   4.101  0.4767  0.2371 -0.1412
   93MOL    C2518609   4.506   0.002   3.937  0.2452 -0.4319  0.4758
   93MOL    C2618610   4.400   8.394   4.042  0.1736 -0.8872 -0.9050
   93MOL    H2718611   4.765   0.010   3.773  1.2207 -0.3099  0.2289
   93MOL    H2818612   4.816   0.144   3.878 -0.4946 -0.5290  0.3672
   93MOL    H2918613   4.467   8.408   3.838 -0.4541  2.6875  0.2236
   93MOL    H3018614   4.422   0.018   4.139  2.6571  1.0625 -2.3160
   93MOL    H3118615   4.308   0.019   4.009 -0.5041 -0.9221  0.8782
   93MOL    C3218616   4.377   8.243   4.049  0.4468 -0.3164 -0.3382
   93MOL    C3318617   4.255   8.178   4.107  0.1672 -0.4059  0.4082
   93MOL   Cl3418618   4.293   8.018   4.140 -0.0567  0.3829 -0.2064
   93MOL    C3518619   4.141   8.235   4.147  0.4949  0.3203  0.5517
   93MOL    C3618620   4.028   8.167   4.215  0.0244  0.0478  0.2138
   93MOL    H3718621   4.366   8.203   3.948 -1.6987 -0.5692 -0.0303
   93MOL    H3818622   4.464   8.196   4.095  1.2472 -0.0357 -1.5300
   93MOL    H3918623   4.129   8.341   4.133 -0.5605  0.1561  0.1526
   93MOL    H4018624   3.982   8.097   4.146 -0.8140  0.1486  0.6650
   93MOL    H4118625   4.066   8.102   4.294  0.1867  1.7968  1.6027
   93MOL    C4218626   3.923   8.259   4.268  1.4603 -0.4783 -0.5282
   93MOL    C4318627   3.809   8.193   4.349  0.4180  0.2879  0.7371
   93MOL   Cl4418628   3.828   8.223   4.515 -0.2034 -0.3702 -0.0892
   93MOL    C4518629   3.703   8.129   4.300 -0.5741 -0.4458 -0.0740
   93MOL    C4618630   3.659   8.096   4.158 -0.4511  0.1325 -0.1419
   93MOL    H4718631   3.979   8.337   4.319 -0.4299 -0.1774  1.1546
   93MOL    H4818632   3.874   8.296   4.178 -1.1502  0.3171  1.1723
   93MOL    H4918633   3.636   8.108   4.382 -1.2343  1.8243  0.0024
   93MOL    H5018634   3.568   8.145   4.123 -2.4646 -1.5502  2.5173
   93MOL    H5118635   3.731   8.125   4.082 -4.2735  1.7863 -3.3554
   93MOL    C5218636   3.629   7.949   4.144 -0.0986  0.4404  0.2728
   93MOL    C5318637   3.521   7.921   4.042  0.2677  0.2775 -0.0999
   93MOL   Cl5418638   3.366   7.919   4.119 -0.5607  0.1930 -0.1347
   93MOL    C5518639   3.549   7.905   3.910  0.4934  0.0863  0.4588
   93MOL    C5618640   3.445   7.862   3.798 -0.8540 -0.4796 -0.5893
   93MOL    H5718641   3.722   7.906   4.105  0.0222  0.9585 -0.0167
   93MOL    H5818642   3.613   7.895   4.238  0.3678 -0.0770  0.0600
   93MOL    H5918643   3.649   7.923   3.876  0.1827 -0.4380 -0.7678
   93MOL    H6018644   3.366   7.798   3.837 -3.0265  1.2735 -2.0217
   93MOL    H6118645   3.398   7.948   3.750 -0.8226  0.3083  0.7685
   93MOL    C6218646   3.515   7.789   3.678  0.9277 -0.4533  0.4015
   93MOL    C6318647   3.576   7.868   3.569 -0.0734  0.1328 -0.4218
   93MOL   Cl6418648   3.681   7.990   3.630  0.0011 -0.6456  0.0062
   93MOL    C6518649   3.549   7.846   3.435  0.2890 -0.0621 -0.3883
   93MOL    C6618650   3.608   7.927   3.320  0.3615 -0.0839  0.4233
   93MOL    H6718651   3.597   7.726   3.712  1.9512  0.3815 -0.4905
   93MOL    H6818652   3.442   7.716   3.642 -0.8923  1.7270 -0.4383
   93MOL    H6918653   3.478   7.767   3.412  1.6103 -0.8644 -1.8239
   93MOL    H7018654   3.684   7.994   3.360  0.1299  0.7896 -0.5889
   93MOL    H7118655   3.539   7.994   3.270  0.6972  1.0793  1.4985
   93MOL    C7218656   3.665   7.834   3.212 -0.5300  0.0293 -0.0859
   93MOL    C7318657   3.734   7.916   3.092  0.3491 -0.4554  0.4715
   93MOL   Cl7418658   3.779   7.809   2.966  0.4138 -0.6427 -0.1379
   93MOL    C7518659   3.742   8.050   3.082 -0.0292  0.4241  0.2221
   93MOL    C7618660   3.790   8.121   2.955  0.2429 -0.5223  0.0925
   93MOL    H7718661   3.590   7.773   3.162  0.1230 -1.2693  0.4930
   93MOL    H7818662   3.744   7.770   3.250 -2.2008 -0.8737  1.9570
   93MOL    H7918663   3.719   8.123   3.158 -0.7178  0.1998  0.2324
   93MOL    H8018664   3.703   8.177   2.920 -0.4008  0.3630  2.9795
   93MOL    H8118665   3.833   8.054   2.881  1.1252  0.8213 -0.6407
   93MOL    C8218666   3.894   8.221   2.993 -0.1618 -0.8055 -0.4941
   93MOL    C8318667   3.924   8.316   2.870  0.2280  0.4271 -0.1530
   93MOL   Cl8418668   4.057   8.261   2.772  0.0169 -0.0547  0.0723
   93MOL    C8518669   3.861   0.009   2.838 -0.4448 -0.0507  0.3221
   93MOL    C8618670   3.904   0.109   2.730 -0.0224  0.0508  0.5051
   93MOL    H8718671   3.986   8.185   3.039 -0.6952 -2.1454 -0.4732
   93MOL    H8818672   3.843   8.277   3.072 -0.8395 -2.8792  0.5568
   93MOL    H8918673   3.769   0.035   2.887 -1.2487 -1.2039 -0.5439
   93MOL    H9018674   3.952   0.191   2.783  0.0258 -1.0412  2.1758
   93MOL    H9118675   3.977   0.062   2.664  0.8208 -0.9305  2.1106
   93MOL    C9218676   3.782   0.169   2.647 -0.1976  1.1867 -0.2490
   93MOL    C9318677   3.839   0.213   2.516 -0.2050 -0.5141  0.0897
   93MOL   Cl9418678   3.780   0.097   2.398  0.1041  0.1984 -0.2050
   93MOL    C9518679   3.917   0.312   2.480 -0.5576  0.2253 -0.7411
   93MOL    C9618680   3.965   0.407   2.584 -0.3694 -0.3222 -0.4459
   93MOL    H9718681   3.733   0.251   2.700 -1.8134  0.5229 -0.6877
   93MOL    H9818682   3.711   0.086   2.645  2.8417 -1.5689  0.9383
   93MOL    H9918683   3.940   0.323   2.374  0.0509  0.1799 -0.6138
   93MOL   H10018684   3.932   0.507   2.556  0.3443 -0.5457 -2.1281
   93MOL   H10118685   3.928   0.384   2.684  1.3306  0.2316  0.3318
   93MOL   C10218686   4.121   0.412   2.584 -0.2367  0.7843  0.3589
   93MOL   C10318687   4.180   0.534   2.653  0.5201 -0.5632 -0.0606
   93MOL  Cl10418688   4.323   0.606   2.583  0.1444  0.0545  0.4779
   93MOL   C10518689   4.132   0.575   2.777  0.2276 -0.0059  0.6392
   93MOL   C10618690   4.193   0.686   2.869 -0.7276 -0.1172 -0.5068
   93MOL   H10718691   4.146   0.328   2.649 -0.1629  0.6017  0.0996
   93MOL   H10818692   4.160   0.397   2.483  2.6580 -0.9333  1.6526
   93MOL   H10918693   4.045   0.524   2.816 -0.0351 -0.9154 -1.0695
   93MOL   H11018694   4.217   0.647   2.968 -2.8490 -0.9175 -0.2912
   93MOL   H11118695   4.287   0.724   2.829 -0.9718  0.7702 -0.2509
   93MOL   C11218696   4.094   0.796   2.890  0.1560 -0.0822 -0.4780
   93MOL   C11318697   4.130   0.906   2.994  0.2338  0.1423  0.3677
   93MOL  Cl11418698   4.063   0.867   3.153  0.0692  0.0449  0.2967
   93MOL   C11518699   4.183   1.025   2.965  0.1494  0.7224 -0.7836
   93MOL   C11618700   4.241   1.070   2.834  0.6785 -0.3008  0.6759
   93MOL   H11718701   4.073   0.834   2.790  1.5850 -0.9822 -1.1264
   93MOL   H11818702   4.009   0.747   2.936  0.0894 -0.9307 -1.4962
   93MOL   H11918703   4.184   1.097   3.045  2.3783 -0.8667  0.6855
   93MOL   H12018704   4.198   1.168   2.812 -1.1007 -1.5267 -1.5750
   93MOL   H12118705   4.212   1.010   2.748 -1.8584 -0.9636  1.9393
   93MOL   C12218706   4.390   1.094   2.826 -0.5076 -0.2256  0.0579
   93MOL   C12318707   4.430   1.164   2.693 -0.0007  0.6183 -0.1108
   93MOL  Cl12418708   4.449   1.339   2.711 -0.1776 -0.5784  0.2004
   93MOL   C12518709   4.460   1.097   2.583  0.0860 -0.6231  0.8192
   93MOL   C12618710   4.462   0.950   2.553 -0.5227  0.0438  0.3502
   93MOL   H12718711   4.417   1.158   2.910 -1.0875 -1.6976  1.3904
   93MOL   H12818712   4.446   1.001   2.837 -0.7884 -0.4053 -0.0351
   93MOL   H12918713   4.493   1.155   2.498 -3.0720  0.6927  0.4000
   93MOL   H13018714   4.423   0.898   2.641 -0.3590  2.2090  1.7440
   93MOL   H13118715   4.402   0.920   2.467 -3.1382  1.1917  1.7017
   93MOL   C13218716   4.601   0.895   2.512 -0.1745  0.2714 -0.2675
   93MOL   C13318717   4.714   0.908   2.614  0.1897 -0.1643 -0.1933
   93MOL  Cl13418718   4.812   1.048   2.589 -0.4234  0.0037 -0.3223
   93MOL   C13518719   4.738   0.825   2.718  0.1805 -0.4419  0.0489
   93MOL   C13618720   4.657   0.703   2.770  0.4680 -1.0722 -0.2172
   93MOL   H13718721   4.587   0.787   2.507  2.0494 -0.0008 -0.9399
   93MOL   H13818722   4.624   0.941   2.417 -0.3331  2.4426  0.7182
   93MOL   H13918723   4.829   0.848   2.772  0.2085  2.3372 -1.0901
   93MOL   H14018724   4.610   0.726   2.866 -2.5312  0.0010 -1.8827
   93MOL   H14118725   4.569   0.695   2.706  0.2983 -2.2736  0.1404
   93MOL   C14218726   4.738   0.577   2.774 -0.3211 -0.2093 -0.1458
   93MOL   C14318727   4.648   0.458   2.802 -0.1067  0.5544  0.6375
   93MOL  Cl14418728   4.575   0.402   2.656 -0.1670  0.4976 -0.2302
   93MOL   C14518729   4.627   0.404   2.920  0.1963  0.0053 -0.4584
   93MOL   C14618730   4.530   0.291   2.945 -0.4578 -0.1971 -0.3552
   93MOL   H14718731   4.817   0.578   2.848 -2.0615  2.4641  1.7771
   93MOL   H14818732   4.786   0.563   2.677 -1.2490  2.3302 -1.0105
   93MOL   H14918733   4.670   0.436   3.015 -1.2094 -0.3757  0.3138
   93MOL   H15018734   4.469   0.272   2.857 -1.5173  0.4473  0.2246
   93MOL   H15118735   4.587   0.202   2.972 -2.1976 -1.7451 -1.6064
   93MOL   C15218736   4.435   0.322   3.058 -0.2783  1.3087 -0.0677
   93MOL   C15318737   4.349   0.193   3.093 -0.0747 -0.2632  0.5574
   93MOL  Cl15418738   4.202   0.184   2.998 -0.6058 -0.0984 -0.3523
   93MOL   C15518739   4.386   0.113   3.195  0.1426 -0.3026 -0.3770
   93MOL   C15618740   4.310   8.415   3.237 -0.0144 -0.7993  0.5841
   93MOL   H15718741   4.496   0.345   3.145  0.1539  1.1788 -0.3368
   93MOL   H15818742   4.369   0.406   3.032 -0.6043  0.9215 -0.4933
   93MOL   H15918743   4.473   0.139   3.254 -1.4880  1.3586  1.3815
   93MOL   H16018744   4.235   8.402   3.159 -0.5520  0.9202  0.8093
   93MOL   H16118745   4.268   0.014   3.336 -0.1155 -0.9403  0.5698
   93MOL   C16218746   4.392   8.275   3.245  0.1109  0.5246 -0.1522
   93MOL   C16318747   4.457   8.245   3.114  0.1972  0.8030 -0.6472
   93MOL  Cl16418748   4.629   8.251   3.120  0.1588  0.1684 -0.0060
   93MOL   C16518749   4.390   8.252   2.999 -0.7864 -0.5040  0.2521
   93MOL   C16618750   4.450   8.232   2.859  0.4887  0.2949  0.1149
   93MOL   H16718751   4.459   8.284   3.331  0.0034  0.6269 -0.0788
   93MOL   H16818752   4.330   8.191   3.274 -0.0896  0.8047  0.2382
   93MOL   H16918753   4.284   8.273   3.003 -0.9054 -0.9471 -0.4893
   93MOL   H17018754   4.401   8.301   2.790 -1.1498  0.6039  1.5437
   93MOL   H17118755   4.553   8.266   2.850  0.4371  0.2742 -0.6213
   93MOL   C17218756   4.437   8.093   2.803 -0.0069 -0.7500 -0.2807
   93MOL   C17318757   4.503   7.983   2.882 -1.1372  0.8143  0.5094
   93MOL  Cl17418758   4.677   7.978   2.866 -0.1345 -0.5362  0.0759
   93MOL   C17518759   4.431   7.903   2.959  0.1697  0.2505 -0.7319
   93MOL   C17618760   4.501   7.790   3.040  1.3110 -0.1446 -0.2934
   93MOL   H17718761   4.487   8.093   2.706  0.0546 -0.0065 -0.2531
   93MOL   H17818762   4.335   8.063   2.783 -0.7089  1.6649 -0.4824
   93MOL   H17918763   4.327   7.929   2.965  0.2541  0.3449  0.4425
   93MOL   H18018764   4.598   7.752   3.005  1.7938 -0.0878  0.9785
   93MOL   H18118765   4.449   7.696   3.023 -0.2897  0.6142  0.3862
   93MOL   C18218766   4.506   7.819   3.190 -0.7479  0.3192  0.2019
   93MOL   C18318767   4.614   7.745   3.268  0.0404  0.2279  0.6283
   93MOL  Cl18418768   4.537   7.622   3.358 -0.4747 -0.1020 -0.3250
   93MOL   C18518769   4.745   7.779   3.278  0.1638  0.4399  0.2067
   93MOL   C18618770   4.848   7.715   3.380 -0.1555 -0.4054 -0.0379
   93MOL   H18718771   4.524   7.926   3.200 -0.1630  0.3988 -1.5908
   93MOL   H18818772   4.414   7.792   3.242 -0.5075 -2.5535 -0.7895
   93MOL   H18918773   4.780   7.853   3.208 -0.5517  0.2686 -0.3380
   93MOL   H19018774   4.781   7.648   3.436 -1.3352  2.1206  1.6478
   93MOL   H19118775   4.918   7.647   3.332  0.0617 -1.0502  1.1679
   93MOL   C19218776   4.917   7.819   3.472  0.0460 -0.3789  0.2571
   93MOL   C19318777   4.999   7.762   3.588 -0.3109 -0.5123  0.4778
   93MOL  Cl19418778   4.899   7.727   3.722  0.2848 -0.2875 -0.3658
   93MOL   C19518779   5.134   7.755   3.599 -0.2403 -0.3358  0.5644
   93MOL   C19618780   5.239   7.798   3.501 -0.6132  0.4951 -0.1450
   93MOL   H19718781   4.850   7.886   3.525  0.7837  1.1128 -0.6744
   93MOL   H19818782   4.977   7.878   3.403 -0.4195  2.7091  2.4294
   93MOL   H19918783   5.179   7.726   3.693  3.0990 -0.8170 -1.0895
   93MOL   H20018784   5.194   7.787   3.402 -1.0931 -2.8318  0.4089
   93MOL   H20118785   5.323   7.729   3.506  1.0406  2.4395 -0.4627
   93MOL   H20218786   5.295   7.890   3.520  0.6820 -0.4089  0.4689
   94MOL     C118787   4.837   1.137   8.079  0.5195 -0.8292 -0.6703
   94MOL     C218788   4.826   1.068   8.215 -0.5549  0.4112 -0.6060
   94MOL    Cl318789   4.829   1.194   8.333  0.9729 -0.0669  0.1018
   94MOL     C418790   4.839   0.936   8.245 -0.1128  0.5689 -0.2388
   94MOL     C518791   4.859   0.826   8.140 -0.0960  0.6280 -0.0236
   94MOL     H618792   4.942   1.158   8.057  1.1791 -0.8445  2.2178
   94MOL     H718793   4.779   1.229   8.078  2.4661  0.4551  0.5205
   94MOL     H818794   4.833   0.905   8.348 -1.6622  0.1696 -0.4354
   94MOL     H918795   4.772   0.762   8.152  0.2051  0.2897  0.3569
   94MOL    H1018796   4.858   0.863   8.037  2.6735  0.6233 -0.1152
   94MOL    H1118797   4.798   1.081   7.994 -1.2508  0.4987 -0.7522
   94MOL    C1218798   4.982   0.736   8.171  0.3961 -0.3656  0.8629
   94MOL    C1318799   5.112   0.808   8.173 -0.8307 -0.7140  0.6265
   94MOL   Cl1418800   5.173   0.844   8.017 -0.0432 -0.2277 -0.5641
   94MOL    C1518801   5.180   0.852   8.280 -0.2906 -0.6207 -0.3872
   94MOL    C1618802   5.138   0.847   0.006  0.1300  0.5034 -0.1512
   94MOL    H1718803   4.972   0.682   8.264  0.3700 -1.3186  0.3064
   94MOL    H1818804   4.997   0.659   8.096  0.5872  0.1128  0.3993
   94MOL    H1918805   5.277   0.898   8.265  0.1894 -1.0551  1.2575
   94MOL    H2018806   5.039   0.802   0.013 -0.2798  1.7691  3.2443
   94MOL    H2118807   5.208   0.780   0.055 -0.3999 -1.8565 -2.4649
   94MOL    C2218808   5.136   0.982   0.071 -0.1051  0.1743 -0.1808
   94MOL    C2318809   5.104   0.960   0.222 -0.4304 -0.4154  1.0193
   94MOL   Cl2418810   4.944   0.888   0.245 -0.2859  0.0022  0.0955
   94MOL    C2518811   5.176   0.997   0.324  0.0993 -0.5306 -0.0873
   94MOL    C2618812   5.138   0.973   0.467 -0.3460  0.1004  0.3516
   94MOL    H2718813   5.233   1.030   0.072 -0.8787  1.7739  1.7062
   94MOL    H2818814   5.062   1.047   0.025  0.7272  0.6210 -0.8942
   94MOL    H2918815   5.271   1.047   0.317  0.3504 -0.9454  0.3186
   94MOL    H3018816   5.040   1.015   0.489 -0.0368 -0.3537  2.7701
   94MOL    H3118817   5.120   0.866   0.470 -1.1975  0.1954 -0.9851
   94MOL    C3218818   5.246   1.017   0.562  0.2460  0.4245 -0.0557
   94MOL    C3318819   5.219   0.984   0.708 -0.1582  0.1668  0.1692
   94MOL   Cl3418820   5.177   0.816   0.726 -0.1459  0.2711 -0.6515
   94MOL    C3518821   5.216   1.079   0.807  0.1632  0.2444  0.5975
   94MOL    C3618822   5.184   1.061   0.953 -0.8283 -0.7867 -0.6223
   94MOL    H3718823   5.338   0.960   0.544  0.9065  1.7731 -1.0636
   94MOL    H3818824   5.286   1.119   0.556 -1.1298  1.0132  0.6162
   94MOL    H3918825   5.235   1.180   0.774 -3.4044  0.6434 -0.4499
   94MOL    H4018826   5.122   1.145   0.983  1.8776  1.7312 -1.8573
   94MOL    H4118827   5.140   0.962   0.962 -1.0997 -0.8355 -2.3056
   94MOL    C4218828   5.313   1.071   1.051 -0.1676  0.1350  0.4473
   94MOL    C4318829   5.277   1.034   1.194  0.1037 -1.1399  0.2455
   94MOL   Cl4418830   5.175   1.149   1.266  0.1996  0.1100  0.3426
   94MOL    C4518831   5.308   0.919   1.259  0.1265  0.2825 -0.6653
   94MOL    C4618832   5.405   0.804   1.210 -0.2701 -0.4060  1.0250
   94MOL    H4718833   5.392   1.006   1.015 -0.9919 -0.8896  0.4827
   94MOL    H4818834   5.362   1.169   1.050 -3.1050  1.6680 -0.1899
   94MOL    H4918835   5.269   0.913   1.359  1.7552  0.3170 -0.0086
   94MOL    H5018836   5.345   0.729   1.158 -1.5247  0.6870  0.8863
   94MOL    H5118837   5.480   0.836   1.138 -3.0322  0.0953 -1.7315
   94MOL    C5218838   5.473   0.733   1.320  0.1751 -0.0590 -0.0187
   94MOL    C5318839   5.528   0.603   1.261 -0.6727  0.1762 -0.2758
   94MOL   Cl5418840   5.453   0.461   1.317 -0.2712 -0.0053  0.1284
   94MOL    C5518841   5.645   0.601   1.191 -0.1325 -0.0037 -0.4887
   94MOL    C5618842   5.708   0.470   1.144 -0.2199 -0.4039 -0.8031
   94MOL    H5718843   5.560   0.792   1.351  0.1983 -0.1659  0.1236
   94MOL    H5818844   5.405   0.712   1.403  0.7606  2.0475  1.0331
   94MOL    H5918845   5.692   0.694   1.164  1.6678 -1.1665 -1.4750
   94MOL    H6018846   5.676   0.391   1.212  0.2009 -1.0811 -1.3809
   94MOL    H6118847   5.654   0.449   1.052  0.4245 -0.3667 -1.1956
   94MOL    C6218848   5.861   0.469   1.127  1.0058  0.5059 -0.7043
   94MOL    C6318849   5.913   0.380   1.014 -0.0441  0.6401  0.1683
   94MOL   Cl6418850   5.948   0.466   0.874  0.0591  0.0097 -0.1434
   94MOL    C6518851   5.940   0.249   1.032  0.3354 -0.3801 -0.2885
   94MOL    C6618852   5.985   0.152   0.922 -0.3234 -0.3503  0.3780
   94MOL    H6718853   5.888   0.572   1.106  0.8237  0.9114  0.9780
   94MOL    H6818854   5.906   0.431   1.218 -0.0409 -2.2412 -1.2791
   94MOL    H6918855   5.929   0.200   1.127  0.8584 -0.1513 -0.1105
   94MOL    H7018856   6.085   0.122   0.951 -0.5299 -2.9673 -1.4839
   94MOL    H7118857   5.982   0.202   0.825 -0.4840 -0.7455  0.1791
   94MOL    C7218858   5.892   0.029   0.917  0.5120  0.0377 -0.2940
   94MOL    C7318859   5.931   8.349   0.807  0.6205 -0.8191  0.7905
   94MOL   Cl7418860   6.057   8.247   0.871 -0.1019 -0.2848 -0.1911
   94MOL    C7518861   5.873   8.330   0.681  0.4943  0.0343  0.4309
   94MOL    C7618862   5.903   8.212   0.585  0.0086  0.0504 -0.0902
   94MOL    H7718863   5.790   0.060   0.894  0.0814 -0.9232  0.2745
   94MOL    H7818864   5.899   8.393   1.010  0.4713  1.0415  0.3218
   94MOL    H7918865   5.797   8.398   0.646  0.2262  0.1902  1.2991
   94MOL    H8018866   5.950   8.129   0.637 -0.6023  0.0275  0.4238
   94MOL    H8118867   5.976   8.246   0.511 -2.2196 -1.1996 -2.9352
   94MOL    C8218868   5.783   8.154   0.519  0.1589 -0.4071  0.5000
   94MOL    C8318869   5.811   8.065   0.399 -0.0423 -1.4998 -0.1462
   94MOL   Cl8418870   5.867   7.912   0.445 -0.3400  0.7333  0.2936
   94MOL    C8518871   5.789   8.098   0.269 -0.2407  0.1320  0.0844
   94MOL    C8618872   5.802   8.008   0.149 -1.2224  0.2683  0.3454
   94MOL    H8718873   5.728   8.239   0.481 -2.0311 -2.8236 -1.9990
   94MOL    H8818874   5.720   8.106   0.594  0.2477 -2.9959 -0.9868
   94MOL    H8918875   5.753   8.199   0.251  1.3870  0.5202 -1.0381
   94MOL    H9018876   5.871   7.926   0.173 -0.7375  0.2850 -0.9275
   94MOL    H9118877   5.703   7.974   0.120 -1.4291  1.3752 -0.2915
   94MOL    C9218878   5.867   8.071   0.030 -0.1337 -0.0596 -0.4001
   94MOL    C9318879   5.849   7.992   8.319 -0.5041  0.2254 -0.3085
   94MOL   Cl9418880   5.883   7.826   8.325 -0.2783 -0.6099 -0.0428
   94MOL    C9518881   5.823   8.039   8.197  0.0340  0.2873 -0.3783
   94MOL    C9618882   5.790   8.178   8.167 -0.1915  0.1467 -0.1931
   94MOL    H9718883   5.972   8.088   0.051 -0.0792 -1.8496  0.8913
   94MOL    H9818884   5.815   8.166   0.016  0.3647  0.5404  1.7524
   94MOL    H9918885   5.824   7.966   8.117 -1.6411 -1.7859  1.3873
   94MOL   H10018886   5.684   8.189   8.191 -1.1913 -2.0883 -3.2216
   94MOL   H10118887   5.836   8.248   8.236 -3.0527  1.2478  0.6652
   94MOL   C10218888   5.817   8.234   8.028 -0.4190  0.2360 -0.4063
   94MOL   C10318889   5.752   8.371   8.014 -0.0591 -0.0500 -0.8246
   94MOL  Cl10418890   5.759   0.011   7.853 -0.0134  0.3002 -0.1921
   94MOL   C10518891   5.703   0.025   8.116 -0.0485 -0.0218 -0.0438
   94MOL   C10618892   5.639   0.161   8.087 -0.1033 -0.0785  0.4683
   94MOL   H10718893   5.920   8.262   8.006 -0.1850 -0.6458 -0.4618
   94MOL   H10818894   5.782   8.162   7.954 -0.7715  2.4675 -2.4396
   94MOL   H10918895   5.690   8.411   8.218 -1.4127 -0.6020 -0.4017
   94MOL   H11018896   5.663   0.229   8.168  0.7269 -0.4527  0.5376
   94MOL   H11118897   5.689   0.211   8.003  2.2789 -0.6360  1.5046
   94MOL   C11218898   5.484   0.158   8.081 -0.1630 -0.0395  0.2546
   94MOL   C11318899   5.430   0.089   7.951 -0.1453  0.5016 -0.3572
   94MOL  Cl11418900   5.425   0.198   7.816 -0.1311 -0.0503 -0.2601
   94MOL   C11518901   5.383   8.381   7.940  0.5952 -0.4238  0.0298
   94MOL   C11618902   5.372   8.265   8.048  0.7309 -0.1617  0.6579
   94MOL   H11718903   5.446   0.109   8.170 -2.3675  0.2097 -0.4976
   94MOL   H11818904   5.452   0.262   8.091 -0.3239 -0.1751  1.1681
   94MOL   H11918905   5.349   8.350   7.842  0.6702 -0.0999 -0.1002
   94MOL   H12018906   5.266   8.268   8.074  0.3249 -0.7242 -0.8444
   94MOL   H12118907   5.431   8.313   8.126  0.3595 -0.3031  1.0302
   94MOL   C12218908   5.428   8.130   8.007  0.0883  0.2019 -0.2543
   94MOL   C12318909   5.397   8.090   7.860  0.0434 -0.6293 -0.4668
   94MOL  Cl12418910   5.534   8.132   7.754 -0.0798 -0.3787 -0.1689
   94MOL   C12518911   5.295   8.014   7.822 -0.2940  0.4395 -1.0579
   94MOL   C12618912   5.180   7.968   7.903  0.6003 -0.5345  0.2833
   94MOL   H12718913   5.536   8.134   8.014  0.1331  2.2640 -1.7949
   94MOL   H12818914   5.390   8.061   8.083  2.3571 -2.9329 -1.8605
   94MOL   H12918915   5.298   7.989   7.717 -2.6132 -0.1519 -1.0079
   94MOL   H13018916   5.173   8.033   7.991 -3.9259  0.9270 -1.0347
   94MOL   H13118917   5.091   8.001   7.849  0.0070 -1.3840  0.7345
   94MOL   C13218918   5.174   7.821   7.924 -0.5199  0.9288  0.1977
   94MOL   C13318919   5.035   7.784   7.983  0.2082  0.2186 -0.5756
   94MOL  Cl13418920   5.011   7.865   8.135 -0.3355  0.3216 -0.1951
   94MOL   C13518921   4.937   7.713   7.924  0.0857  0.8276 -0.3520
   94MOL   C13618922   4.942   7.637   7.796 -0.4386 -0.0475  0.8082
   94MOL   H13718923   5.188   7.786   7.821 -2.9536  3.9023 -1.2255
   94MOL   H13818924   5.254   7.783   7.987 -2.1598 -1.0578  1.1197
   94MOL   H13918925   4.851   7.700   7.987  1.3553  1.9021  1.6580
   94MOL   H14018926   4.989   7.704   7.723 -1.1922 -1.1133 -0.6900
   94MOL   H14118927   4.990   7.539   7.785  0.4155  0.4154  0.2882
   94MOL   C14218928   4.808   7.626   7.719  0.1781  0.3197  0.0771
   94MOL   C14318929   4.814   7.533   7.599 -0.0703  0.1773 -0.1859
   94MOL  Cl14418930   4.743   7.385   7.636  0.2111  0.2261 -0.0900
   94MOL   C14518931   4.856   7.563   7.473  0.5427 -0.6030 -0.0465
   94MOL   C14618932   4.838   7.483   7.348  0.2245 -0.0076 -0.3050
   94MOL   H14718933   4.780   7.722   7.676  1.3153  1.4233  1.7180
   94MOL   H14818934   4.731   7.608   7.794  0.7134 -0.1138  0.5271
   94MOL   H14918935   4.898   7.662   7.460 -1.1751  0.1758  0.2144
   94MOL   H15018936   4.893   7.391   7.369 -0.4537 -0.3967 -0.2089
   94MOL   H15118937   4.734   7.452   7.334  0.6963 -2.1738  0.7227
   94MOL   C15218938   4.896   7.559   7.231 -0.2571 -0.0783 -0.0661
   94MOL   C15318939   4.905   7.476   7.101  0.4800  0.5391 -0.4745
   94MOL  Cl15418940   5.049   7.390   7.083  0.2326 -0.0331 -0.2920
   94MOL   C15518941   4.802   7.452   7.015  1.2733  0.4535 -0.4573
   94MOL   C15618942   4.800   7.363   6.893 -1.0085 -0.7258 -0.4600
   94MOL   H15718943   4.841   7.652   7.216  0.4615 -0.0348 -2.5674
   94MOL   H15818944   4.999   7.583   7.257 -0.7289  0.7204  1.0768
   94MOL   H15918945   4.704   7.493   7.036  0.8500 -0.3301 -0.8744
   94MOL   H16018946   4.893   7.379   6.840 -1.2950 -0.3571 -0.8572
   94MOL   H16118947   4.732   7.392   6.812  0.9318 -0.4922 -2.0436
   94MOL   C16218948   4.782   7.218   6.930 -1.1576  0.6640 -0.0578
   94MOL   C16318949   4.787   7.128   6.810 -0.4307  0.0925 -0.4165
   94MOL  Cl16418950   4.937   7.050   6.798 -0.1353 -0.0545  0.0413
   94MOL   C16518951   4.682   7.109   6.732  0.4600 -0.0803 -0.0220
   94MOL   C16618952   4.663   7.017   6.612 -0.4756 -0.8501  0.6217
   94MOL   H16718953   4.861   7.189   6.999 -1.7580  1.9750  1.2115
   94MOL   H16818954   4.689   7.198   6.983 -0.6566 -0.2086  0.4969
   94MOL   H16918955   4.595   7.166   6.761  0.1222 -0.3646 -0.4868
   94MOL   H17018956   4.666   7.088   6.529  0.2390 -0.8998  0.5960
   94MOL   H17118957   4.740   6.940   6.601  0.5407  0.1812  0.4052
   94MOL   C17218958   4.531   6.932   6.615 -0.4782 -0.1010  0.3237
   94MOL   C17318959   4.489   6.873   6.479 -0.6704 -0.6940  0.3893
   94MOL  Cl17418960   4.345   6.945   6.436 -0.0411 -0.4949  0.0047
   94MOL   C17518961   4.548   6.777   6.412  0.1994 -0.0741  0.4122
   94MOL   C17618962   4.488   6.727   6.279  0.1905  0.2133 -0.2905
   94MOL   H17718963   4.447   6.984   6.662 -0.7555 -1.0169  0.8567
   94MOL   H17818964   4.541   6.845   6.680 -0.7398  0.2687  0.8671
   94MOL   H17918965   4.639   6.722   6.434 -0.1866 -0.7528  0.3211
   94MOL   H18018966   4.436   6.808   6.228 -0.2918  0.5292  0.6879
   94MOL   H18118967   4.424   6.639   6.292 -1.7745  2.0069  2.8590
   94MOL   C18218968   4.609   6.671   6.188 -0.9912 -0.5238 -0.3040
   94MOL   C18318969   4.569   6.598   6.065 -0.2450  0.2547  0.6592
   94MOL  Cl18418970   4.553   6.425   6.087 -0.3567  0.3313  0.1299
   94MOL   C18518971   4.547   6.657   5.944 -0.4564  0.8858 -0.3237
   94MOL   C18618972   4.512   6.587   5.817  1.0663  0.1573  0.5136
   94MOL   H18718973   4.675   6.749   6.151 -0.9885 -1.4227 -2.2629
   94MOL   H18818974   4.676   6.608   6.247  1.2236  1.8774 -0.1810
   94MOL   H18918975   4.562   6.764   5.941 -2.0993  1.1740  1.0879
   94MOL   H19018976   4.516   6.478   5.827  1.7043  0.1327 -0.0213
   94MOL   H19118977   4.408   6.606   5.788  1.0302 -0.2877  0.3443
   94MOL   C19218978   4.609   6.623   5.701  0.0453  0.1944  0.4501
   94MOL   C19318979   4.652   6.496   5.632  0.2692 -0.1809 -0.5533
   94MOL  Cl19418980   4.525   6.443   5.529  0.0018  0.2083 -0.0412
   94MOL   C19518981   4.757   6.425   5.666 -0.8638  0.4557 -0.1528
   94MOL   C19618982   4.859   6.465   5.776  0.1297 -0.4547  0.1833
   94MOL   H19718983   4.697   6.673   5.742  1.6461 -0.7963 -1.6862
   94MOL   H19818984   4.565   6.697   5.635  0.4398 -1.2943 -1.5147
   94MOL   H19918985   4.774   6.330   5.618  1.6858  0.1610  1.2149
   94MOL   H20018986   4.823   6.514   5.866 -1.2006 -1.0001 -0.0436
   94MOL   H20118987   4.941   6.532   5.747 -0.1954  0.2829  0.9583
   94MOL   H20218988   4.912   6.377   5.811  1.8159 -0.1721 -1.5423
   95MOL     C118989   7.781   0.249   3.136  0.0004 -0.0024  1.2467
   95MOL     C218990   7.693   0.169   3.226 -0.0003  0.7419  0.2433
   95MOL    Cl318991   7.766   0.015   3.258  0.2536 -0.0206  0.1336
   95MOL     C418992   7.571   0.202   3.269 -0.2490  0.0342 -0.2822
   95MOL     C518993   7.498   0.337   3.247  0.1739  0.0659  0.4986
   95MOL     H618994   7.778   0.356   3.157  1.0333  0.4753 -0.8789
   95MOL     H718995   7.748   0.230   3.034  2.2317  1.8061  0.1434
   95MOL     H818996   7.515   0.136   3.333 -0.8700  0.3837 -0.4629
   95MOL     H918997   7.511   0.386   3.343  2.9509 -0.0967  0.2624
   95MOL    H1018998   7.561   0.393   3.178 -0.0245 -0.8199 -0.4203
   95MOL    H1118999   7.884   0.214   3.147  0.2268 -0.1675 -1.2759
   95MOL    C1219000   7.349   0.327   3.214 -0.0490 -0.6727  0.7652
   95MOL    C1319001   7.285   0.446   3.157 -0.5133  0.6246  0.8131
   95MOL   Cl1419002   7.235   0.561   3.274  0.3763 -0.1057  0.0867
   95MOL    C1519003   7.257   0.468   3.026 -0.3731  0.2741  0.3129
   95MOL    C1619004   7.287   0.372   2.920  0.0240  0.0730  0.1273
   95MOL    H1719005   7.320   0.237   3.161 -2.4757  0.2489  0.4634
   95MOL    H1819006   7.291   0.302   3.303 -2.6197 -0.0137 -0.6801
   95MOL    H1919007   7.203   0.559   3.002 -1.3989 -0.0177  1.4787
   95MOL    H2019008   7.392   0.345   2.923  0.5008  1.8157 -0.0911
   95MOL    H2119009   7.227   0.284   2.945 -0.0351  0.2408  0.5858
   95MOL    C2219010   7.251   0.429   2.781  0.5168 -0.2426 -0.9362
   95MOL    C2319011   7.311   0.569   2.756 -0.1403 -0.5806  0.0331
   95MOL   Cl2419012   7.484   0.564   2.780  0.2886  0.1040  0.2908
   95MOL    C2519013   7.254   0.685   2.719 -0.4015  0.6711  0.0720
   95MOL    C2619014   7.323   0.822   2.704  0.0938 -0.3235  0.6032
   95MOL    H2719015   7.275   0.357   2.703  0.3005 -0.9343 -0.3630
   95MOL    H2819016   7.145   0.453   2.777  0.3708 -1.0634 -1.9523
   95MOL    H2919017   7.146   0.689   2.711 -0.4807 -1.8135 -0.3646
   95MOL    H3019018   7.430   0.812   2.719  0.6357 -0.2683 -2.9039
   95MOL    H3119019   7.324   0.863   2.603 -1.5632  0.4173  0.8689
   95MOL    C3219020   7.284   0.923   2.817  0.5147 -0.0661  0.1039
   95MOL    C3319021   7.144   0.982   2.819  0.7308 -0.0959  0.0183
   95MOL   Cl3419022   7.133   1.083   2.963  0.5665  0.0531  0.1635
   95MOL    C3519023   7.041   0.969   2.732 -0.5664  0.9178  0.2738
   95MOL    C3619024   6.899   1.041   2.741 -0.5501 -0.1294 -0.1715
   95MOL    H3719025   7.297   0.874   2.914  1.7706 -0.2958 -0.1648
   95MOL    H3819026   7.356   1.004   2.831  0.0144 -0.0112  2.6154
   95MOL    H3919027   7.055   0.915   2.639  0.0698  0.3341  0.7067
   95MOL    H4019028   6.911   1.143   2.776  1.1484 -0.5005  0.3807
   95MOL    H4119029   6.875   1.062   2.637 -1.1692  2.7098  0.5118
   95MOL    C4219030   6.806   0.956   2.834 -0.5759  0.3427  0.3516
   95MOL    C4319031   6.684   1.030   2.875  0.9505 -0.3738 -0.8700
   95MOL   Cl4419032   6.551   1.020   2.762  0.1388 -0.3572 -0.2108
   95MOL    C4519033   6.663   1.087   2.991  0.0233 -0.5093  0.5614
   95MOL    C4619034   6.760   1.100   3.106 -0.1398 -0.1411  0.1107
   95MOL    H4719035   6.769   0.869   2.781 -1.6484  1.9952 -1.6795
   95MOL    H4819036   6.849   0.913   2.925  1.3824  0.6114 -0.4271
   95MOL    H4919037   6.564   1.122   3.015 -0.2489 -1.6524  1.1277
   95MOL    H5019038   6.834   1.020   3.097  0.5733  0.5149  0.0955
   95MOL    H5119039   6.816   1.193   3.094 -0.0056 -0.2816 -0.3494
   95MOL    C5219040   6.694   1.107   3.244 -0.0650 -0.1138 -0.2818
   95MOL    C5319041   6.786   1.132   3.358 -0.2187  0.3040 -0.2530
   95MOL   Cl5419042   6.719   1.237   3.480  0.0447  0.2229  0.2823
   95MOL    C5519043   6.903   1.065   3.384  0.1328 -0.2283  0.1507
   95MOL    C5619044   6.993   1.083   3.513  0.5725  0.4837  0.0250
   95MOL    H5719045   6.619   1.185   3.248  0.4916  0.5582 -2.5210
   95MOL    H5819046   6.642   1.011   3.258  1.4401 -0.6462  1.8551
   95MOL    H5919047   6.924   0.995   3.304 -1.4511 -1.2596  0.6101
   95MOL    H6019048   6.943   1.153   3.579  2.9446 -0.7241  3.2194
   95MOL    H6119049   6.995   0.981   3.551 -0.0759  0.6499  0.5096
   95MOL    C6219050   7.133   1.131   3.485 -0.2800 -0.0712  0.2430
   95MOL    C6319051   7.209   1.165   3.612 -0.7832 -0.1061 -0.2434
   95MOL   Cl6419052   7.351   1.076   3.611  0.6398  0.1142 -0.1066
   95MOL    C6519053   7.174   1.256   3.709  0.1567 -0.0870 -0.3662
   95MOL    C6619054   7.265   1.288   3.824  0.5920 -0.3452  0.1421
   95MOL    H6719055   7.186   1.056   3.426  0.7479  1.5070 -0.9032
   95MOL    H6819056   7.139   1.215   3.416 -1.8491 -0.9463 -1.0044
   95MOL    H6919057   7.081   1.309   3.694 -1.2220 -2.3601  0.0632
   95MOL    H7019058   7.365   1.286   3.780  2.4643  3.3883  3.8852
   95MOL    H7119059   7.269   1.212   3.903 -0.3361 -0.9825 -0.4256
   95MOL    C7219060   7.221   1.422   3.885 -0.2892  0.4630  0.3388
   95MOL    C7319061   7.297   1.460   4.014  0.4875 -0.0429 -0.1635
   95MOL   Cl7419062   7.455   1.503   3.970 -0.5244 -0.0395 -0.1294
   95MOL    C7519063   7.249   1.461   4.140 -0.0165  0.5255  0.1426
   95MOL    C7619064   7.323   1.511   4.258  0.0323 -0.6505  0.7326
   95MOL    H7719065   7.118   1.401   3.914  0.0142 -2.4420 -0.5396
   95MOL    H7819066   7.221   1.496   3.805  0.1708  0.2602  0.1534
   95MOL    H7919067   7.152   1.417   4.158  0.2573 -0.5687 -0.9650
   95MOL    H8019068   7.431   1.524   4.246  0.2172 -0.6998  2.2989
   95MOL    H8119069   7.324   1.447   4.346  0.2334 -0.3342  0.9628
   95MOL    C8219070   7.265   1.646   4.297 -0.3913 -0.2598  0.2085
   95MOL    C8319071   7.318   1.694   4.429 -0.1966 -0.2395  0.0978
   95MOL   Cl8419072   7.190   1.712   4.544 -0.1788  0.1605  0.1962
   95MOL    C8519073   7.445   1.694   4.472 -0.4611 -0.2982  0.4716
   95MOL    C8619074   7.485   1.725   4.611 -0.2262 -0.8178  0.2842
   95MOL    H8719075   7.156   1.636   4.297 -0.3500 -0.7318  0.1296
   95MOL    H8819076   7.288   1.711   4.212 -1.2175  0.5322  0.5736
   95MOL    H8919077   7.522   1.674   4.399 -0.8623 -0.3835  0.0692
   95MOL    H9019078   7.414   1.723   4.694  0.6486 -0.2919  1.0500
   95MOL    H9119079   7.551   1.646   4.645 -0.0233 -0.8532 -0.1918
   95MOL    C9219080   7.564   1.855   4.623  0.1921  0.0748  0.0885
   95MOL    C9319081   7.588   1.889   4.767  0.3793 -0.1949 -0.5097
   95MOL   Cl9419082   7.741   1.822   4.824  0.1707 -0.1527 -0.3972
   95MOL    C9519083   7.513   1.962   4.849  0.5772  0.4565  0.9186
   95MOL    C9619084   7.380   2.013   4.814 -0.0785 -0.7546  0.1758
   95MOL    H9719085   7.510   1.942   4.583 -1.0821 -1.4724 -1.6590
   95MOL    H9819086   7.647   1.867   4.554  1.1894 -1.8274  0.9539
   95MOL    H9919087   7.561   1.988   4.942  0.1894 -0.9138  1.5180
   95MOL   H10019088   7.395   2.119   4.791 -2.1464 -0.5637 -0.4067
   95MOL   H10119089   7.337   1.970   4.723 -1.4770  0.7397  0.0963
   95MOL   C10219090   7.291   2.000   4.936  0.1193  0.3868 -0.0842
   95MOL   C10319091   7.144   1.972   4.890 -0.4539 -0.0127 -0.1068
   95MOL  Cl10419092   7.072   2.109   4.809  0.2935  0.4837  0.0580
   95MOL   C10519093   7.065   1.859   4.917 -0.5584 -0.2259 -0.0546
   95MOL   C10619094   6.920   1.827   4.882  0.5153 -0.2494  0.1243
   95MOL   H10719095   7.324   1.918   4.999 -1.1091  0.6855  0.9791
   95MOL   H10819096   7.286   2.090   4.997  0.1726  1.1763 -1.2122
   95MOL   H10919097   7.119   1.785   4.975  1.3803  0.8539 -0.4347
   95MOL   H11019098   6.864   1.775   4.959 -0.0789  0.7730  0.3863
   95MOL   H11119099   6.873   1.924   4.861  1.0820  0.0531  0.2530
   95MOL   C11219100   6.905   1.743   4.755  0.1480 -0.3457 -0.4083
   95MOL   C11319101   6.760   1.737   4.716 -0.6147 -0.2043 -0.3090
   95MOL  Cl11419102   6.693   1.576   4.738 -0.2560  0.0385 -0.1421
   95MOL   C11519103   6.687   1.832   4.658 -0.3465  0.5067  0.5384
   95MOL   C11619104   6.738   1.970   4.616 -0.5205  0.1323  0.4793
   95MOL   H11719105   6.961   1.784   4.671  0.6631 -0.1483  0.0311
   95MOL   H11819106   6.957   1.647   4.765 -0.5040 -0.8528 -1.6997
   95MOL   H11919107   6.582   1.808   4.646 -0.3269  0.9721 -0.5626
   95MOL   H12019108   6.691   2.003   4.523  0.4994  0.0464 -0.0698
   95MOL   H12119109   6.847   1.974   4.611 -0.6674  1.1081 -3.0878
   95MOL   C12219110   6.683   2.070   4.709 -0.3695 -0.0587  0.0451
   95MOL   C12319111   6.694   2.215   4.665  0.3998 -0.0198 -0.1965
   95MOL  Cl12419112   6.845   2.292   4.717 -0.1588  0.4778  0.6455
   95MOL   C12519113   6.613   2.287   4.589  0.1996 -0.3577  0.7468
   95MOL   C12619114   6.483   2.244   4.530 -0.0006  0.2302  0.2494
   95MOL   H12719115   6.579   2.040   4.720 -0.5787 -0.0180 -1.6179
   95MOL   H12819116   6.706   2.070   4.815  1.1938  2.4744 -0.2683
   95MOL   H12919117   6.637   2.390   4.565 -1.3279  0.0266  0.7823
   95MOL   H13019118   6.472   2.137   4.544 -2.4156  0.4370  0.1476
   95MOL   H13119119   6.401   2.288   4.586 -0.0965 -0.0049  0.2930
   95MOL   C13219120   6.477   2.271   4.376  0.3507  0.4521 -0.0331
   95MOL   C13319121   6.490   2.414   4.328 -0.2857 -0.0548  0.1495
   95MOL  Cl13419122   6.403   2.524   4.423  0.3549 -0.0493  0.3438
   95MOL   C13519123   6.557   2.457   4.218  0.4099 -0.4177  0.3534
   95MOL   C13619124   6.628   2.371   4.124 -0.2393  0.4635 -0.7526
   95MOL   H13719125   6.554   2.216   4.322 -1.1588  0.0121 -1.8150
   95MOL   H13819126   6.389   2.224   4.332  1.9725 -1.0930 -1.7291
   95MOL   H13919127   6.550   2.562   4.194  1.1308 -0.2649  0.7918
   95MOL   H14019128   6.711   2.333   4.184  1.0253  1.0471 -2.0834
   95MOL   H14119129   6.567   2.283   4.107  4.0303 -2.9520  0.7082
   95MOL   C14219130   6.674   2.437   3.995 -0.8318  0.0418  0.4269
   95MOL   C14319131   6.770   2.346   3.920  0.5679  1.0011  0.0824
   95MOL  Cl14419132   6.686   2.243   3.807 -0.2215 -0.1809  0.3127
   95MOL   C14519133   6.901   2.348   3.942  0.7082  0.4858  0.0605
   95MOL   C14619134   6.998   2.267   3.873 -0.7079  0.0382  0.3947
   95MOL   H14719135   6.731   2.522   4.033  0.8035 -0.7119 -0.2826
   95MOL   H14819136   6.590   2.476   3.938 -0.6946  0.7045  0.6778
   95MOL   H14919137   6.940   2.410   4.022  2.1585  0.1121 -0.3526
   95MOL   H15019138   7.016   2.172   3.923 -3.4181 -0.7966 -0.1585
   95MOL   H15119139   6.966   2.258   3.769  1.0868  0.8126 -0.2601
   95MOL   C15219140   7.138   2.335   3.869  0.7400  0.1518 -0.3678
   95MOL   C15319141   7.251   2.250   3.829  0.1394 -0.4983 -0.4479
   95MOL  Cl15419142   7.295   2.150   3.964  0.1833  0.3380 -0.5139
   95MOL   C15519143   7.330   2.261   3.721  0.5029 -0.0601  0.5746
   95MOL   C15619144   7.454   2.175   3.685  0.5494 -0.0986 -0.5684
   95MOL   H15719145   7.124   2.420   3.802 -0.4742 -0.5892 -1.0791
   95MOL   H15819146   7.158   2.375   3.968  0.7547  0.8983 -0.6731
   95MOL   H15919147   7.306   2.333   3.644 -0.1147 -1.3980 -0.5024
   95MOL   H16019148   7.438   2.135   3.586  0.8049 -0.4411 -0.4713
   95MOL   H16119149   7.470   2.094   3.756  1.7852 -0.5572 -1.3499
   95MOL   C16219150   7.584   2.243   3.677  0.3307  0.5259  0.3565
   95MOL   C16319151   7.639   2.257   3.819 -0.7592  0.4517  0.6206
   95MOL  Cl16419152   7.751   2.143   3.873  0.0902  0.2658  0.4167
   95MOL   C16519153   7.590   2.356   3.901  0.0777 -0.1647 -0.3587
   95MOL   C16619154   7.625   2.379   4.048 -0.2483  0.1276  0.0833
   95MOL   H16719155   7.654   2.175   3.627  0.6369  1.4242 -0.4469
   95MOL   H16819156   7.563   2.333   3.620 -1.8961 -1.0153 -1.3591
   95MOL   H16919157   7.516   2.426   3.862 -1.6208 -1.2598  0.8303
   95MOL   H17019158   7.539   2.364   4.114  1.4000 -1.0197  2.0087
   95MOL   H17119159   7.692   2.298   4.077 -1.0164 -1.5822 -2.6857
   95MOL   C17219160   7.678   2.521   4.074 -0.8600 -0.1349 -0.0229
   95MOL   C17319161   7.692   2.546   4.224  0.3740  0.1267 -1.0436
   95MOL  Cl17419162   7.568   2.659   4.279 -0.3818 -0.2466  0.1301
   95MOL   C17519163   7.775   2.488   4.313  0.1836  0.2350 -0.3089
   95MOL   C17619164   7.785   2.527   4.459 -0.4823 -0.1421  0.1281
   95MOL   H17719165   7.622   2.596   4.018  2.0603 -0.0612 -2.9943
   95MOL   H17819166   7.780   2.525   4.037  0.0709  1.1905  2.5107
   95MOL   H17919167   7.842   2.409   4.282  0.8696  0.9791 -0.7435
   95MOL   H18019168   7.780   2.441   4.526  2.6683  0.4750  1.2793
   95MOL   H18119169   7.702   2.595   4.479  0.2929  0.9297 -0.2397
   95MOL   C18219170   7.923   2.600   4.478 -0.5168  0.7171 -0.1121
   95MOL   C18319171   7.959   2.609   4.633 -0.3625 -0.8079  0.7413
   95MOL  Cl18419172   8.130   2.618   4.665  0.1935 -0.0777 -0.1939
   95MOL   C18519173   7.870   2.584   4.730  0.6112 -0.5514 -0.6528
   95MOL   C18619174   7.897   2.576   4.877 -0.0489 -0.2023  0.4231
   95MOL   H18719175   7.996   2.534   4.432  0.3206  0.6895  1.2084
   95MOL   H18819176   7.916   2.695   4.426 -0.9292  1.7135  1.7141
   95MOL   H18919177   7.766   2.561   4.711 -0.0148  0.0784  1.7218
   95MOL   H19019178   7.985   2.639   4.895  0.5734 -1.1566  0.7837
   95MOL   H19119179   7.810   2.614   4.930  1.6846  2.9740  1.1691
   95MOL   C19219180   7.926   2.432   4.923 -0.2843  0.1691 -0.0795
   95MOL   C19319181   7.947   2.425   5.074  0.2966  0.8076 -0.5644
   95MOL  Cl19419182   8.117   2.402   5.101  0.1317 -0.0975 -0.1652
   95MOL   C19519183   7.845   2.421   5.166  0.7361  0.4978 -0.1579
   95MOL   C19619184   7.697   2.427   5.127  0.1532 -1.3160 -0.8635
   95MOL   H19719185   8.017   2.396   4.875  0.5864  0.9109  0.9932
   95MOL   H19819186   7.849   2.363   4.888 -0.6165  0.1368  0.6940
   95MOL   H19919187   7.864   2.408   5.272  1.0234  0.8694 -0.1631
   95MOL   H20019188   7.673   2.532   5.146  1.8030 -1.0879  0.0164
   95MOL   H20119189   7.631   2.362   5.183  1.1754  0.1322  2.1646
   95MOL   H20219190   7.673   2.403   5.023  1.7106 -3.1279 -0.8269
   96MOL     C119191   7.445   0.035   0.073 -0.0273 -0.2218  0.1939
   96MOL     C219192   7.472   8.374   0.205  0.4955 -0.2349  0.2633
   96MOL    Cl319193   7.381   8.225   0.217  0.2574  0.2381  0.0490
   96MOL     C419194   7.567   8.401   0.292  0.2513  0.2956 -0.0109
   96MOL     C519195   7.655   0.099   0.295 -0.1210 -0.2894 -0.2345
   96MOL     H619196   7.345   0.031   0.030 -1.2336  1.3293  2.7238
   96MOL     H719197   7.512   8.410   0.001  1.9145 -0.6086  2.1956
   96MOL     H819198   7.576   8.331   0.373  0.2227  0.6893  0.3298
   96MOL     H919199   7.751   0.056   0.324 -0.8366 -1.7278  0.0624
   96MOL    H1019200   7.684   0.128   0.194 -1.0203  1.9764  0.1157
   96MOL    H1119201   7.484   0.137   0.078 -0.3545 -0.1005  0.2999
   96MOL    C1219202   7.619   0.211   0.387 -0.4816  0.2541  0.2948
   96MOL    C1319203   7.502   0.290   0.331  0.4696  0.4370  1.1346
   96MOL   Cl1419204   7.550   0.384   0.188  0.2221 -0.4359  0.5128
   96MOL    C1519205   7.382   0.311   0.396  0.0562 -0.1572 -0.2564
   96MOL    C1619206   7.322   0.234   0.517 -0.2283 -0.3891  0.1412
   96MOL    H1719207   7.598   0.184   0.490  2.2670 -3.4510 -0.0210
   96MOL    H1819208   7.705   0.278   0.382  1.2083 -1.9694 -2.3295
   96MOL    H1919209   7.311   0.382   0.355  0.9055  0.5630 -0.5059
   96MOL    H2019210   7.394   0.226   0.598  1.0575  1.7389 -0.7266
   96MOL    H2119211   7.246   0.293   0.566 -0.2650 -0.0759 -0.2857
   96MOL    C2219212   7.268   0.093   0.485 -0.3669  1.0925  0.0158
   96MOL    C2319213   7.217   0.016   0.610 -0.4851 -0.4832  0.3387
   96MOL   Cl2419214   7.047   0.017   0.612 -0.4712 -0.0562 -0.8216
   96MOL    C2519215   7.294   8.399   0.713 -0.1972  0.7868 -0.3268
   96MOL    C2619216   7.257   8.348   0.851  0.1064 -0.2613 -0.0476
   96MOL    H2719217   7.198   0.095   0.401 -2.1260 -1.4423  1.3361
   96MOL    H2819218   7.358   0.034   0.471 -0.2896  1.2231 -0.0342
   96MOL    H2919219   7.400   8.415   0.698 -0.2056  0.2171 -1.0283
   96MOL    H3019220   7.151   8.358   0.873 -0.5927  0.6725 -3.5486
   96MOL    H3119221   7.285   8.243   0.858 -0.4167 -0.5459 -1.9963
   96MOL    C3219222   7.341   8.418   0.964  0.4589  0.3633  0.1198
   96MOL    C3319223   7.320   8.348   1.100 -0.4778  0.4651  0.5276
   96MOL   Cl3419224   7.232   0.019   1.217 -0.2845 -0.6514  0.2139
   96MOL    C3519225   7.361   8.222   1.131 -0.3786 -0.2940 -0.6550
   96MOL    C3619226   7.346   8.154   1.265 -0.1104  0.1497 -0.8386
   96MOL    H3719227   7.444   8.408   0.930 -0.2154 -3.0749 -1.1084
   96MOL    H3819228   7.312   0.100   0.985 -0.9933 -0.2495  1.3081
   96MOL    H3919229   7.417   8.155   1.067  2.3668 -1.6973  3.0886
   96MOL    H4019230   7.441   8.124   1.310 -0.9892 -0.5616  0.6212
   96MOL    H4119231   7.307   8.221   1.341 -0.8622  0.9977 -1.9684
   96MOL    C4219232   7.262   8.026   1.262  0.0284 -0.0076 -0.6066
   96MOL    C4319233   7.248   7.957   1.398 -0.1639  0.2369  0.0968
   96MOL   Cl4419234   7.317   7.800   1.413 -0.4239  0.0951  0.0253
   96MOL    C4519235   7.189   8.006   1.508 -0.1270  0.3335 -0.8071
   96MOL    C4619236   7.114   8.139   1.519 -0.1990  0.0812 -0.1410
   96MOL    H4719237   7.164   8.051   1.222 -0.9032 -0.7135  1.1355
   96MOL    H4819238   7.316   7.957   1.197 -0.3093 -2.0197  1.1757
   96MOL    H4919239   7.182   7.949   1.599  0.1424  0.8383 -0.4690
   96MOL    H5019240   7.189   8.204   1.565 -0.4524 -0.1831  0.6616
   96MOL    H5119241   7.082   8.174   1.421 -0.8787  0.7064  0.2957
   96MOL    C5219242   6.988   8.131   1.612 -0.2101  0.5651 -0.5693
   96MOL    C5319243   6.894   8.240   1.574 -0.8650  0.5046 -0.2174
   96MOL   Cl5419244   6.796   8.185   1.442  0.1658 -0.1228  0.2056
   96MOL    C5519245   6.875   8.351   1.645 -0.5058 -0.3174 -0.0503
   96MOL    C5619246   6.763   0.034   1.625  0.3400  0.4374  0.5178
   96MOL    H5719247   6.934   8.036   1.616  2.2632 -0.8591  1.0975
   96MOL    H5819248   7.027   8.140   1.714  0.7367 -4.1635 -0.3848
   96MOL    H5919249   6.947   8.370   1.724 -0.5911 -1.4640  0.3130
   96MOL    H6019250   6.808   0.129   1.595  0.5869 -0.0393 -0.6929
   96MOL    H6119251   6.698   8.421   1.544  1.4856  0.9951 -0.6617
   96MOL    C6219252   6.679   0.041   1.760  0.1386  0.0415 -0.2747
   96MOL    C6319253   6.571   0.147   1.757  0.3615 -0.0268 -0.4064
   96MOL   Cl6419254   6.426   0.079   1.687  0.1954  0.0697 -0.0899
   96MOL    C6519255   6.573   0.267   1.812  0.7252  0.2961  0.4093
   96MOL    C6619256   6.460   0.362   1.830  0.1161  0.0450  0.1866
   96MOL    H6719257   6.630   8.365   1.774  0.6097 -0.0234  0.9849
   96MOL    H6819258   6.745   0.057   1.844 -0.7632  0.2283  0.4096
   96MOL    H6919259   6.667   0.301   1.853  0.6840  0.1330  0.6423
   96MOL    H7019260   6.366   0.329   1.786 -0.4731  1.0855  0.6604
   96MOL    H7119261   6.496   0.451   1.779 -0.2544 -0.5860 -1.2353
   96MOL    C7219262   6.439   0.412   1.977  0.5632  0.1946  0.3132
   96MOL    C7319263   6.342   0.537   1.988  0.0080  0.8362 -0.0209
   96MOL   Cl7419264   6.368   0.630   2.129  0.1343  0.1294 -0.0097
   96MOL    C7519265   6.251   0.573   1.894 -0.4991 -0.0479  0.1052
   96MOL    C7619266   6.160   0.695   1.899 -0.3516 -0.5028  0.7223
   96MOL    H7719267   6.534   0.451   2.015  0.8110  0.0317 -0.1349
   96MOL    H7819268   6.413   0.328   2.041  1.7276 -1.0609 -0.8425
   96MOL    H7919269   6.240   0.511   1.806  1.0340 -2.6848  1.6778
   96MOL    H8019270   6.182   0.769   1.823 -1.0897 -0.2813  0.7153
   96MOL    H8119271   6.161   0.747   1.995 -0.0046  1.1478 -0.1515
   96MOL    C8219272   6.007   0.660   1.871 -0.3225  0.8716 -0.8778
   96MOL    C8319273   5.940   0.765   1.786 -0.1013  0.1266 -0.2293
   96MOL   Cl8419274   5.963   0.723   1.617  0.0223  0.5259  0.0546
   96MOL    C8519275   5.869   0.871   1.829 -0.5539 -0.7497 -0.2876
   96MOL    C8619276   5.799   0.974   1.745  0.4040  0.1593  0.1591
   96MOL    H8719277   5.955   0.668   1.966  1.5361  0.6162  0.1764
   96MOL    H8819278   5.998   0.555   1.845  0.5316 -0.1735  2.8293
   96MOL    H8919279   5.865   0.896   1.934  0.2696  0.5415 -0.5353
   96MOL    H9019280   5.778   0.931   1.647  0.1896  1.3724 -0.3254
   96MOL    H9119281   5.702   0.992   1.791 -1.5769 -3.0355 -2.5318
   96MOL    C9219282   5.883   1.103   1.718  0.2210  0.5513 -0.3802
   96MOL    C9319283   6.027   1.083   1.673 -0.0812 -0.3553 -0.5684
   96MOL   Cl9419284   6.126   1.048   1.812 -0.4832 -0.1116  0.0140
   96MOL    C9519285   6.073   1.086   1.547 -0.7480 -0.0948  0.7078
   96MOL    C9619286   5.986   1.102   1.420  0.7654 -0.1331 -0.0689
   96MOL    H9719287   5.886   1.160   1.811 -0.2102 -0.4104  0.2306
   96MOL    H9819288   5.831   1.174   1.654 -1.1753 -0.9563 -0.9414
   96MOL    H9919289   6.178   1.077   1.526 -0.6492  1.5978  0.4103
   96MOL   H10019290   5.887   1.128   1.457  1.3948 -0.4662  1.8607
   96MOL   H10119291   6.022   1.180   1.353  0.8237  2.0671  2.4511
   96MOL   C10219292   5.972   0.974   1.329  0.1700  0.1201  0.3428
   96MOL   C10319293   5.879   0.971   1.210 -0.4324  0.4463  0.0442
   96MOL  Cl10419294   5.717   0.995   1.270 -0.3930  0.0925 -0.2117
   96MOL   C10519295   5.921   0.949   1.083 -0.0943  0.3060 -0.2524
   96MOL   C10619296   5.820   0.941   0.963  0.4055 -0.0018  0.4072
   96MOL   H10719297   6.061   0.940   1.276  0.2938  1.9045 -0.6562
   96MOL   H10819298   5.942   0.893   1.395  0.2898  1.1580  1.6856
   96MOL   H10919299   6.025   0.925   1.062 -0.1713 -0.6047  0.3880
   96MOL   H11019300   5.720   0.948   1.005  0.8871 -3.2967  2.2606
   96MOL   H11119301   5.834   1.039   0.918 -0.9457 -1.1205 -2.5510
   96MOL   C11219302   5.837   0.814   0.877  0.9554 -0.0780  0.9299
   96MOL   C11319303   5.750   0.828   0.751  0.0183  0.2508  0.7840
   96MOL  Cl11419304   5.597   0.907   0.769 -0.4134  0.0326 -0.1127
   96MOL   C11519305   5.788   0.781   0.626  1.1117 -0.1053 -0.0068
   96MOL   C11619306   5.917   0.730   0.579 -0.0866  0.2648 -0.3467
   96MOL   H11719307   5.944   0.814   0.853  0.4540 -0.0752 -1.4157
   96MOL   H11819308   5.812   0.722   0.929 -2.2665  0.3850  0.2895
   96MOL   H11919309   5.714   0.793   0.549  0.9598 -0.2736  0.1122
   96MOL   H12019310   5.919   0.623   0.560  1.1956 -0.4670  3.5887
   96MOL   H12119311   5.986   0.733   0.664 -2.0954  1.8857  1.2803
   96MOL   C12219312   5.972   0.811   0.461  0.4572 -0.4054  0.4455
   96MOL   C12319313   6.120   0.789   0.417 -0.4355  0.4659  0.4417
   96MOL  Cl12419314   6.201   0.671   0.513  0.1364 -0.0961 -0.2051
   96MOL   C12519315   6.180   0.846   0.305 -0.2249  0.3034 -0.2279
   96MOL   C12619316   6.105   0.945   0.225 -0.1893  0.1737 -0.6317
   96MOL   H12719317   5.920   0.783   0.369  0.6737  2.8651 -0.7608
   96MOL   H12819318   5.944   0.917   0.461  0.8627 -0.2964  1.2587
   96MOL   H12919319   6.275   0.803   0.278 -1.3907 -2.0450 -0.7869
   96MOL   H13019320   6.044   0.882   0.160  0.8874 -2.8236  1.1422
   96MOL   H13119321   6.026   0.998   0.278  0.2076 -0.5035  0.6695
   96MOL   C13219322   6.208   1.042   0.158  0.1120 -0.2065  0.0731
   96MOL   C13319323   6.146   1.159   0.096  0.6078  0.0218 -0.3527
   96MOL  Cl13419324   6.082   1.118   8.362  0.1200 -0.1927 -0.0653
   96MOL   C13519325   6.130   1.283   0.142 -1.1667  0.3241  0.4157
   96MOL   C13619326   6.175   1.342   0.280  0.1975 -0.1062 -0.5381
   96MOL   H13719327   6.281   1.071   0.234 -1.2663 -0.1947  1.4354
   96MOL   H13819328   6.259   0.987   0.079 -0.0936 -2.7333  1.6199
   96MOL   H13919329   6.090   1.352   0.070  3.0929  0.1193 -2.3588
   96MOL   H14019330   6.154   1.269   0.358  1.0876  2.9966  2.7286
   96MOL   H14119331   6.280   1.359   0.257 -0.3715  3.0216 -0.9611
   96MOL   C14219332   6.114   1.473   0.310 -0.0066  0.2761 -0.1433
   96MOL   C14319333   6.158   1.528   0.444  0.1884 -0.4262 -0.2403
   96MOL  Cl14419334   6.126   1.433   0.584  0.0411  0.2448 -0.0544
   96MOL   C14519335   6.219   1.649   0.455 -0.5271 -0.0564  0.0941
   96MOL   C14619336   6.275   1.713   0.582 -0.0159 -0.0888 -1.0286
   96MOL   H14719337   6.006   1.458   0.311  0.3010 -2.1392  1.2670
   96MOL   H14819338   6.136   1.546   0.232  1.4734 -0.4710 -0.4450
   96MOL   H14919339   6.243   1.713   0.371 -1.0056 -0.6202 -0.4840
   96MOL   H15019340   6.207   1.790   0.619  0.9900  0.5444 -0.4697
   96MOL   H15119341   6.290   1.638   0.659  2.3777  1.4511  0.0641
   96MOL   C15219342   6.403   1.797   0.570 -0.2528  1.4221  0.3133
   96MOL   C15319343   6.524   1.709   0.584  0.1432  0.0851 -0.1268
   96MOL  Cl15419344   6.589   1.681   0.426  0.0243  0.0738 -0.3251
   96MOL   C15519345   6.562   1.652   0.701 -0.0578  0.4319 -0.6418
   96MOL   C15619346   6.677   1.560   0.728 -0.4755 -0.2604 -0.2649
   96MOL   H15719347   6.407   1.830   0.467  2.4206  0.0414 -0.0904
   96MOL   H15819348   6.407   1.885   0.634 -0.2064  1.5976  0.0662
   96MOL   H15919349   6.508   1.674   0.792 -1.4975 -1.4758 -0.9966
   96MOL   H16019350   6.732   1.581   0.820 -0.3618 -1.9968  0.0761
   96MOL   H16119351   6.749   1.577   0.648  1.8466  0.2404  1.8739
   96MOL   C16219352   6.623   1.416   0.738 -0.3978 -0.3919 -0.6602
   96MOL   C16319353   6.723   1.303   0.775  0.5780 -0.4806 -0.0002
   96MOL  Cl16419354   6.640   1.174   0.861 -0.1965 -0.0702  0.0641
   96MOL   C16519355   6.854   1.303   0.752  0.2239  0.4897  0.5224
   96MOL   C16619356   6.944   1.187   0.772 -0.4278 -0.1246  0.3751
   96MOL   H16719357   6.548   1.410   0.817 -0.1516  1.7577 -0.2502
   96MOL   H16819358   6.565   1.379   0.653 -0.7175  0.9904 -1.0488
   96MOL   H16919359   6.895   1.394   0.711  2.0428 -0.9380 -0.9378
   96MOL   H17019360   7.027   1.224   0.832 -0.5538 -0.5807  0.8334
   96MOL   H17119361   6.890   1.115   0.834 -0.1629 -0.7762 -0.1441
   96MOL   C17219362   7.012   1.137   0.639  0.0551 -1.4696  0.2008
   96MOL   C17319363   7.030   0.985   0.631 -0.1472 -0.0854 -0.6880
   96MOL  Cl17419364   6.944   0.916   0.492 -0.1671 -0.1837 -0.0541
   96MOL   C17519365   7.090   0.910   0.724  0.5068  0.9934  0.0996
   96MOL   C17619366   7.104   0.762   0.718  0.3999  0.0176 -0.0137
   96MOL   H17719367   7.108   1.188   0.626 -1.4101  1.1034 -0.8946
   96MOL   H17819368   6.957   1.173   0.552  3.4004  0.8639 -1.0835
   96MOL   H17919369   7.125   0.961   0.813  1.2504 -0.3738  0.6067
   96MOL   H18019370   7.189   0.739   0.653 -2.0485  0.4278 -3.4910
   96MOL   H18119371   7.011   0.731   0.672  0.6186  1.6419 -1.6237
   96MOL   C18219372   7.094   0.693   0.855 -0.2554  0.2854 -0.2690
   96MOL   C18319373   7.108   0.542   0.849 -0.3076  0.4300  0.4491
   96MOL  Cl18419374   7.272   0.511   0.820  0.0141  0.1940  0.3011
   96MOL   C18519375   7.008   0.456   0.861 -0.3272  0.4704 -0.7903
   96MOL   C18619376   7.018   0.306   0.860  0.1824 -0.1809  0.2762
   96MOL   H18719377   7.163   0.735   0.928  0.3570 -1.0180 -0.0793
   96MOL   H18819378   6.996   0.715   0.896 -0.0096 -0.0723  0.5168
   96MOL   H18919379   6.911   0.499   0.882 -0.0652  0.0683  1.3629
   96MOL   H19019380   6.957   0.264   0.780  1.3839 -0.5507 -0.4602
   96MOL   H19119381   7.122   0.281   0.839 -0.2012  0.2285 -2.1831
   96MOL   C19219382   6.983   0.255   1.000 -0.2334  0.0313 -0.0446
   96MOL   C19319383   6.836   0.270   1.048 -0.2687 -0.9776 -0.6201
   96MOL  Cl19419384   6.729   0.314   0.919 -0.3483 -0.0532 -0.0269
   96MOL   C19519385   6.796   0.257   1.178  0.2164  0.1244 -0.4067
   96MOL   C19619386   6.887   0.222   1.292  0.9871 -0.2567  0.5868
   96MOL   H19719387   7.045   0.304   1.074  2.2095 -2.4478 -0.3781
   96MOL   H19819388   7.012   0.150   1.004 -2.0969 -0.5454 -0.8837
   96MOL   H19919389   6.695   0.278   1.207  1.1576  0.6404  2.6906
   96MOL   H20019390   6.871   0.288   1.378  0.0839  0.2042  0.0710
   96MOL   H20119391   6.994   0.219   1.270  1.0741  0.5250  0.8757
   96MOL   H20219392   6.860   0.122   1.323 -0.9089  0.6649  2.0289
   97MOL     C119393   1.157   3.058   6.234 -0.5994  0.6633 -0.6867
   97MOL     C219394   1.107   3.002   6.365 -0.0346  0.6118 -0.2332
   97MOL    Cl319395   1.210   3.070   6.494 -0.1564  0.5301  0.0157
   97MOL     C419396   0.999   2.923   6.386 -0.3878  0.6606 -0.0970
   97MOL     C519397   0.920   2.853   6.278 -0.4284 -0.0618 -0.3969
   97MOL     H619398   1.079   3.097   6.170  0.2318  2.3068 -0.7181
   97MOL     H719399   1.209   2.978   6.182  0.2671 -0.4433  1.7634
   97MOL     H819400   0.967   2.892   6.484  0.4206  1.3478  0.3872
   97MOL     H919401   0.936   2.897   6.180 -0.1110 -0.2156 -0.4147
   97MOL    H1019402   0.948   2.748   6.272  2.2859  0.5215  1.0551
   97MOL    H1119403   1.242   3.126   6.243 -0.0157 -0.0403 -0.7835
   97MOL    C1219404   0.768   2.858   6.307  0.7532  0.2458  0.8294
   97MOL    C1319405   0.691   2.739   6.248  0.0602  0.5446  0.6085
   97MOL   Cl1419406   0.636   2.624   6.370  0.0086  0.0687 -0.0232
   97MOL    C1519407   0.673   2.717   6.124  0.0817 -0.1148  0.4607
   97MOL    C1619408   0.721   2.794   6.003 -0.2332 -0.2192 -0.9259
   97MOL    H1719409   0.749   2.872   6.413 -0.1601  2.5041  0.4155
   97MOL    H1819410   0.727   2.954   6.274 -0.4715 -0.3512  0.5467
   97MOL    H1919411   0.630   2.629   6.080  0.2948 -0.0048  0.0234
   97MOL    H2019412   0.758   2.893   6.026  0.1377 -0.2701 -1.2876
   97MOL    H2119413   0.807   2.737   5.967  1.4485  0.9715  1.0825
   97MOL    C2219414   0.620   2.814   5.883 -0.5724 -0.2443  0.9829
   97MOL    C2319415   0.637   2.725   5.761 -0.0984 -0.0210  0.0050
   97MOL   Cl2419416   0.711   2.572   5.794 -0.2145  0.1778 -0.1428
   97MOL    C2519417   0.592   2.761   5.640 -0.3643  0.0099  0.4111
   97MOL    C2619418   0.600   2.667   5.517 -0.2424  0.3119 -0.2242
   97MOL    H2719419   0.516   2.818   5.914 -1.1076 -0.5491 -0.7070
   97MOL    H2819420   0.625   2.916   5.845 -1.3317 -0.7459 -0.4896
   97MOL    H2919421   0.539   2.854   5.625 -3.0710 -1.7525 -1.4283
   97MOL    H3019422   0.656   2.579   5.548 -1.9146 -0.8320 -0.4146
   97MOL    H3119423   0.502   2.626   5.492 -0.1965  0.9250 -1.4707
   97MOL    C3219424   0.672   2.721   5.390  0.3835  0.2292  0.0547
   97MOL    C3319425   0.580   2.810   5.308  0.7578 -0.2949 -0.0124
   97MOL   Cl3419426   0.621   2.982   5.351 -0.4853  0.0975 -0.0901
   97MOL    C3519427   0.504   2.769   5.203 -0.3630 -0.5365 -0.1461
   97MOL    C3619428   0.435   2.855   5.105  0.7660  0.0891 -0.4624
   97MOL    H3719429   0.757   2.771   5.436  1.2918 -2.4243  1.4040
   97MOL    H3819430   0.715   2.642   5.329 -0.4747 -0.6783  0.6096
   97MOL    H3919431   0.487   2.664   5.184  2.7352 -1.0018 -0.6637
   97MOL    H4019432   0.445   2.961   5.127  0.4190 -0.0684  0.4588
   97MOL    H4119433   0.486   2.841   5.009 -0.3158 -0.3422 -0.9869
   97MOL    C4219434   0.285   2.827   5.090 -0.0707 -0.2229  0.2720
   97MOL    C4319435   0.207   2.920   5.004 -1.0086 -0.3275 -0.3540
   97MOL   Cl4419436   0.161   3.063   5.096  0.3776 -0.0389 -0.4047
   97MOL    C4519437   0.162   2.900   4.881 -0.1509  0.2104  0.2869
   97MOL    C4619438   0.173   2.776   4.786 -0.5598 -0.4251  0.0178
   97MOL    H4719439   0.267   2.726   5.051 -1.0842  0.1711 -0.3185
   97MOL    H4819440   0.241   2.831   5.189 -1.5795  3.3864 -0.4929
   97MOL    H4919441   0.110   2.984   4.838  0.0319 -0.8855 -2.1823
   97MOL    H5019442   0.185   2.691   4.852  1.8217  0.5850  0.9298
   97MOL    H5119443   0.081   2.749   4.735 -1.8856  1.1477  1.5055
   97MOL    C5219444   0.291   2.781   4.690 -0.4499 -0.4811  0.5156
   97MOL    C5319445   0.286   2.678   4.576 -0.1435  0.5518  0.9581
   97MOL   Cl5419446   0.304   2.757   4.423  0.4293 -0.2166 -0.0333
   97MOL    C5519447   0.264   2.545   4.591 -0.4044 -0.2511 -0.5651
   97MOL    C5619448   0.229   2.437   4.488  0.4151 -0.1662 -0.5953
   97MOL    H5719449   0.304   2.880   4.646  0.1968 -0.3637  0.9776
   97MOL    H5819450   0.381   2.765   4.749 -0.2857 -0.0805  0.3803
   97MOL    H5919451   0.267   2.502   4.690  2.8752  0.9528 -0.0901
   97MOL    H6019452   0.169   2.370   4.551  1.2520 -0.4844 -0.1304
   97MOL    H6119453   0.164   2.477   4.410  0.9982  2.6825  0.3231
   97MOL    C6219454   0.349   2.363   4.434  0.0245  0.5752  0.1153
   97MOL    C6319455   0.468   2.325   4.521  0.7551  0.0903  0.1216
   97MOL   Cl6419456   0.607   2.422   4.483  0.3338  0.3088  0.1690
   97MOL    C6519457   0.470   2.213   4.597 -0.2152  0.2237  0.3094
   97MOL    C6619458   0.584   2.156   4.681 -0.4024  1.1598 -0.1546
   97MOL    H6719459   0.308   2.271   4.391  2.1463  0.9473 -2.8496
   97MOL    H6819460   0.383   2.421   4.348  1.1831  1.9643  1.5045
   97MOL    H6919461   0.381   2.153   4.593  0.1929 -0.2897 -1.5160
   97MOL    H7019462   0.633   2.236   4.735  1.0884 -1.1676  2.0235
   97MOL    H7119463   0.665   2.117   4.619 -0.8534  0.7912 -0.5175
   97MOL    C7219464   0.535   2.049   4.786 -0.9328 -0.6788  0.2371
   97MOL    C7319465   0.637   2.025   4.902  0.0483 -0.5489 -0.0626
   97MOL   Cl7419466   0.673   1.862   4.925  0.3329  0.0057 -0.3890
   97MOL    C7519467   0.679   2.123   4.983  0.4184 -0.1447  0.0814
   97MOL    C7619468   0.771   2.097   5.097 -0.0032 -0.3640 -0.2110
   97MOL    H7719469   0.494   1.959   4.739 -0.5447 -1.3912  1.2375
   97MOL    H7819470   0.457   2.092   4.848  0.1000  0.4399  0.7766
   97MOL    H7919471   0.643   2.222   4.960  0.2319 -0.3649 -0.5925
   97MOL    H8019472   0.875   2.100   5.065 -0.1948  0.5833 -0.7789
   97MOL    H8119473   0.747   1.996   5.129 -1.0789  0.3847  1.4738
   97MOL    C8219474   0.759   2.188   5.220  0.1713  0.0672 -0.2495
   97MOL    C8319475   0.856   2.138   5.328 -0.3424 -0.7711  0.8213
   97MOL   Cl8419476   1.023   2.166   5.287  0.0210 -0.0110 -0.1186
   97MOL    C8519477   0.817   2.088   5.446  0.3961 -0.1907  0.0968
   97MOL    C8619478   0.909   2.045   5.562 -0.2554 -0.0422 -0.4843
   97MOL    H8719479   0.659   2.191   5.262  0.1433 -0.4229 -0.2813
   97MOL    H8819480   0.790   2.293   5.216  2.1223 -0.4169  1.2650
   97MOL    H8919481   0.711   2.074   5.462  0.4891 -1.3737 -0.2738
   97MOL    H9019482   1.016   2.054   5.544 -0.4732  3.0081 -0.3696
   97MOL    H9119483   0.873   2.101   5.648  0.4639  0.1708 -0.3193
   97MOL    C9219484   0.894   1.891   5.587  0.4345  0.4188 -0.4187
   97MOL    C9319485   0.997   1.843   5.693  0.5263  0.2870  0.8904
   97MOL   Cl9419486   1.135   1.794   5.608  0.0154 -0.2029  0.0111
   97MOL    C9519487   0.982   1.823   5.819  0.5019  0.3727  0.3554
   97MOL    C9619488   0.852   1.851   5.893 -0.3089  0.2205  0.4842
   97MOL    H9719489   0.914   1.839   5.493  0.4397 -1.1238  0.4084
   97MOL    H9819490   0.796   1.863   5.624  1.9889 -0.9152  2.9469
   97MOL    H9919491   1.063   1.781   5.877 -1.0852 -1.0230  1.6231
   97MOL   H10019492   0.805   1.937   5.844 -1.1897 -0.0236  0.8976
   97MOL   H10119493   0.789   1.766   5.868  1.2510 -0.6311 -0.6365
   97MOL   C10219494   0.868   1.876   6.043 -0.2558 -0.1772 -0.2991
   97MOL   C10319495   0.734   1.872   6.111 -0.0881  0.5421 -0.1835
   97MOL  Cl10419496   0.715   1.733   6.211 -0.3864  0.0480  0.1781
   97MOL   C10519497   0.649   1.975   6.110 -0.2309  0.1470 -0.8615
   97MOL   C10619498   0.504   1.962   6.157  0.0325  0.0904  0.0227
   97MOL   H10719499   0.925   1.792   6.083  2.2804  2.1460  1.1097
   97MOL   H10819500   0.908   1.972   6.073 -3.0888  1.1380 -0.5481
   97MOL   H10919501   0.667   2.071   6.063 -0.6174 -1.0506 -3.4994
   97MOL   H11019502   0.450   2.022   6.085 -0.5010 -1.1922 -0.6527
   97MOL   H11119503   0.458   1.864   6.165 -1.9374  0.9461 -0.5783
   97MOL   C11219504   0.491   2.021   6.295  0.3860  0.3558  0.0614
   97MOL   C11319505   0.342   2.029   6.332  0.3162 -0.0934  0.5095
   97MOL  Cl11419506   0.260   2.152   6.230  0.1600 -0.3085 -0.0215
   97MOL   C11519507   0.272   1.957   6.422 -0.0931  0.1750  0.2293
   97MOL   C11619508   0.331   1.850   6.520 -0.1184 -0.3338  0.1407
   97MOL   H11719509   0.542   1.949   6.359 -1.5899 -0.1459  1.1140
   97MOL   H11819510   0.533   2.121   6.290 -0.4796  0.6207 -3.3889
   97MOL   H11919511   0.166   1.975   6.418 -0.4788 -1.2631  2.7369
   97MOL   H12019512   0.268   1.852   6.609  1.5912 -1.6067  1.3986
   97MOL   H12119513   0.429   1.880   6.556 -0.2293 -1.2248  1.2028
   97MOL   C12219514   0.340   1.713   6.450  0.7995 -0.6969 -0.4397
   97MOL   C12319515   0.380   1.606   6.547 -0.0694 -0.4155  0.0378
   97MOL  Cl12419516   0.548   1.614   6.580  0.4071 -0.1620  0.0366
   97MOL   C12519517   0.300   1.515   6.607  0.2012 -0.8421  0.1219
   97MOL   C12619518   0.152   1.505   6.580 -0.9891  0.8611  0.0655
   97MOL   H12719519   0.242   1.692   6.406 -0.7232  1.7589  1.6385
   97MOL   H12819520   0.411   1.722   6.368  1.7210 -1.6492  0.2466
   97MOL   H12919521   0.349   1.450   6.678  1.8904 -0.2884 -0.5096
   97MOL   H13019522   0.124   1.526   6.477 -1.9195 -2.0892 -0.3448
   97MOL   H13119523   0.141   1.397   6.590  2.2439  0.5236  0.4668
   97MOL   C13219524   0.063   1.588   6.666  0.7769 -0.7775  0.3809
   97MOL   C13319525   0.069   1.544   6.816 -0.6914  0.4184  0.1562
   97MOL  Cl13419526   8.412   1.390   6.839 -0.1668  0.1673  0.2239
   97MOL   C13519527   0.114   1.616   6.922  0.2947 -0.1858  0.1648
   97MOL   C13619528   0.181   1.749   6.916  0.3696  0.7655 -0.1080
   97MOL   H13719529   0.079   1.695   6.654 -1.8986 -0.5700 -1.8516
   97MOL   H13819530   8.386   1.588   6.620  1.2107 -0.2305 -0.5553
   97MOL   H13919531   0.107   1.573   7.021 -0.4067  0.0463  0.2208
   97MOL   H14019532   0.187   1.787   6.814  0.9234  0.9778  0.0056
   97MOL   H14119533   0.109   1.813   6.969  1.6249  0.9530  1.4002
   97MOL   C14219534   0.319   1.744   6.974 -0.2799  0.4562  0.2453
   97MOL   C14319535   0.402   1.870   6.950  0.1985  0.1165  0.1430
   97MOL  Cl14419536   0.564   1.840   6.895 -0.5327 -0.0092 -0.3891
   97MOL   C14519537   0.361   2.000   6.962  0.0943  0.1428  0.1170
   97MOL   C14619538   0.438   2.128   6.931 -0.5746 -0.3869 -0.3074
   97MOL   H14719539   0.378   1.662   6.934 -0.1298 -0.7214  2.7777
   97MOL   H14819540   0.299   1.749   7.081 -0.3238 -0.5213  0.2918
   97MOL   H14919541   0.263   2.022   7.002  0.5545 -1.5667  2.2619
   97MOL   H15019542   0.543   2.103   6.921 -0.2840  0.2760  1.0103
   97MOL   H15119543   0.383   2.171   6.846  0.5332  2.5344  0.4097
   97MOL   C15219544   0.427   2.231   7.045 -0.6175 -0.3280 -0.1624
   97MOL   C15319545   0.510   2.358   7.037 -0.2814  0.4367  0.3986
   97MOL  Cl15419546   0.467   2.458   7.164 -0.1776  0.0355  0.1522
   97MOL   C15519547   0.589   2.387   6.934 -0.6730 -0.1274  0.4357
   97MOL   C15619548   0.669   2.513   6.916  0.3261 -0.7052 -0.0935
   97MOL   H15719549   0.324   2.248   7.077 -0.3575 -1.5957  1.4291
   97MOL   H15819550   0.460   2.174   7.132  1.9395  0.5079 -0.5568
   97MOL   H15919551   0.603   2.327   6.845  3.2081  2.6305 -0.9571
   97MOL   H16019552   0.760   2.506   6.975  0.6635 -1.5962 -0.7171
   97MOL   H16119553   0.614   2.596   6.962 -0.6418 -0.3803 -1.7530
   97MOL   C16219554   0.697   2.547   6.767  0.2162 -0.3072  0.1241
   97MOL   C16319555   0.806   2.649   6.750  0.1860  0.3596 -0.7448
   97MOL  Cl16419556   0.880   2.624   6.596 -0.3735  0.2959  0.0842
   97MOL   C16519557   0.834   2.746   6.837  0.1942 -0.0333  0.3841
   97MOL   C16619558   0.939   2.853   6.805  0.6907 -0.6649  0.1085
   97MOL   H16719559   0.723   2.453   6.717 -2.9938 -0.4020 -1.4584
   97MOL   H16819560   0.608   2.579   6.714  0.4599 -0.9852 -0.7133
   97MOL   H16919561   0.786   2.757   6.933 -0.9798  0.4050 -0.2472
   97MOL   H17019562   1.034   2.812   6.770  1.1874  1.0200 -0.5979
   97MOL   H17119563   0.908   2.915   6.721 -1.0637 -0.2003  1.0671
   97MOL   C17219564   0.961   2.941   6.936  0.5849 -0.4619  0.9395
   97MOL   C17319565   1.064   3.052   6.896  1.2970 -0.1635 -0.5392
   97MOL  Cl17419566   0.995   3.161   6.777 -0.0266  0.0505 -0.0605
   97MOL   C17519567   1.190   3.055   6.938  0.0050  0.4076  0.3161
   97MOL   C17619568   1.296   3.151   6.885 -0.3334 -0.7612  0.5220
   97MOL   H17719569   1.004   2.897   7.026 -2.4521  0.1143  2.7283
   97MOL   H17819570   0.866   2.978   6.973 -0.7876  0.9110 -3.6965
   97MOL   H17919571   1.218   2.987   7.017 -0.2673  2.1070  1.9132
   97MOL   H18019572   1.270   3.188   6.786  1.1686  0.8691  0.7078
   97MOL   H18119573   1.397   3.112   6.875 -0.0257  0.0759  0.3294
   97MOL   C18219574   1.311   3.277   6.972 -0.2739 -0.2165 -0.0604
   97MOL   C18319575   1.403   3.381   6.929  0.5430 -0.3939 -0.4442
   97MOL  Cl18419576   1.555   3.365   7.007 -0.2428 -0.1039  0.0391
   97MOL   C18519577   1.371   3.470   6.833  0.3320 -0.1427  0.4271
   97MOL   C18619578   1.460   3.584   6.792 -0.1387 -0.3495 -0.0590
   97MOL   H18719579   1.211   3.320   6.972 -0.5704 -0.9065 -1.0440
   97MOL   H18819580   1.324   3.250   7.077  2.3560  0.6186 -0.1408
   97MOL   H18919581   1.273   3.456   6.791  0.4614  0.3796 -0.0592
   97MOL   H19019582   1.559   3.586   6.836 -0.4555 -0.2372  0.6585
   97MOL   H19119583   1.465   3.582   6.683  2.6846  0.8150  0.0155
   97MOL   C19219584   1.405   3.720   6.843  0.2689  0.4395  0.2211
   97MOL   C19319585   1.499   3.837   6.823 -0.7393  0.8960 -0.0136
   97MOL  Cl19419586   1.600   3.863   6.959 -0.6880  0.1954  0.1379
   97MOL   C19519587   1.509   3.915   6.714  0.0919  0.3992  0.1054
   97MOL   C19619588   1.433   3.898   6.585  0.6001 -0.6744 -1.2581
   97MOL   H19719589   1.374   3.719   6.947  0.4837  1.6291  0.3095
   97MOL   H19819590   1.306   3.732   6.800  0.4154 -2.3566 -0.9725
   97MOL   H19919591   1.578   3.998   6.717 -1.0480  1.3422  0.6413
   97MOL   H20019592   1.379   3.988   6.554 -0.3617  0.1090  2.4210
   97MOL   H20119593   1.363   3.815   6.594 -0.6284  0.4451 -0.1629
   97MOL   H20219594   1.507   3.866   6.512  0.3983 -0.9777 -1.3317
   98MOL     C119595   1.935   0.619   1.682  0.1176  0.0549 -0.2772
   98MOL     C219596   2.026   0.627   1.561  0.4819 -0.1024 -0.6343
   98MOL    Cl319597   1.940   0.583   1.417 -0.0265  0.0747  0.3057
   98MOL     C419598   2.158   0.662   1.553  0.1395 -0.6175  1.6676
   98MOL     C519599   2.251   0.718   1.651 -0.0637 -0.6373  0.9315
   98MOL     H619600   1.835   0.585   1.655 -0.0158  0.8478 -0.8128
   98MOL     H719601   1.939   0.719   1.725  0.9914 -0.1710  0.1821
   98MOL     H819602   2.198   0.643   1.455  0.8613  0.2797  1.7810
   98MOL     H919603   2.290   0.817   1.625  0.6420 -1.1882 -0.1393
   98MOL    H1019604   2.181   0.731   1.733  0.2410  0.5364  1.0200
   98MOL    H1119605   1.984   0.559   1.758  0.5099 -1.7411 -1.9158
   98MOL    C1219606   2.369   0.632   1.678 -0.5943  0.1444 -0.2762
   98MOL    C1319607   2.453   0.680   1.797  0.5632  0.6349  0.3069
   98MOL   Cl1419608   2.543   0.822   1.756  0.1522  0.1677  0.4186
   98MOL    C1519609   2.453   0.632   1.920 -1.1306  0.4196  0.3190
   98MOL    C1619610   2.365   0.521   1.963  0.5475  0.6300 -0.4336
   98MOL    H1719611   2.343   0.528   1.697  0.9971 -0.1740  0.2507
   98MOL    H1819612   2.435   0.632   1.591  0.1227 -1.5201  0.2499
   98MOL    H1919613   2.517   0.670   1.998 -0.1697 -1.0663  0.2724
   98MOL    H2019614   2.281   0.502   1.897 -1.0409  0.9719  1.4359
   98MOL    H2119615   2.415   0.426   1.983  1.1086  0.2656 -3.4077
   98MOL    C2219616   2.297   0.551   2.101 -0.1851  0.3951  0.0029
   98MOL    C2319617   2.180   0.459   2.139 -0.2855 -0.4231  0.4045
   98MOL   Cl2419618   2.189   0.304   2.060 -0.2622  0.2432 -0.3443
   98MOL    C2519619   2.082   0.500   2.223  0.1459  0.4307  0.3894
   98MOL    C2619620   1.976   0.407   2.272 -0.0605  1.0031 -0.5394
   98MOL    H2719621   2.381   0.539   2.170 -0.5140  1.1795  0.5416
   98MOL    H2819622   2.267   0.655   2.102  1.0953  0.7882 -1.0960
   98MOL    H2919623   2.088   0.605   2.246  0.7692  0.5005 -0.0718
   98MOL    H3019624   2.013   0.307   2.247 -0.2079  0.7937  0.0611
   98MOL    H3119625   1.979   0.405   2.381 -0.4903  0.0172 -0.5378
   98MOL    C3219626   1.837   0.436   2.218 -0.3567 -0.2298 -0.2616
   98MOL    C3319627   1.817   0.410   2.075  0.8057 -0.4871  0.1414
   98MOL   Cl3419628   1.788   0.551   1.984 -0.2491 -0.1296 -0.1982
   98MOL    C3519629   1.821   0.287   2.015  0.2201 -1.2777  0.1044
   98MOL    C3619630   1.799   0.262   1.866  0.2171 -0.0995 -0.0227
   98MOL    H3719631   1.762   0.374   2.266 -0.6957 -0.4282 -1.0413
   98MOL    H3819632   1.800   0.537   2.241  1.0663  0.1838  0.2661
   98MOL    H3919633   1.845   0.200   2.074  0.8836 -0.5394  0.9428
   98MOL    H4019634   1.721   0.189   1.845  0.1365 -0.8102  2.5547
   98MOL    H4119635   1.760   0.356   1.827 -0.5744 -1.3363 -2.2959
   98MOL    C4219636   1.934   0.207   1.803  0.0532  0.4499 -1.1207
   98MOL    C4319637   1.947   0.230   1.655  0.2313  0.3506 -0.1860
   98MOL   Cl4419638   2.095   0.318   1.623  0.0965 -0.1959 -0.2082
   98MOL    C4519639   1.866   0.200   1.552 -0.0433  0.4366  0.2825
   98MOL    C4619640   1.743   0.121   1.560  0.6644 -0.7545 -0.2678
   98MOL    H4719641   2.017   0.252   1.857 -1.5314  1.9415  0.0851
   98MOL    H4819642   1.937   0.098   1.812 -0.3447  0.4674 -0.8116
   98MOL    H4919643   1.892   0.237   1.454 -0.7581  1.1623  0.3592
   98MOL    H5019644   1.744   0.048   1.479 -0.3788  0.0979 -1.0698
   98MOL    H5119645   1.747   0.059   1.649  1.0555 -0.5954 -0.1774
   98MOL    C5219646   1.613   0.213   1.566  0.8488  0.0038  1.0571
   98MOL    C5319647   1.483   0.131   1.589  0.3104 -0.2227 -0.2510
   98MOL   Cl5419648   1.423   0.170   1.748  0.0029  0.0673  0.1303
   98MOL    C5519649   1.425   0.047   1.499  0.3871 -0.9606 -0.0890
   98MOL    C5619650   1.303   8.382   1.527  0.5261 -0.0446 -0.1056
   98MOL    H5719651   1.624   0.285   1.646 -1.4564  1.0550  0.4705
   98MOL    H5819652   1.602   0.276   1.478  0.0663 -0.5025  0.7893
   98MOL    H5919653   1.470   0.036   1.402 -1.4508 -2.5759 -0.8107
   98MOL    H6019654   1.247   8.412   1.615 -0.5541 -0.7996 -0.5254
   98MOL    H6119655   1.237   8.395   1.442  0.6373 -1.3177 -0.4034
   98MOL    C6219656   1.340   8.232   1.534  0.1516 -0.2650 -0.2715
   98MOL    C6319657   1.226   8.135   1.546  0.1187  0.0650  0.0634
   98MOL   Cl6419658   1.107   8.162   1.428 -0.4694  0.0371 -0.1563
   98MOL    C6519659   1.222   8.025   1.621  0.7507  0.5030  0.4017
   98MOL    C6619660   1.101   7.934   1.641 -0.0143 -0.1166  0.1757
   98MOL    H6719661   1.387   8.209   1.439 -1.0856  1.2481 -1.2644
   98MOL    H6819662   1.411   8.208   1.613 -0.3540 -2.0016 -0.3145
   98MOL    H6919663   1.302   7.996   1.688  0.9445  0.8270  0.3102
   98MOL    H7019664   1.018   7.990   1.599  0.7817  1.1795  0.3025
   98MOL    H7119665   1.073   7.909   1.743 -2.4954 -1.8898 -0.8945
   98MOL    C7219666   1.113   7.804   1.562  0.4269  0.3435  0.2393
   98MOL    C7319667   0.993   7.710   1.578 -0.4192  0.3329 -0.4047
   98MOL   Cl7419668   0.841   7.784   1.605  0.2988 -0.5106  0.2085
   98MOL    C7519669   1.002   7.582   1.540 -0.4610 -0.5470 -0.0591
   98MOL    C7619670   0.893   7.472   1.517 -0.0514 -0.3337  0.0317
   98MOL    H7719671   1.208   7.755   1.579 -0.0059 -0.8703 -0.7387
   98MOL    H7819672   1.111   7.835   1.457  1.9383  1.2269  0.4578
   98MOL    H7919673   1.102   7.546   1.518 -0.4245 -2.1715  2.6166
   98MOL    H8019674   0.891   7.444   1.412  0.2656  1.9956 -0.6287
   98MOL    H8119675   0.802   7.533   1.525  1.1562  1.8195 -1.9922
   98MOL    C8219676   0.892   7.361   1.622 -0.7049 -0.4680 -0.4318
   98MOL    C8319677   0.751   7.300   1.631  0.5013  0.5098 -0.3784
   98MOL   Cl8419678   0.717   7.189   1.504  0.3731  0.2241  0.0278
   98MOL    C8519679   0.663   7.322   1.730 -0.0630  0.0245 -0.3131
   98MOL    C8619680   0.528   7.261   1.753 -0.7453 -0.4984 -0.3697
   98MOL    H8719681   0.918   7.397   1.721 -1.2543 -0.5012 -0.2700
   98MOL    H8819682   0.966   7.288   1.590 -0.4250 -1.5527  2.5284
   98MOL    H8919683   0.682   7.391   1.810 -2.9976  1.3627 -0.7105
   98MOL    H9019684   0.455   7.342   1.748 -1.7108 -1.3883 -0.9231
   98MOL    H9119685   0.491   7.192   1.677 -0.5506 -0.5794 -0.3922
   98MOL    C9219686   0.525   7.187   1.895 -0.3241  0.0814 -0.2349
   98MOL    C9319687   0.382   7.168   1.940  0.2727 -0.1868  0.5435
   98MOL   Cl9419688   0.315   7.031   1.862  0.1927 -0.0450 -0.4178
   98MOL    C9519689   0.312   7.246   2.026 -0.3560 -0.8463  0.4882
   98MOL    C9619690   0.346   7.382   2.099 -0.4452 -0.6266 -0.6184
   98MOL    H9719691   0.579   7.228   1.980 -0.3147 -1.1538  0.3602
   98MOL    H9819692   0.575   7.091   1.905 -0.7856  0.0563  2.1651
   98MOL    H9919693   0.212   7.212   2.049 -1.2246  0.5180 -1.1862
   98MOL   H10019694   0.428   7.436   2.052 -0.7930 -0.6982 -1.3031
   98MOL   H10119695   0.250   7.434   2.099  0.6508  1.4528 -1.9806
   98MOL   C10219696   0.405   7.362   2.244  0.6905 -0.4555 -0.7817
   98MOL   C10319697   0.438   7.486   2.315 -0.4361 -0.1741 -0.3858
   98MOL  Cl10419698   0.293   7.568   2.375 -0.0578 -0.0896 -0.2684
   98MOL   C10519699   0.567   7.529   2.343  0.0174 -0.1461  0.1136
   98MOL   C10619700   0.605   7.658   2.418 -0.0136 -0.1365 -0.3670
   98MOL   H10719701   0.328   7.303   2.295  2.0384 -2.3352 -0.8351
   98MOL   H10819702   0.485   7.288   2.238 -0.8468 -2.5093  2.4782
   98MOL   H10919703   0.650   7.466   2.314  0.3886  0.3791  0.0264
   98MOL   H11019704   0.654   7.722   2.346  1.5763  0.5107  1.2557
   98MOL   H11119705   0.522   7.718   2.455  0.6407  0.5852 -0.0724
   98MOL   C11219706   0.693   7.638   2.542 -0.1836  0.1278  0.3100
   98MOL   C11319707   0.755   7.767   2.588 -0.1098 -0.0110 -0.4171
   98MOL  Cl11419708   0.915   7.771   2.547  0.0668 -0.0252 -0.0744
   98MOL   C11519709   0.693   7.881   2.631 -0.5861 -0.8750  0.0416
   98MOL   C11619710   0.547   7.897   2.655 -0.5454  0.0549  1.1224
   98MOL   H11719711   0.632   7.601   2.624 -1.2021  1.8767  0.3808
   98MOL   H11819712   0.776   7.568   2.533  0.2797  0.5341  1.3086
   98MOL   H11919713   0.745   7.972   2.658  0.4288 -1.8760  1.5514
   98MOL   H12019714   0.540   7.931   2.759 -0.9650  0.6558  0.9033
   98MOL   H12119715   0.505   7.797   2.651 -1.6412  0.6254 -3.4708
   98MOL   C12219716   0.484   7.990   2.545  0.1003 -0.2985 -0.4153
   98MOL   C12319717   0.360   8.067   2.601  0.1797 -0.4182  0.6312
   98MOL  Cl12419718   0.223   8.015   2.512 -0.1199 -0.3150 -0.3470
   98MOL   C12519719   0.361   8.162   2.697  0.0725 -0.0314  0.2663
   98MOL   C12619720   0.486   8.219   2.764 -0.4808 -0.2000 -0.0172
   98MOL   H12719721   0.541   8.073   2.502  0.9407 -0.2613  0.7385
   98MOL   H12819722   0.460   7.918   2.467 -1.1438 -0.6065  0.2431
   98MOL   H12919723   0.269   8.213   2.721  0.6803  0.6258  1.2219
   98MOL   H13019724   0.458   8.239   2.868 -0.8100 -1.1687  0.0856
   98MOL   H13119725   0.562   8.141   2.763  0.1573  0.4166  0.1525
   98MOL   C13219726   0.545   8.336   2.685 -0.6793 -0.2767 -0.1685
   98MOL   C13319727   0.687   8.374   2.730  0.4561 -0.1375  0.1685
   98MOL  Cl13419728   0.691   0.074   2.854 -0.0166 -0.0872 -0.7873
   98MOL   C13519729   0.797   8.338   2.666 -0.2378  0.2331 -0.8727
   98MOL   C13619730   0.813   8.240   2.552  0.6010 -0.0492  0.0480
   98MOL   H13719731   0.552   8.304   2.581  0.6724 -1.4782  0.2650
   98MOL   H13819732   0.478   8.420   2.700 -0.8738 -0.1901 -1.4864
   98MOL   H13919733   0.892   8.378   2.699  1.3962 -3.3285 -1.0174
   98MOL   H14019734   0.728   8.172   2.560 -0.0783  0.7968  0.2027
   98MOL   H14119735   0.796   8.292   2.458 -2.6385 -2.0381 -0.5396
   98MOL   C14219736   0.960   8.183   2.551  1.3508  0.3756  0.5221
   98MOL   C14319737   0.996   8.081   2.444  0.1753 -0.3879  1.0133
   98MOL  Cl14419738   0.870   8.048   2.332  0.2141 -0.1826 -0.2194
   98MOL   C14519739   1.111   8.016   2.433  0.0198 -0.3551  0.1154
   98MOL   C14619740   1.144   7.906   2.335 -0.2481 -0.1742 -0.2558
   98MOL   H14719741   0.992   8.137   2.645 -1.4403 -0.4807  1.1052
   98MOL   H14819742   1.024   8.269   2.536  0.4753  1.2626  1.7931
   98MOL   H14919743   1.192   8.033   2.503 -0.2151  0.9040  0.0859
   98MOL   H15019744   1.203   7.839   2.397  1.7309  1.3343 -0.4792
   98MOL   H15119745   1.072   7.850   2.275 -0.8495  0.2521  0.0617
   98MOL   C15219746   1.249   7.970   2.239 -0.6086  0.1951  0.1943
   98MOL   C15319747   1.317   7.868   2.158  0.3795 -1.1992  0.2619
   98MOL  Cl15419748   1.456   7.801   2.234 -0.1117  0.3158 -0.0316
   98MOL   C15519749   1.269   7.840   2.037  0.3684  0.7282  0.3818
   98MOL   C15619750   1.315   7.734   1.936  0.0704 -0.2256  0.7066
   98MOL   H15719751   1.202   8.039   2.170 -0.1980 -1.7488 -2.0849
   98MOL   H15819752   1.323   8.031   2.292 -0.4751  0.5094 -0.3513
   98MOL   H15919753   1.178   7.891   2.009 -0.2498  0.0125  1.0650
   98MOL   H16019754   1.407   7.691   1.975  2.0769  2.2145 -1.2863
   98MOL   H16119755   1.345   7.781   1.843 -0.5820 -1.3414 -0.0898
   98MOL   C16219756   1.205   7.631   1.911  0.2139  1.0190 -0.3643
   98MOL   C16319757   1.264   7.505   1.864  0.1690  0.3700  0.1207
   98MOL  Cl16419758   1.336   7.523   1.704  0.1791  0.0146 -0.3225
   98MOL   C16519759   1.223   7.387   1.919 -0.3958 -0.3483  0.2247
   98MOL   C16619760   1.257   7.250   1.868  0.0553 -0.2585  0.1268
   98MOL   H16719761   1.135   7.622   1.994 -1.1347 -1.6978 -1.7545
   98MOL   H16819762   1.134   7.660   1.833 -1.1051 -1.2128 -0.0288
   98MOL   H16919763   1.154   7.376   2.002 -1.0264 -0.8012 -0.3632
   98MOL   H17019764   1.329   7.251   1.786  1.6139 -0.9979  1.4713
   98MOL   H17119765   1.308   7.210   1.955 -0.9497  1.7079  1.6702
   98MOL   C17219766   1.132   7.165   1.834 -0.1843  0.1667  0.2660
   98MOL   C17319767   1.174   7.024   1.795 -0.4326  0.2339 -0.0299
   98MOL  Cl17419768   1.245   6.927   1.921  0.2955  0.0924 -0.4297
   98MOL   C17519769   1.157   6.980   1.670  0.1020  0.0137 -0.2411
   98MOL   C17619770   1.218   6.853   1.616  0.4045 -0.3943  0.8768
   98MOL   H17719771   1.083   7.220   1.754 -0.4386 -1.7069 -0.8835
   98MOL   H17819772   1.067   7.149   1.920 -2.4253  1.4305 -1.1589
   98MOL   H17919773   1.105   7.043   1.599  1.1318  1.1990  0.0365
   98MOL   H18019774   1.168   6.765   1.658 -1.3970  0.5420  0.7362
   98MOL   H18119775   1.326   6.851   1.632  0.7844  0.4903 -1.3087
   98MOL   C18219776   1.197   6.852   1.457  0.8934  0.1763 -0.3090
   98MOL   C18319777   1.206   6.721   1.385  0.4883  0.2965  0.2190
   98MOL  Cl18419778   1.364   6.649   1.391  0.2221  0.1930  0.2716
   98MOL   C18519779   1.103   6.667   1.313  0.4592 -0.3242 -0.9171
   98MOL   C18619780   1.114   6.547   1.232 -0.2341 -0.5749 -0.0979
   98MOL   H18719781   1.099   6.897   1.442  1.3076  1.7637  1.4396
   98MOL   H18819782   1.277   6.918   1.423 -0.1025  0.8556 -1.3839
   98MOL   H18919783   1.005   6.710   1.304 -0.5285 -2.4143 -0.4254
   98MOL   H19019784   1.078   6.587   1.137 -1.1741  1.2677  1.0019
   98MOL   H19119785   1.219   6.520   1.219  0.2152  0.5717  0.9968
   98MOL   C19219786   1.040   6.425   1.295  0.5057 -0.5595  0.5630
   98MOL   C19319787   1.059   6.295   1.218 -0.3669 -0.1860 -0.4292
   98MOL  Cl19419788   1.171   6.192   1.304  0.0349 -0.0886 -0.3278
   98MOL   C19519789   0.992   6.258   1.108  0.2054 -0.2485 -0.7813
   98MOL   C19619790   0.886   6.344   1.036 -0.0229  0.1572  0.0500
   98MOL   H19719791   0.937   6.459   1.287  1.1858  1.4911  0.3332
   98MOL   H19819792   1.057   6.394   1.399  0.4940 -1.1975  0.3774
   98MOL   H19919793   1.009   6.160   1.065 -0.3309 -1.8484  2.4947
   98MOL   H20019794   0.904   6.349   0.928  1.9690  1.7908  0.4183
   98MOL   H20119795   0.893   6.450   1.059 -0.7805  0.6104 -1.7056
   98MOL   H20219796   0.787   6.310   1.065 -0.9136  1.0955 -1.7894
   99MOL     C119797   4.246   5.501   3.512  0.1671 -0.1592  0.2690
   99MOL     C219798   4.094   5.504   3.545  0.1589  0.6057  0.3326
   99MOL    Cl319799   4.044   5.362   3.637 -0.0922 -0.1757  0.0080
   99MOL     C419800   4.013   5.601   3.501  0.2524  0.2973  0.4838
   99MOL     C519801   4.051   5.724   3.426 -0.0161 -0.5949 -0.6082
   99MOL     H619802   4.313   5.568   3.566  0.7308 -1.1299  0.8006
   99MOL     H719803   4.265   5.519   3.406  2.4374  1.1872  0.8637
   99MOL     H819804   3.908   5.581   3.517  0.2257 -2.1408 -2.3133
   99MOL     H919805   4.014   5.817   3.470 -2.1948 -1.1092 -1.2827
   99MOL    H1019806   4.160   5.726   3.420 -0.0672  0.8654 -1.5465
   99MOL    H1119807   4.289   5.403   3.532  1.2018  0.4095  0.8586
   99MOL    C1219808   4.004   5.723   3.281 -0.1940 -0.0303  0.4984
   99MOL    C1319809   4.041   5.851   3.200 -0.4806  0.2719  0.4417
   99MOL   Cl1419810   4.153   5.953   3.280  0.2480  0.0259  0.0790
   99MOL    C1519811   3.975   5.888   3.091  0.1839  0.0266  0.1761
   99MOL    C1619812   3.868   5.815   3.009 -0.6971 -0.1799 -0.4799
   99MOL    H1719813   4.052   5.637   3.234 -1.7621 -0.7418  0.1654
   99MOL    H1819814   3.899   5.694   3.272  0.6574 -3.2548  0.2877
   99MOL    H1919815   4.007   5.982   3.048 -1.1323  0.5068  0.2306
   99MOL    H2019816   3.879   5.708   3.024  0.2623  0.3871  3.2472
   99MOL    H2119817   3.770   5.846   3.045  0.1778  0.4311  1.4185
   99MOL    C2219818   3.900   5.849   2.864 -1.0155 -0.5457  0.3057
   99MOL    C2319819   3.824   5.773   2.763  0.2111  0.5351  0.2864
   99MOL   Cl2419820   3.933   5.679   2.662 -0.2237  0.0342  0.0470
   99MOL    C2519821   3.691   5.767   2.749 -0.3685 -0.2503 -0.5556
   99MOL    C2619822   3.616   5.679   2.648  0.2251  0.1673 -0.0417
   99MOL    H2719823   3.880   5.955   2.849 -1.7454 -0.0188  4.4292
   99MOL    H2819824   4.008   5.839   2.850 -0.7449 -1.0768  2.6244
   99MOL    H2919825   3.628   5.835   2.806  0.2876 -1.1018  1.2369
   99MOL    H3019826   3.611   5.731   2.552  1.8947  2.8396  1.2359
   99MOL    H3119827   3.672   5.589   2.625  1.6167  1.2556 -0.9896
   99MOL    C3219828   3.475   5.634   2.682 -0.0672  0.4290 -0.0500
   99MOL    C3319829   3.422   5.528   2.590  0.4900  0.0779 -0.2295
   99MOL   Cl3419830   3.343   5.407   2.676 -0.2724 -0.0322  0.0058
   99MOL    C3519831   3.440   5.525   2.458 -0.0354 -0.2506  0.3060
   99MOL    C3619832   3.390   5.416   2.362 -0.6462 -0.5299 -0.9061
   99MOL    H3719833   3.487   5.602   2.786  1.5723 -1.8594 -0.8831
   99MOL    H3819834   3.410   5.719   2.667  1.6260  2.0195  1.4045
   99MOL    H3919835   3.496   5.595   2.398 -2.3074  1.3230 -0.0545
   99MOL    H4019836   3.297   5.383   2.407  0.1166 -2.4463 -0.7108
   99MOL    H4119837   3.380   5.452   2.259 -1.4601  0.6205 -0.4356
   99MOL    C4219838   3.491   5.303   2.352 -0.6671 -0.1392  0.1263
   99MOL    C4319839   3.457   5.189   2.262  0.3778 -0.0873  0.2389
   99MOL   Cl4419840   3.514   5.194   2.100  0.0479  0.4777  0.1796
   99MOL    C4519841   3.377   5.083   2.296 -0.4361  0.2265 -0.3988
   99MOL    C4619842   3.307   5.056   2.433  0.0659 -0.1607 -0.3515
   99MOL    H4719843   3.585   5.338   2.308 -1.4340  0.2934 -1.2108
   99MOL    H4819844   3.500   5.248   2.445  1.4334 -0.0238  0.0254
   99MOL    H4919845   3.357   5.006   2.223 -2.3999  2.1322 -1.9498
   99MOL    H5019846   3.339   4.956   2.461 -1.0193 -0.6067 -0.6934
   99MOL    H5119847   3.333   5.129   2.510  1.6162 -0.4215 -0.6036
   99MOL    C5219848   3.149   5.064   2.421 -1.1842  0.3473 -0.6396
   99MOL    C5319849   3.077   5.053   2.556 -0.4117  0.1964 -0.0763
   99MOL   Cl5419850   3.108   4.901   2.627  0.2811  0.1978 -0.1242
   99MOL    C5519851   3.004   5.145   2.611  0.3394 -0.1336 -0.6866
   99MOL    C5619852   2.936   5.140   2.750 -0.1508 -0.8496  0.3580
   99MOL    H5719853   3.127   5.163   2.381  1.0967  1.1245 -0.1046
   99MOL    H5819854   3.110   4.982   2.362 -1.2798  0.5603 -0.8745
   99MOL    H5919855   2.993   5.232   2.548 -1.7744  0.4060  0.3711
   99MOL    H6019856   2.974   5.058   2.812 -0.6403 -1.3284  0.0364
   99MOL    H6119857   2.964   5.221   2.816 -1.5274 -0.1742  0.1161
   99MOL    C6219858   2.781   5.123   2.750 -0.1474  0.1076 -0.8081
   99MOL    C6319859   2.706   5.239   2.699 -0.0763 -0.3669 -0.7628
   99MOL   Cl6419860   2.760   5.389   2.770 -0.2432  0.0578 -0.1065
   99MOL    C6519861   2.606   5.236   2.608 -0.5764  0.5861  0.0762
   99MOL    C6619862   2.544   5.355   2.535 -0.1637  0.1977 -0.2217
   99MOL    H6719863   2.755   5.024   2.712  0.2389 -0.5743  0.6865
   99MOL    H6819864   2.765   5.130   2.857  1.6678  0.5227 -0.5385
   99MOL    H6919865   2.573   5.138   2.574 -0.7723  0.6990 -0.0651
   99MOL    H7019866   2.571   5.446   2.588  1.8632  0.3311 -1.4179
   99MOL    H7119867   2.436   5.347   2.530 -0.0782 -1.4245  0.3217
   99MOL    C7219868   2.607   5.381   2.393  0.1114  0.0187 -0.3812
   99MOL    C7319869   2.503   5.462   2.317  0.3784  0.2171  0.0773
   99MOL   Cl7419870   2.406   5.360   2.219 -0.0422  0.0111 -0.1818
   99MOL    C7519871   2.497   5.595   2.313 -0.2898 -0.4470  0.1945
   99MOL    C7619872   2.395   5.671   2.235 -0.7153  0.1386  0.2587
   99MOL    H7719873   2.628   5.285   2.345  1.0158  0.1511 -0.2606
   99MOL    H7819874   2.701   5.435   2.402 -0.4616  0.9643 -0.0295
   99MOL    H7919875   2.566   5.654   2.371 -0.5125 -0.3638  0.3719
   99MOL    H8019876   2.342   5.735   2.305  0.2360  0.5500  0.6027
   99MOL    H8119877   2.313   5.608   2.199 -1.3072 -0.4849  2.6357
   99MOL    C8219878   2.457   5.754   2.121 -0.0302 -0.0313 -0.2628
   99MOL    C8319879   2.352   5.829   2.037  0.6480  0.0589 -0.2168
   99MOL   Cl8419880   2.360   5.997   2.026 -0.2103 -0.3960 -0.0672
   99MOL    C8519881   2.259   5.758   1.967  0.6761  0.2511 -0.5443
   99MOL    C8619882   2.165   5.813   1.863  0.2903 -0.7511 -0.4668
   99MOL    H8719883   2.511   5.696   2.047 -0.4084  0.8311 -1.2257
   99MOL    H8819884   2.524   5.826   2.168 -0.6102  1.1205 -1.1597
   99MOL    H8919885   2.263   5.651   1.984 -2.3643  0.4105  1.6726
   99MOL    H9019886   2.062   5.784   1.885  1.1423 -0.6293  4.1194
   99MOL    H9119887   2.176   5.921   1.869  2.3070 -1.0111  1.3359
   99MOL    C9219888   2.202   5.774   1.718  0.1090 -0.4069 -0.2021
   99MOL    C9319889   2.106   5.840   1.623  0.3813  0.6480  0.0884
   99MOL   Cl9419890   1.956   5.747   1.611  0.1355 -0.6240 -0.0779
   99MOL    C9519891   2.138   5.946   1.545 -0.5414  0.6184  0.4319
   99MOL    C9619892   2.274   6.016   1.550 -0.7098 -0.2337  0.0105
   99MOL    H9719893   2.189   5.666   1.709  0.2567 -0.3766 -0.7960
   99MOL    H9819894   2.307   5.797   1.700  0.8279 -2.2834  1.3919
   99MOL    H9919895   2.074   5.978   1.464  0.5906  1.4382 -0.1528
   99MOL   H10019896   2.258   6.124   1.556 -0.1698 -0.1128 -0.6691
   99MOL   H10119897   2.318   6.001   1.648 -2.6503 -0.8785  0.8121
   99MOL   C10219898   2.375   5.974   1.440  0.0155  0.5462 -0.1189
   99MOL   C10319899   2.328   6.015   1.297 -0.5268  0.6307  0.1305
   99MOL  Cl10419900   2.316   5.876   1.192  0.0864 -0.3313  0.3941
   99MOL   C10519901   2.309   6.139   1.253 -0.0232 -0.2532  0.1702
   99MOL   C10619902   2.266   6.173   1.115  0.0733  0.3648 -0.0169
   99MOL   H10719903   2.474   6.011   1.466 -0.1464  0.1319  1.1147
   99MOL   H10819904   2.395   5.867   1.444 -1.9596  0.1750  0.7228
   99MOL   H10919905   2.324   6.226   1.316 -2.5036 -0.1589  0.6907
   99MOL   H11019906   2.348   6.218   1.059  0.6336 -3.2603 -2.2923
   99MOL   H11119907   2.232   6.083   1.064 -0.8670  0.5546  0.2729
   99MOL   C11219908   2.143   6.267   1.118 -0.4648  0.1699 -0.2596
   99MOL   C11319909   2.102   6.308   0.983 -0.8720 -0.0020 -0.0734
   99MOL  Cl11419910   1.970   6.212   0.916 -0.0078  0.0449  0.2015
   99MOL   C11519911   2.141   6.416   0.913  0.0339  0.4343 -0.5670
   99MOL   C11619912   2.251   6.517   0.943 -0.6993 -0.5750  0.4022
   99MOL   H11719913   2.060   6.219   1.171 -0.2502 -1.7129 -1.5608
   99MOL   H11819914   2.162   6.362   1.168  1.9631 -0.2866 -0.2626
   99MOL   H11919915   2.094   6.430   0.817  0.0638 -0.0495 -0.6551
   99MOL   H12019916   2.315   6.515   0.855  0.2165 -0.8848  1.0563
   99MOL   H12119917   2.303   6.486   1.034  0.7275  0.0364 -0.1974
   99MOL   C12219918   2.196   6.659   0.974 -0.1668 -0.3697 -0.8302
   99MOL   C12319919   2.301   6.774   0.959 -0.7216  0.1316 -0.7201
   99MOL  Cl12419920   2.467   6.732   0.965  0.0995  0.1151 -0.3689
   99MOL   C12519921   2.264   6.901   0.941  0.1000 -0.4407  0.6078
   99MOL   C12619922   2.124   6.951   0.935 -0.7962  0.2261  0.1378
   99MOL   H12719923   2.123   6.673   0.894  0.9737  0.9053 -1.6740
   99MOL   H12819924   2.141   6.659   1.067  1.8494 -0.9904  0.4014
   99MOL   H12919925   2.342   6.976   0.934 -0.0797 -0.4744 -2.6973
   99MOL   H13019926   2.114   6.997   0.836  0.6199 -0.3320 -0.2787
   99MOL   H13119927   2.048   6.872   0.939  0.0753 -0.6796 -0.8558
   99MOL   C13219928   2.093   7.042   1.043  0.5308  0.3700 -0.3954
   99MOL   C13319929   1.943   7.074   1.049  0.2442 -0.2784  0.1499
   99MOL  Cl13419930   1.907   7.236   0.997  0.3554 -0.1900 -0.2190
   99MOL   C13519931   1.849   6.994   1.097 -0.4664  0.4458 -0.4304
   99MOL   C13619932   1.867   6.852   1.158 -0.6934 -0.1071 -0.0378
   99MOL   H13719933   2.124   7.000   1.138 -0.7310 -0.1791 -0.2078
   99MOL   H13819934   2.149   7.134   1.030  0.9028  0.2534  0.3586
   99MOL   H13919935   1.749   7.033   1.095 -0.2211  1.0838 -0.3705
   99MOL   H14019936   1.971   6.826   1.174 -0.3195  0.9091 -0.7608
   99MOL   H14119937   1.822   6.880   1.253  1.7605  0.1398  1.0944
   99MOL   C14219938   1.787   6.744   1.080 -0.1386  0.3621 -0.4434
   99MOL   C14319939   1.762   6.619   1.159  0.0563  0.6170 -0.5273
   99MOL  Cl14419940   1.847   6.485   1.094 -0.1741 -0.2060  0.0399
   99MOL   C14519941   1.693   6.614   1.271 -0.7241  0.2963 -0.3182
   99MOL   C14619942   1.672   6.487   1.363  0.0980  0.1497 -0.6415
   99MOL   H14719943   1.846   6.714   0.992  0.6508  0.1606  0.1475
   99MOL   H14819944   1.692   6.778   1.039 -0.3102  0.6345  0.1822
   99MOL   H14919945   1.637   6.698   1.308 -0.9323 -1.2292  2.9702
   99MOL   H15019946   1.570   6.476   1.400  0.1108  0.6834 -0.4343
   99MOL   H15119947   1.684   6.396   1.306  1.5898  0.8732 -1.5043
   99MOL   C15219948   1.760   6.496   1.479  0.4219  0.5759  0.6203
   99MOL   C15319949   1.906   6.468   1.440  0.6668  0.3154 -0.3037
   99MOL  Cl15419950   1.946   6.295   1.445  0.2783 -0.1570 -0.0259
   99MOL   C15519951   1.992   6.562   1.418 -0.4729  0.1334  0.6325
   99MOL   C15619952   2.134   6.545   1.386 -0.1524 -0.3346 -0.6488
   99MOL   H15719953   1.758   6.594   1.527 -1.6556  1.5738 -1.3698
   99MOL   H15819954   1.737   6.432   1.564 -0.0664  2.1217  1.6868
   99MOL   H15919955   1.951   6.662   1.427 -0.4807  0.0371  1.8105
   99MOL   H16019956   2.135   6.557   1.278  1.5674 -0.3805 -0.6535
   99MOL   H16119957   2.160   6.442   1.412  1.5586  0.1599 -0.3259
   99MOL   C16219958   2.226   6.642   1.455  0.0556  0.1519 -0.1609
   99MOL   C16319959   2.362   6.648   1.383  0.3230  0.0999 -0.0100
   99MOL  Cl16419960   2.382   6.797   1.280  0.4075  0.2833  0.1494
   99MOL   C16519961   2.449   6.548   1.392  0.1575  0.0883 -0.1227
   99MOL   C16619962   2.576   6.541   1.314 -0.0445  0.9573 -0.5614
   99MOL   H16719963   2.188   6.743   1.438  0.3665  0.5338  1.3388
   99MOL   H16819964   2.243   6.612   1.559 -1.8824  0.6218  0.3109
   99MOL   H16919965   2.424   6.469   1.461 -3.7465  1.8152  0.5477
   99MOL   H17019966   2.591   6.625   1.246  0.6429 -0.4640 -2.2057
   99MOL   H17119967   2.659   6.561   1.383  0.2026 -0.7131 -0.3480
   99MOL   C17219968   2.592   6.410   1.242  0.9338 -0.1077  0.0454
   99MOL   C17319969   2.735   6.389   1.221 -0.0297 -0.1601 -0.4575
   99MOL  Cl17419970   2.824   6.359   1.359 -0.0989  0.1663 -0.2837
   99MOL   C17519971   2.799   6.397   1.102 -0.1733  0.0132  0.2910
   99MOL   C17619972   2.947   6.394   1.079 -0.2335 -0.0609 -0.2726
   99MOL   H17719973   2.541   6.417   1.146 -0.0238  1.1279  0.6278
   99MOL   H17819974   2.543   6.320   1.281  1.3021 -0.1603  0.3800
   99MOL   H17919975   2.732   6.404   1.018 -2.1085  0.5655  1.8496
   99MOL   H18019976   2.959   6.292   1.041 -0.7241 -0.9578  1.9082
   99MOL   H18119977   2.996   6.414   1.174  1.7892 -2.1079 -0.8199
   99MOL   C18219978   2.976   6.490   0.964 -0.6994 -0.3015 -0.4834
   99MOL   C18319979   3.127   6.508   0.946  0.8500  0.1631  0.3529
   99MOL  Cl18419980   3.175   6.505   0.777  0.0684  0.2483  0.0063
   99MOL   C18519981   3.208   6.524   1.048 -0.3829  0.6695 -0.3073
   99MOL   C18619982   3.355   6.536   1.036 -0.3343 -1.0998  0.1643
   99MOL   H18719983   2.943   6.452   0.867 -1.5170  1.9608 -1.1134
   99MOL   H18819984   2.928   6.587   0.979 -1.7504 -1.0366  1.0804
   99MOL   H18919985   3.171   6.517   1.150 -1.4890  0.3038 -0.7237
   99MOL   H19019986   3.390   6.555   0.935  1.6718  0.0088  1.0446
   99MOL   H19119987   3.392   6.628   1.081  2.2525 -1.4823 -1.1022
   99MOL   C19219988   3.432   6.417   1.092  1.0376 -0.1452 -0.5056
   99MOL   C19319989   3.580   6.432   1.061  0.2412  0.5788  0.4819
   99MOL  Cl19419990   3.673   6.479   1.194  0.0832  0.0206 -0.0306
   99MOL   C19519991   3.644   6.404   0.946  0.7491 -0.2120  0.5750
   99MOL   C19619992   3.574   6.349   0.823 -0.1014  0.9975 -0.1186
   99MOL   H19719993   3.405   6.318   1.055  0.0895 -1.3546  3.2803
   99MOL   H19819994   3.417   6.410   1.199 -0.3934 -0.5167 -0.7187
   99MOL   H19919995   3.750   6.418   0.933  0.3715  2.2740 -0.1272
   99MOL   H20019996   3.468   6.371   0.823 -0.1109  0.9525 -0.0663
   99MOL   H20119997   3.582   6.240   0.818 -0.5255  0.9291  0.6201
   99MOL   H20219998   3.607   6.398   0.731 -1.5258  2.9077  0.3790
  100MOL     C119999   6.002   2.410   6.719 -0.3619  0.3803 -0.1348
  100MOL     C220000   6.106   2.367   6.819 -0.2207 -0.2504  0.3650
  100MOL    Cl320001   6.264   2.398   6.757  0.1274  0.1944  0.1203
  100MOL     C420002   6.095   2.321   6.945  0.3897  0.4435  0.5687
  100MOL     C520003   5.965   2.320   7.027  0.4147  0.1820  0.3392
  100MOL     H620004   6.043   2.497   6.667  0.5783  1.1520  1.8624
  100MOL     H720005   5.913   2.447   6.771  0.5175 -0.6948  2.1638
  100MOL     H820006   6.186   2.285   6.991 -0.0443 -1.0954  0.2800
  100MOL     H920007   5.875   2.310   6.966 -0.0766 -1.6592  1.3239
  100MOL    H1020008   5.966   2.253   7.113  0.1796 -0.2626  0.0003
  100MOL    H1120009   5.985   2.333   6.644 -1.4202  1.2836 -0.8440
  100MOL    C1220010   5.952   2.453   7.104  0.4588  0.3628 -0.2964
  100MOL    C1320011   5.905   2.571   7.029  0.1513  0.0869 -0.0232
  100MOL   Cl1420012   6.036   2.667   6.967  0.0786 -0.3276  0.2807
  100MOL    C1520013   5.779   2.610   6.997  0.1588  0.1411 -0.7358
  100MOL    C1620014   5.651   2.534   7.029  0.2062  0.7032  0.4636
  100MOL    H1720015   5.891   2.449   7.194 -1.4056  1.4532 -1.4793
  100MOL    H1820016   6.051   2.471   7.145  1.6847 -2.6204 -1.7743
  100MOL    H1920017   5.777   2.707   6.949  2.9031  1.2026  1.1585
  100MOL    H2020018   5.680   2.451   7.094 -1.3992  0.2806  0.6597
  100MOL    H2120019   5.581   2.598   7.082 -0.5071  0.2912  0.0273
  100MOL    C2220020   5.594   2.482   6.904  0.3445  0.2371  0.8074
  100MOL    C2320021   5.529   2.587   6.814 -0.6051 -0.2780  0.7385
  100MOL   Cl2420022   5.378   2.623   6.873 -0.1527  0.1829  0.6337
  100MOL    C2520023   5.595   2.651   6.718 -0.4846  0.0242  0.0733
  100MOL    C2620024   5.558   2.768   6.632  0.0567  0.2864  0.3207
  100MOL    H2720025   5.660   2.422   6.841 -0.1228 -0.4939  1.0016
  100MOL    H2820026   5.507   2.427   6.942 -1.1337  2.0576  0.1599
  100MOL    H2920027   5.693   2.613   6.695 -0.1801  1.3601 -0.8692
  100MOL    H3020028   5.555   2.740   6.527 -0.5751 -1.1846  0.7274
  100MOL    H3120029   5.464   2.805   6.672 -0.9483  1.2995 -2.8874
  100MOL    C3220030   5.677   2.872   6.638  0.6327 -0.3746  0.3072
  100MOL    C3320031   5.633   3.012   6.584 -0.2754 -0.1743 -0.3742
  100MOL   Cl3420032   5.720   3.064   6.437 -0.1168  0.4012 -0.0021
  100MOL    C3520033   5.562   3.095   6.662  0.1811  0.5283 -0.1212
  100MOL    C3620034   5.533   3.240   6.631 -0.7972 -0.1985  0.8559
  100MOL    H3720035   5.701   2.880   6.744  2.2033  0.1225 -0.0746
  100MOL    H3820036   5.771   2.843   6.591  1.0165  2.0711 -0.5216
  100MOL    H3920037   5.520   3.068   6.758 -0.1791  1.8243  0.0946
  100MOL    H4020038   5.584   3.262   6.538 -1.1304 -0.2554  0.6593
  100MOL    H4120039   5.429   3.262   6.608 -0.7074  0.9651  1.5051
  100MOL    C4220040   5.592   3.343   6.736  0.1919 -0.2585  0.4942
  100MOL    C4320041   5.569   3.494   6.702 -0.3215 -0.0491 -0.2877
  100MOL   Cl4420042   5.718   3.584   6.688  0.0442  0.7175 -0.0274
  100MOL    C4520043   5.449   3.556   6.695 -0.0839 -0.3589  0.1835
  100MOL    C4620044   5.313   3.486   6.704 -0.3263  0.4452 -0.1057
  100MOL    H4720045   5.547   3.320   6.833 -1.1698  0.3233  0.0128
  100MOL    H4820046   5.699   3.327   6.753 -0.0183  0.4008  2.5014
  100MOL    H4920047   5.457   3.661   6.674 -0.7176 -0.7684 -2.2670
  100MOL    H5020048   5.315   3.381   6.730  1.7578 -0.1581 -2.5623
  100MOL    H5120049   5.262   3.533   6.788 -1.9835 -0.6003 -0.4998
  100MOL    C5220050   5.233   3.503   6.575  0.3370 -0.2749  0.0574
  100MOL    C5320051   5.096   3.439   6.577  0.1211  1.4083  0.0346
  100MOL   Cl5420052   5.017   3.448   6.738  0.0837  0.2542  0.1626
  100MOL    C5520053   5.048   3.362   6.479 -0.3630 -0.6793 -0.4987
  100MOL    C5620054   4.921   3.278   6.493  0.4778  0.3616 -0.2575
  100MOL    H5720055   5.223   3.610   6.557  3.0812  0.2670  1.4591
  100MOL    H5820056   5.288   3.462   6.491  0.2169 -0.7642  0.2103
  100MOL    H5920057   5.101   3.364   6.385  0.8476  0.8885  0.2033
  100MOL    H6020058   4.965   3.180   6.515 -0.2546 -0.1258 -0.9119
  100MOL    H6120059   4.850   3.302   6.572 -0.4864  3.9163 -2.1136
  100MOL    C6220060   4.841   3.277   6.362  0.2487  0.4282  0.3998
  100MOL    C6320061   4.719   3.186   6.372  0.6123 -0.4452 -0.4044
  100MOL   Cl6420062   4.742   3.023   6.406  0.1114 -0.1501  0.4458
  100MOL    C6520063   4.595   3.239   6.364  1.2554 -0.1303  0.8203
  100MOL    C6620064   4.462   3.180   6.380 -0.1018  0.8811  0.0384
  100MOL    H6720065   4.816   3.379   6.335 -0.2431  0.2547  0.1885
  100MOL    H6820066   4.904   3.238   6.282 -0.5293  0.1805 -0.0926
  100MOL    H6920067   4.592   3.347   6.356  3.1236 -0.0761  0.6993
  100MOL    H7020068   4.424   3.208   6.478 -0.3206  1.9706 -0.3528
  100MOL    H7120069   4.471   3.073   6.397  0.8487  1.2348  1.8537
  100MOL    C7220070   4.385   3.198   6.250  0.6918 -0.3275  0.3633
  100MOL    C7320071   4.233   3.178   6.259 -0.4863 -0.0399 -0.1787
  100MOL   Cl7420072   4.176   3.104   6.116  0.1960 -0.3321  0.4920
  100MOL    C7520073   4.155   3.226   6.348  0.2082  0.3895  0.0796
  100MOL    C7620074   4.005   3.212   6.356 -0.2424  0.5095  0.9627
  100MOL    H7720075   4.429   3.137   6.171  0.6785 -0.1334  0.2037
  100MOL    H7820076   4.385   3.302   6.215 -0.5993 -1.2032 -2.3647
  100MOL    H7920077   4.198   3.291   6.424  1.3464  0.7276 -0.8381
  100MOL    H8020078   3.972   3.140   6.280  0.9400  0.3793  0.5491
  100MOL    H8120079   3.959   3.306   6.328 -0.2633  0.6967  1.6324
  100MOL    C8220080   3.957   3.163   6.488 -0.3106  0.1141 -0.3061
  100MOL    C8320081   3.807   3.152   6.503 -0.7521  0.0608  0.1951
  100MOL   Cl8420082   3.758   3.008   6.414 -0.2197 -0.0907  0.1552
  100MOL    C8520083   3.730   3.231   6.577  0.5755  0.3743 -0.4190
  100MOL    C8620084   3.586   3.218   6.591 -0.5082 -0.4328 -0.1484
  100MOL    H8720085   3.992   3.226   6.571 -0.1221  0.3468 -0.5618
  100MOL    H8820086   3.990   3.061   6.508 -0.8591 -0.4967 -2.4809
  100MOL    H8920087   3.779   3.310   6.632 -0.1668  0.3702  0.2556
  100MOL    H9020088   3.536   3.291   6.528 -0.2187  1.4133  1.7134
  100MOL    H9120089   3.551   3.123   6.551 -0.1430  0.4091 -2.5593
  100MOL    C9220090   3.533   3.224   6.735 -0.2075  0.5342  0.4943
  100MOL    C9320091   3.388   3.255   6.749  0.8049 -0.2808  0.0803
  100MOL   Cl9420092   3.362   3.421   6.791 -0.1273 -0.0842  0.3318
  100MOL    C9520093   3.288   3.168   6.738  0.2703  0.4897 -0.7734
  100MOL    C9620094   3.293   3.023   6.717  0.5130 -0.0212  0.4033
  100MOL    H9720095   3.586   3.304   6.787  0.3764  0.1463  0.5050
  100MOL    H9820096   3.557   3.133   6.792 -0.7371 -0.0188 -0.1573
  100MOL    H9920097   3.187   3.206   6.741  0.4835  1.0251 -0.2191
  100MOL   H10020098   3.271   2.998   6.614 -0.0161 -0.5137  0.6371
  100MOL   H10120099   3.396   2.992   6.737  0.3316 -0.2866  0.9380
  100MOL   C10220100   3.203   2.949   6.815  0.1015 -0.1633 -0.2051
  100MOL   C10320101   3.198   2.797   6.787  0.9121  0.1276  0.0040
  100MOL  Cl10420102   3.048   2.736   6.833 -0.4805 -0.2221  0.1733
  100MOL   C10520103   3.294   2.717   6.732  0.2564  0.0787  0.8591
  100MOL   C10620104   3.274   2.564   6.725  0.5380  0.5905 -0.2823
  100MOL   H10720105   3.246   2.982   6.910  2.0691 -0.7408 -0.8685
  100MOL   H10820106   3.099   2.982   6.817  0.4545  0.9948 -0.3407
  100MOL   H10920107   3.384   2.762   6.693  2.1193 -1.7475  2.9334
  100MOL   H11020108   3.337   2.519   6.802 -1.4270 -0.8747  0.5144
  100MOL   H11120109   3.171   2.537   6.746  0.3516 -0.0714 -1.9479
  100MOL   C11220110   3.297   2.498   6.585  0.5287 -0.3283 -0.1454
  100MOL   C11320111   3.224   2.558   6.465 -0.2565  0.3086  0.3274
  100MOL  Cl11420112   3.063   2.608   6.490 -0.2913  0.5356  0.4153
  100MOL   C11520113   3.269   2.559   6.339 -0.6139 -0.4074  0.2790
  100MOL   C11620114   3.404   2.508   6.291  0.6385 -0.0571  0.0678
  100MOL   H11720115   3.404   2.502   6.564  0.0047 -0.5593 -3.1301
  100MOL   H11820116   3.292   2.390   6.579  3.6371 -0.4449 -1.8537
  100MOL   H11920117   3.215   2.609   6.260  0.6770 -0.7062 -0.7911
  100MOL   H12020118   3.447   2.447   6.370 -0.6253 -0.5113  0.4248
  100MOL   H12120119   3.476   2.589   6.278  1.1854 -0.6181 -0.4341
  100MOL   C12220120   3.409   2.414   6.170  0.1043 -0.0736  0.1007
  100MOL   C12320121   3.546   2.358   6.141  0.3799 -0.1550  0.3591
  100MOL  Cl12420122   3.561   2.193   6.184  0.1500  0.1493  0.2626
  100MOL   C12520123   3.636   2.423   6.067 -0.0709 -0.0157  0.5787
  100MOL   C12620124   3.644   2.568   6.004  0.0416 -0.5159 -0.0983
  100MOL   H12720125   3.325   2.345   6.176 -1.5648  1.7818 -1.1804
  100MOL   H12820126   3.379   2.475   6.085 -0.0686 -0.7271 -0.3111
  100MOL   H12920127   3.721   2.365   6.035 -1.5486 -1.6290 -0.4992
  100MOL   H13020128   3.545   2.614   6.014  0.7202  0.9636 -0.1253
  100MOL   H13120129   3.717   2.618   6.067  1.9185 -1.6549 -1.3455
  100MOL   C13220130   3.697   2.574   5.861 -0.1956 -0.1055 -0.1604
  100MOL   C13320131   3.843   2.595   5.848 -0.1067 -0.1294  0.2586
  100MOL  Cl13420132   3.926   2.467   5.770  0.1550 -0.1336  0.2950
  100MOL   C13520133   3.901   2.713   5.882  0.1487  0.1459 -1.1526
  100MOL   C13620134   3.834   2.832   5.946 -0.4925  0.5090  0.4543
  100MOL   H13720135   3.675   2.476   5.819 -0.8738  0.0781 -0.2401
  100MOL   H13820136   3.643   2.650   5.805 -1.0015 -0.7976 -0.3367
  100MOL   H13920137   4.006   2.718   5.859  0.4218  0.9399  0.2420
  100MOL   H14020138   3.726   2.820   5.938 -0.4443 -0.7430  1.5640
  100MOL   H14120139   3.859   2.845   6.051 -0.5980 -1.5970  0.7601
  100MOL   C14220140   3.869   2.965   5.877  0.2610  0.2366  0.0540
  100MOL   C14320141   3.797   3.089   5.935  0.4673  0.1801  0.0634
  100MOL  Cl14420142   3.655   3.060   6.019 -0.4619 -0.0016 -0.2190
  100MOL   C14520143   3.852   3.215   5.929  0.5003 -0.1573  0.1223
  100MOL   C14620144   3.789   3.333   5.997 -0.2353 -0.6584  0.1764
  100MOL   H14720145   3.858   2.956   5.769  0.2845 -1.3775  0.1749
  100MOL   H14820146   3.976   2.985   5.888  0.1479  2.1658 -1.9535
  100MOL   H14920147   3.943   3.231   5.873 -0.7282  2.2319 -1.3201
  100MOL   H15020148   3.680   3.328   5.994 -0.1612 -1.7709 -1.8427
  100MOL   H15120149   3.828   3.331   6.099  0.0124  0.5754  0.1115
  100MOL   C15220150   3.822   3.467   5.938  0.2699 -0.0715  0.2730
  100MOL   C15320151   3.968   3.517   5.965  0.6322 -0.7595  0.0663
  100MOL  Cl15420152   3.998   3.672   5.892 -0.2092 -0.3457 -0.2860
  100MOL   C15520153   4.060   3.456   6.038 -0.1270 -0.2302 -0.5323
  100MOL   C15620154   4.195   3.508   6.067  0.1637  0.9832 -0.9178
  100MOL   H15720155   3.807   3.466   5.830 -1.6775 -0.9203  0.5376
  100MOL   H15820156   3.760   3.546   5.979 -1.2199 -0.9723 -0.2175
  100MOL   H15920157   4.040   3.356   6.074  1.7627 -0.6099 -0.4848
  100MOL   H16020158   4.224   3.465   6.163  3.9517 -0.1808 -2.4831
  100MOL   H16120159   4.193   3.616   6.074 -1.1221  0.8989  0.1854
  100MOL   C16220160   4.303   3.470   5.963 -0.3915  0.3823 -0.0856
  100MOL   C16320161   4.335   3.580   5.868 -0.1370 -0.2735  0.0118
  100MOL  Cl16420162   4.283   3.544   5.712 -0.2024 -0.0167 -0.1187
  100MOL   C16520163   4.397   3.696   5.905 -0.7737  0.1123  0.2685
  100MOL   C16620164   4.434   3.813   5.811 -0.7647 -0.2361 -0.3773
  100MOL   H16720165   4.396   3.425   5.997  0.0909 -0.9102 -2.9742
  100MOL   H16820166   4.272   3.387   5.898  2.2180 -0.4770 -0.2697
  100MOL   H16920167   4.418   3.708   6.010  0.4996 -1.0108  0.1439
  100MOL   H17020168   4.404   3.791   5.709  1.3946  1.2482 -1.3784
  100MOL   H17120169   4.378   3.895   5.854 -0.2119 -0.3953  0.6729
  100MOL   C17220170   4.590   3.849   5.804  0.7389  0.5456  0.0175
  100MOL   C17320171   4.609   3.987   5.751 -0.0010 -0.0937 -0.2956
  100MOL  Cl17420172   4.589   4.000   5.583 -0.4712  0.1008  0.0064
  100MOL   C17520173   4.649   4.093   5.824 -0.1295  0.5486  0.2421
  100MOL   C17620174   4.678   4.228   5.773  0.1874  0.3954 -0.0180
  100MOL   H17720175   4.637   3.784   5.731 -0.8032  1.0589 -1.4538
  100MOL   H17820176   4.640   3.835   5.900  1.4321 -1.2945 -0.6032
  100MOL   H17920177   4.656   4.073   5.930 -1.7756  1.6774  0.5821
  100MOL   H18020178   4.621   4.302   5.830  0.8399  1.0536 -0.2107
  100MOL   H18120179   4.653   4.244   5.669  0.3475  1.4011  0.0903
  100MOL   C18220180   4.829   4.261   5.774  0.4519  0.9660 -0.4158
  100MOL   C18320181   4.853   4.411   5.747 -0.1342 -0.3155  0.5197
  100MOL  Cl18420182   4.912   4.479   5.892 -0.0548 -0.0347  0.0953
  100MOL   C18520183   4.844   4.478   5.631  0.6917 -0.2107  0.1843
  100MOL   C18620184   4.877   4.625   5.605 -0.2898 -0.3034 -0.2673
  100MOL   H18720185   4.867   4.241   5.874 -0.2451  0.0732 -0.3201
  100MOL   H18820186   4.890   4.202   5.705 -1.9929  0.1693 -1.9662
  100MOL   H18920187   4.813   4.426   5.541  0.1451  2.0546 -0.9565
  100MOL   H19020188   4.780   4.667   5.631 -0.2164 -0.8550  0.9274
  100MOL   H19120189   4.959   4.660   5.667 -0.6947 -2.5948  1.6322
  100MOL   C19220190   4.896   4.646   5.457 -0.4315  0.2998 -0.1472
  100MOL   C19320191   4.930   4.793   5.430  0.5501  0.3238  0.0848
  100MOL  Cl19420192   5.091   4.851   5.471  0.4480 -0.0757  0.3731
  100MOL   C19520193   4.835   4.887   5.398  0.0584 -0.2496  0.2635
  100MOL   C19620194   4.686   4.855   5.387  0.0503  0.1883 -0.9987
  100MOL   H19720195   4.807   4.618   5.401  0.0301  0.1043 -0.8004
  100MOL   H19820196   4.982   4.591   5.419  0.0869  1.7944 -1.2337
  100MOL   H19920197   4.868   4.990   5.391  0.9322 -0.4219  1.7302
  100MOL   H20020198   4.658   4.775   5.455  1.3251  1.4043  0.9880
  100MOL   H20120199   4.653   4.829   5.286  0.4928 -0.4897 -0.9692
  100MOL   H20220200   4.617   4.936   5.413  1.2498  1.3890 -1.4999
  101MOL     C120201   3.946   3.231   3.221  0.5816 -0.0584 -0.2172
  101MOL     C220202   4.062   3.302   3.288  0.3682  0.0393  0.3860
  101MOL    Cl320203   4.208   3.288   3.192  0.0316 -0.0113  0.4557
  101MOL     C420204   4.066   3.364   3.410  0.1574 -0.3219 -0.0713
  101MOL     C520205   3.954   3.384   3.509  0.4834  0.4303 -0.5267
  101MOL     H620206   3.988   3.156   3.153 -0.8642 -0.4443 -0.6976
  101MOL     H720207   3.880   3.298   3.167 -0.8089 -0.8246  0.5137
  101MOL     H820208   4.159   3.407   3.445 -0.5868  0.0755  1.4627
  101MOL     H920209   3.862   3.365   3.453  2.0786  2.2613 -3.9562
  101MOL    H1020210   3.962   3.311   3.589 -0.2442 -0.0658 -0.8918
  101MOL    H1120211   3.894   3.174   3.298 -1.3676  2.2891  0.2511
  101MOL    C1220212   3.947   3.529   3.559 -0.3247  0.4928  0.3538
  101MOL    C1320213   3.832   3.558   3.650  0.2571  0.3145  0.1076
  101MOL   Cl1420214   3.689   3.601   3.570  0.0557 -0.0005 -0.0798
  101MOL    C1520215   3.840   3.566   3.788  0.8730 -1.0897 -0.1377
  101MOL    C1620216   3.963   3.534   3.869  0.0750  0.0306 -0.4809
  101MOL    H1720217   4.043   3.561   3.600 -0.7532  0.1417  1.6530
  101MOL    H1820218   3.936   3.595   3.473  1.6678  0.2941 -0.0684
  101MOL    H1920219   3.755   3.598   3.846  1.5970 -0.0101  0.3538
  101MOL    H2020220   3.948   3.472   3.958 -0.4182  1.0686  0.1667
  101MOL    H2120221   4.029   3.465   3.816 -1.0085  0.0209 -1.8243
  101MOL    C2220222   4.049   3.656   3.913  0.3054  0.1895  0.2743
  101MOL    C2320223   4.182   3.613   3.968  0.4096  0.3534  0.5555
  101MOL   Cl2420224   4.299   3.647   3.846  0.3620 -0.2035  0.2908
  101MOL    C2520225   4.210   3.563   4.095  0.7158 -0.5609  0.1311
  101MOL    C2620226   4.341   3.519   4.155 -0.8810 -0.0339  0.7639
  101MOL    H2720227   4.065   3.734   3.839 -2.1784  1.2535  0.8095
  101MOL    H2820228   3.993   3.709   3.990 -0.0405 -2.7784  2.1476
  101MOL    H2920229   4.139   3.553   4.176  0.1404  0.6069 -0.2215
  101MOL    H3020230   4.420   3.537   4.082 -1.5194  1.0648  0.3346
  101MOL    H3120231   4.357   3.568   4.251  0.4511  1.0365  0.0220
  101MOL    C3220232   4.347   3.371   4.162  0.2054  0.6112 -0.1715
  101MOL    C3320233   4.475   3.320   4.221 -0.1014 -0.2109  0.0100
  101MOL   Cl3420234   4.458   3.299   4.392  0.0543  0.2534  0.1467
  101MOL    C3520235   4.588   3.289   4.156 -0.1978  0.1510  0.4840
  101MOL    C3620236   4.715   3.220   4.218 -0.4781  0.0841 -0.1911
  101MOL    H3720237   4.268   3.330   4.225  0.0951  0.7146 -0.2418
  101MOL    H3820238   4.344   3.316   4.068 -1.1739 -1.8877  1.2765
  101MOL    H3920239   4.584   3.309   4.051 -1.2202  0.3625  0.5535
  101MOL    H4020240   4.700   3.204   4.325 -0.1451 -1.3307 -0.3412
  101MOL    H4120241   4.719   3.119   4.176  0.8762  1.3191 -3.1529
  101MOL    C4220242   4.837   3.313   4.191 -0.8619  0.1706  0.2250
  101MOL    C4320243   4.950   3.257   4.274  0.0150  0.0784 -0.6688
  101MOL   Cl4420244   5.068   3.166   4.188  0.6435 -0.0456 -0.6120
  101MOL    C4520245   4.975   3.287   4.402  0.5300 -0.1510 -0.3596
  101MOL    C4620246   4.882   3.375   4.486  0.2798  0.8101 -0.0393
  101MOL    H4720247   4.859   3.314   4.084  4.0460  1.1751  1.1466
  101MOL    H4820248   4.814   3.417   4.212  0.8170  0.8171 -1.0475
  101MOL    H4920249   5.066   3.246   4.445 -0.4504 -1.3755  0.5831
  101MOL    H5020250   4.929   3.474   4.489 -1.3166  1.6063 -0.4320
  101MOL    H5120251   4.789   3.398   4.435 -0.2925 -0.5658  0.3772
  101MOL    C5220252   4.847   3.307   4.622  0.0717  0.5242 -0.4442
  101MOL    C5320253   4.790   3.404   4.722  0.0909  0.3821  0.3053
  101MOL   Cl5420254   4.667   3.499   4.643 -0.0705 -0.1913 -0.1328
  101MOL    C5520255   4.830   3.427   4.850  0.3071  0.6235 -0.2876
  101MOL    C5620256   4.773   3.533   4.951  0.0729 -0.4098  0.8138
  101MOL    H5720257   4.765   3.235   4.618 -0.8682  1.6508 -3.5123
  101MOL    H5820258   4.937   3.258   4.658  0.7221  0.7892 -1.6866
  101MOL    H5920259   4.912   3.376   4.899 -0.5337  1.0265  1.5910
  101MOL    H6020260   4.707   3.608   4.907  0.6895 -1.1546 -1.4409
  101MOL    H6120261   4.707   3.477   5.016 -0.7015  0.8604  1.1267
  101MOL    C6220262   4.882   3.627   5.015 -0.5519  1.4488  0.2288
  101MOL    C6320263   4.843   3.723   5.126  0.3597  0.0091 -0.2910
  101MOL   Cl6420264   4.951   3.731   5.262 -0.0195  0.1376 -0.1034
  101MOL    C6520265   4.729   3.797   5.129  0.0232 -0.0603 -0.0685
  101MOL    C6620266   4.679   3.902   5.224  1.0332 -0.2910 -0.2827
  101MOL    H6720267   4.961   3.569   5.064  0.1478  0.9206 -1.4785
  101MOL    H6820268   4.922   3.679   4.928  0.1469 -0.3322 -0.5416
  101MOL    H6920269   4.649   3.781   5.059  0.4935  0.3581 -0.7074
  101MOL    H7020270   4.700   3.871   5.326  0.6615  0.6236  0.0763
  101MOL    H7120271   4.575   3.914   5.194  1.1499  1.0557 -0.1491
  101MOL    C7220272   4.755   4.031   5.199  0.2106 -0.3725 -0.3760
  101MOL    C7320273   4.717   4.140   5.294 -1.1985 -0.0987  0.2584
  101MOL   Cl7420274   4.832   4.132   5.425 -0.2543 -0.2117 -0.0739
  101MOL    C7520275   4.632   4.239   5.272  0.1431 -0.6850  0.2173
  101MOL    C7620276   4.620   4.351   5.374  0.7477 -0.3999  0.1124
  101MOL    H7720277   4.725   4.071   5.102  1.4619 -0.2276 -0.7117
  101MOL    H7820278   4.863   4.019   5.199  0.3459  0.7031  1.1473
  101MOL    H7920279   4.580   4.249   5.178  1.5459  1.6745 -0.3348
  101MOL    H8020280   4.691   4.420   5.328 -0.2646 -0.6722 -1.9291
  101MOL    H8120281   4.658   4.315   5.469  0.7730 -1.5351 -0.3212
  101MOL    C8220282   4.473   4.403   5.368  0.1350  0.2901  0.2973
  101MOL    C8320283   4.449   4.520   5.464 -0.1735 -0.1761 -0.3818
  101MOL   Cl8420284   4.395   4.666   5.382 -0.1472 -0.0531  0.1892
  101MOL    C8520285   4.449   4.505   5.600  0.7118 -0.0294 -0.3729
  101MOL    C8620286   4.429   4.621   5.696 -0.1120  0.1819 -0.4124
  101MOL    H8720287   4.401   4.327   5.396  0.5407  0.1099  0.8749
  101MOL    H8820288   4.448   4.437   5.268  3.4138 -0.3812 -0.8104
  101MOL    H8920289   4.476   4.405   5.630 -2.2963 -1.4584 -2.1741
  101MOL    H9020290   4.522   4.668   5.726 -0.3830  1.0476 -0.9053
  101MOL    H9120291   4.356   4.691   5.655 -0.8495  0.1067  0.7307
  101MOL    C9220292   4.366   4.565   5.818 -0.1632 -0.1804 -0.0436
  101MOL    C9320293   4.326   4.685   5.909 -0.2820  0.0143  0.1948
  101MOL   Cl9420294   4.162   4.752   5.886  0.6310  0.5146 -0.1825
  101MOL    C9520295   4.405   4.747   5.997 -0.8734  0.3253  1.2876
  101MOL    C9620296   4.547   4.704   6.032 -0.4128  0.8155  0.6327
  101MOL    H9720297   4.429   4.496   5.875 -0.3667 -1.2683 -1.1252
  101MOL    H9820298   4.269   4.521   5.798 -1.1637  1.0762  1.8972
  101MOL    H9920299   4.364   4.831   6.051  0.2725  1.9576 -0.3291
  101MOL   H10020300   4.599   4.650   5.953 -2.1747  2.6339 -1.8368
  101MOL   H10120301   4.606   4.795   6.041 -0.3350  0.8721 -0.4372
  101MOL   C10220302   4.543   4.633   6.170  0.2044  0.0945  0.1349
  101MOL   C10320303   4.672   4.627   6.239  0.2440  0.0691 -0.7272
  101MOL  Cl10420304   4.739   4.473   6.212  0.3092  0.2171  0.3930
  101MOL   C10520305   4.727   4.731   6.306 -0.4049  0.4331  0.3142
  101MOL   C10620306   4.857   4.725   6.382  0.1997  0.0798  0.2251
  101MOL   H10720307   4.469   4.686   6.230 -1.1298 -1.3353 -0.2126
  101MOL   H10820308   4.497   4.536   6.153 -2.8829  1.7850 -1.4685
  101MOL   H10920309   4.675   4.826   6.306  1.6214  1.5836  1.4600
  101MOL   H11020310   4.827   4.714   6.486 -2.0536  1.1242 -0.2833
  101MOL   H11120311   4.916   4.636   6.357 -1.9809 -1.4474  0.3551
  101MOL   C11220312   4.959   4.841   6.344  0.2837  0.0567  0.9295
  101MOL   C11320313   5.015   4.814   6.205  0.5598 -0.2982 -0.4057
  101MOL  Cl11420314   4.931   4.900   6.077  0.6524 -0.3217 -0.4916
  101MOL   C11520315   5.126   4.748   6.176  0.5577  0.3598 -0.0226
  101MOL   C11620316   5.222   4.679   6.265 -0.6572 -0.2043  0.3147
  101MOL   H11720317   4.896   4.929   6.339 -0.4173 -0.4525  0.8315
  101MOL   H11820318   5.039   4.855   6.417  1.3441  1.2716 -0.4212
  101MOL   H11920319   5.148   4.743   6.071  2.6376 -0.2676  0.4255
  101MOL   H12020320   5.189   4.684   6.369  0.4926 -1.7619  0.7919
  101MOL   H12120321   5.315   4.735   6.269 -0.2102 -0.9123 -0.0027
  101MOL   C12220322   5.260   4.529   6.212  0.3444 -0.1289 -0.7617
  101MOL   C12320323   5.322   4.446   6.325  0.4346 -0.2792  0.4064
  101MOL  Cl12420324   5.492   4.429   6.301  0.0480 -0.2869  0.1152
  101MOL   C12520325   5.260   4.410   6.439 -0.2331 -0.6778 -0.8485
  101MOL   C12620326   5.114   4.434   6.472 -0.3137 -0.0740  0.0877
  101MOL   H12720327   5.172   4.480   6.171 -0.0941 -1.6830  1.9133
  101MOL   H12820328   5.338   4.530   6.136  0.7693 -2.5835 -0.3838
  101MOL   H12920329   5.320   4.365   6.516 -1.6745  0.0578  0.7508
  101MOL   H13020330   5.105   4.539   6.497 -0.3669 -0.2009  0.5963
  101MOL   H13120331   5.055   4.413   6.382 -2.6668  0.0425  1.5644
  101MOL   C13220332   5.056   4.338   6.576  0.2632 -0.1059 -0.0224
  101MOL   C13320333   5.085   4.189   6.546  0.3520 -0.1895 -0.2407
  101MOL  Cl13420334   5.168   4.124   6.682 -0.0536 -0.1119  0.2177
  101MOL   C13520335   5.045   4.118   6.438 -0.2512  0.3314 -0.3504
  101MOL   C13620336   4.951   4.163   6.326 -0.5936  0.3236  0.5608
  101MOL   H13720337   5.081   4.363   6.679  1.1134 -1.3457  0.0818
  101MOL   H13820338   4.947   4.337   6.573  0.2521 -1.1568  0.2809
  101MOL   H13920339   5.077   4.015   6.436  0.6401  0.6112 -0.9508
  101MOL   H14020340   4.870   4.091   6.333  0.4666 -0.9969 -0.5575
  101MOL   H14120341   4.910   4.263   6.342 -1.8141 -0.1411  0.3983
  101MOL   C14220342   5.026   4.152   6.190  0.0162  0.1562  0.2285
  101MOL   C14320343   5.030   4.010   6.139 -0.4716  0.2932  0.7411
  101MOL  Cl14420344   4.891   3.963   6.040  0.2454 -0.2974  0.5091
  101MOL   C14520345   5.124   3.917   6.173 -0.9667  0.2660 -0.3695
  101MOL   C14620346   5.118   3.769   6.143 -0.3265 -0.4118  0.2929
  101MOL   H14720347   5.126   4.190   6.208  0.3118  0.5599 -2.0861
  101MOL   H14820348   4.978   4.224   6.123  0.4530 -0.0515 -0.3044
  101MOL   H14920349   5.209   3.937   6.237 -1.2467  1.1307 -0.2470
  101MOL   H15020350   5.065   3.753   6.049  0.8790 -0.4483 -0.3884
  101MOL   H15120351   5.220   3.735   6.127  0.1514  0.8680  0.6260
  101MOL   C15220352   5.052   3.683   6.253 -0.0744 -0.4692  0.1519
  101MOL   C15320353   4.900   3.686   6.241 -0.1041  0.1948 -0.4568
  101MOL  Cl15420354   4.836   3.582   6.123 -0.2316 -0.1185  0.1903
  101MOL   C15520355   4.824   3.767   6.316 -0.2733 -0.0618  0.1484
  101MOL   C15620356   4.668   3.763   6.330  0.3126  0.3407  0.3438
  101MOL   H15720357   5.074   3.577   6.244 -1.7697 -0.9586  1.4839
  101MOL   H15820358   5.079   3.724   6.351  2.0134 -0.3177 -0.4522
  101MOL   H15920359   4.878   3.829   6.386 -1.5684 -1.3558  2.3296
  101MOL   H16020360   4.614   3.722   6.245 -1.2569 -0.3293  1.6235
  101MOL   H16120361   4.624   3.863   6.334  1.1865  0.8934 -2.6468
  101MOL   C16220362   4.620   3.683   6.458 -0.7006  0.5549 -0.5921
  101MOL   C16320363   4.469   3.690   6.490 -0.9470 -0.2090 -0.4332
  101MOL  Cl16420364   4.387   3.562   6.417  0.0359  0.0720  0.1291
  101MOL   C16520365   4.414   3.770   6.580  0.6726  0.4388 -0.1842
  101MOL   C16620366   4.262   3.772   6.607  0.0529  0.6671 -0.1436
  101MOL   H16720367   4.644   3.578   6.447 -2.1854  0.1977 -0.5319
  101MOL   H16820368   4.676   3.715   6.545  0.3226 -1.8332 -0.3376
  101MOL   H16920369   4.479   3.842   6.627  2.1649 -1.9006  1.4649
  101MOL   H17020370   4.224   3.874   6.607 -0.5547  0.4496  1.6493
  101MOL   H17120371   4.209   3.723   6.524  0.8511 -2.6537  1.2159
  101MOL   C17220372   4.224   3.691   6.730  0.3232 -0.1526 -0.2246
  101MOL   C17320373   4.219   3.540   6.715  0.7329  0.0764 -0.3070
  101MOL  Cl17420374   4.066   3.487   6.656 -0.2025  0.4553 -0.0342
  101MOL   C17520375   4.315   3.464   6.764 -0.1592 -0.1877 -0.0071
  101MOL   C17620376   4.316   3.312   6.759 -0.2254 -0.0000  0.8028
  101MOL   H17720377   4.127   3.725   6.766  0.7074  1.2217 -0.4520
  101MOL   H17820378   4.295   3.704   6.812 -0.2239 -0.8275  0.3759
  101MOL   H17920379   4.393   3.512   6.820  1.4404 -2.9085  0.2146
  101MOL   H18020380   4.412   3.276   6.722  0.1514  1.7042  0.0690
  101MOL   H18120381   4.238   3.268   6.697  1.2909  0.7834 -1.7485
  101MOL   C18220382   4.308   3.264   6.906 -0.5015  1.0578  0.6114
  101MOL   C18320383   4.198   3.332   6.986  0.1246  0.1048 -0.1762
  101MOL  Cl18420384   4.249   3.462   7.084  0.4429  0.1741 -0.1382
  101MOL   C18520385   4.072   3.301   6.979  0.2421  0.1001  0.3306
  101MOL   C18620386   3.956   3.372   7.050  0.3514  0.1939  0.9686
  101MOL   H18720387   4.295   3.156   6.906 -0.7742  1.0900 -0.3814
  101MOL   H18820388   4.394   3.275   6.972 -0.8566 -0.5355  1.3526
  101MOL   H18920389   4.050   3.218   6.914 -0.0546 -0.6087  1.3360
  101MOL   H19020390   3.944   3.315   7.142 -0.7714 -0.5242  0.3792
  101MOL   H19120391   3.990   3.471   7.081  0.4681  0.2976  0.5174
  101MOL   C19220392   3.830   3.373   6.957 -0.7689 -0.5658 -0.8321
  101MOL   C19320393   3.719   3.469   7.006  0.3812  0.0045 -1.1544
  101MOL  Cl19420394   3.640   3.420   7.149  0.1857  0.3706 -0.1359
  101MOL   C19520395   3.682   3.588   6.951 -0.4485 -0.4339 -0.5820
  101MOL   C19620396   3.738   3.643   6.824 -1.0217 -0.5348 -0.2203
  101MOL   H19720397   3.800   3.270   6.941  1.9907 -1.3856 -1.0074
  101MOL   H19820398   3.858   3.410   6.859 -1.2132  0.3716 -0.6108
  101MOL   H19920399   3.607   3.651   6.996  0.8841  0.5950  0.2398
  101MOL   H20020400   3.746   3.751   6.832  1.3288 -0.6992  0.0755
  101MOL   H20120401   3.679   3.614   6.737  1.2721  0.0094 -2.0353
  101MOL   H20220402   3.838   3.608   6.797 -0.5669  0.5281  0.0679
  102MOL     C120403   5.178   2.376   4.951  0.5979 -0.4704 -0.4940
  102MOL     C220404   5.037   2.329   4.922 -0.8719 -0.4920 -0.1388
  102MOL    Cl320405   5.028   2.152   4.934  0.1461 -0.0819 -0.2960
  102MOL     C420406   4.930   2.404   4.889 -0.5240  0.2872 -0.1728
  102MOL     C520407   4.933   2.558   4.867  0.3301 -0.3150 -0.0450
  102MOL     H620408   5.176   2.471   5.004  1.1030 -0.2384 -0.8901
  102MOL     H720409   5.245   2.379   4.865 -1.5526  2.2568 -2.1663
  102MOL     H820410   4.831   2.362   4.881 -1.6838  3.2666 -2.1617
  102MOL     H920411   5.025   2.598   4.824 -1.4557  0.2188 -3.5779
  102MOL    H1020412   4.861   2.597   4.796  0.3398 -1.8836 -0.9546
  102MOL    H1120413   5.223   2.309   5.024  2.4706  0.4880 -0.7361
  102MOL    C1220414   4.914   2.617   5.010  0.1195 -0.5472  0.1873
  102MOL    C1320415   4.955   2.759   5.024  0.2271  0.3522 -0.2781
  102MOL   Cl1420416   5.099   2.769   5.121  0.1933 -0.6579 -0.3231
  102MOL    C1520417   4.904   2.871   4.968 -0.4215 -0.1537 -0.2006
  102MOL    C1620418   4.786   2.884   4.880  0.3667  0.1926  0.5069
  102MOL    H1720419   4.812   2.609   5.045 -0.3050  1.3167 -0.5576
  102MOL    H1820420   4.968   2.558   5.085 -0.4054 -0.7681  0.3904
  102MOL    H1920421   4.958   2.962   4.991  1.4549 -0.6949 -2.2452
  102MOL    H2020422   4.807   2.880   4.773  0.3421  1.4675  0.4488
  102MOL    H2120423   4.728   2.796   4.910  2.1974 -1.8756 -1.8081
  102MOL    C2220424   4.703   3.016   4.898 -0.4526 -0.4503 -0.1478
  102MOL    C2320425   4.556   3.002   4.863 -0.2576 -0.0818 -0.7753
  102MOL   Cl2420426   4.511   3.082   4.714  0.1356 -0.0194 -0.2950
  102MOL    C2520427   4.476   2.915   4.926 -0.2395  0.3316  0.1719
  102MOL    C2620428   4.332   2.882   4.890  0.1540  0.1673  0.3110
  102MOL    H2720429   4.717   3.057   4.998 -0.3975  0.8994 -0.6971
  102MOL    H2820430   4.738   3.099   4.837 -1.9340  2.8704  3.3176
  102MOL    H2920431   4.516   2.860   5.009  0.1637 -0.1446 -0.3325
  102MOL    H3020432   4.258   2.901   4.967  0.4387 -2.1968  1.2247
  102MOL    H3120433   4.303   2.941   4.803  1.2423 -0.5736 -0.5804
  102MOL    C3220434   4.323   2.732   4.867  0.7134  0.6646 -0.2327
  102MOL    C3320435   4.181   2.689   4.836  0.1561 -0.3148  0.0693
  102MOL   Cl3420436   4.137   2.673   4.668  0.2012  0.0255 -0.1594
  102MOL    C3520437   4.094   2.655   4.935 -0.5199 -0.3830  0.1206
  102MOL    C3620438   3.951   2.601   4.916 -0.0069 -0.1605  0.4641
  102MOL    H3720439   4.392   2.695   4.792  0.7432  1.4416 -0.5962
  102MOL    H3820440   4.349   2.677   4.957 -0.9160  0.2625  0.0221
  102MOL    H3920441   4.133   2.665   5.035 -0.9454  1.5312  0.1159
  102MOL    H4020442   3.928   2.608   4.809 -0.6179  2.2825  0.7160
  102MOL    H4120443   3.941   2.494   4.935  1.4044 -0.4390 -0.2448
  102MOL    C4220444   3.846   2.684   4.998  0.9847 -0.3828 -0.8230
  102MOL    C4320445   3.852   2.837   4.981 -0.2910 -0.6626  0.5087
  102MOL   Cl4420446   3.759   2.891   4.851  0.2826  0.1695 -0.3721
  102MOL    C4520447   3.911   2.924   5.059 -0.0367  0.5499 -0.8709
  102MOL    C4620448   3.989   2.899   5.184  0.0115  0.0039 -0.4753
  102MOL    H4720449   3.745   2.648   4.977  1.1232 -0.5480 -1.2111
  102MOL    H4820450   3.860   2.662   5.104  3.7869  0.1699 -1.0424
  102MOL    H4920451   3.916   3.030   5.038  2.9237  0.5762 -0.2670
  102MOL    H5020452   3.993   2.791   5.199  1.0957 -0.0829 -1.2738
  102MOL    H5120453   4.091   2.929   5.157 -0.5989 -0.3929 -3.3327
  102MOL    C5220454   3.926   2.951   5.318 -0.1026  0.0631  0.2052
  102MOL    C5320455   4.023   2.934   5.432  0.2974 -0.2224 -0.1861
  102MOL   Cl5420456   3.993   2.793   5.527 -0.0841 -0.2208 -0.1351
  102MOL    C5520457   4.118   3.018   5.466 -0.1965  0.1409 -0.2568
  102MOL    C5620458   4.230   2.998   5.569 -0.5192 -0.0639 -0.6134
  102MOL    H5720459   3.879   3.049   5.320  2.0926  1.1210  1.2819
  102MOL    H5820460   3.843   2.888   5.352  0.4639 -0.6621  0.2632
  102MOL    H5920461   4.122   3.108   5.407 -0.2957 -0.2170 -0.8097
  102MOL    H6020462   4.229   2.898   5.611  0.0230  0.9316  1.8579
  102MOL    H6120463   4.321   3.023   5.516 -0.4173  1.8031  0.3681
  102MOL    C6220464   4.214   3.090   5.691 -0.4623  0.5672  0.2466
  102MOL    C6320465   4.332   3.062   5.786 -0.0003  1.1421  0.4102
  102MOL   Cl6420466   4.322   2.907   5.875 -0.4468 -0.4463  0.0386
  102MOL    C6520467   4.436   3.148   5.806 -0.5172  1.0001  0.1901
  102MOL    C6620468   4.559   3.113   5.888 -0.5156  0.0165  0.2154
  102MOL    H6720469   4.190   3.192   5.659 -1.0130  0.5101  0.4816
  102MOL    H6820470   4.129   3.060   5.752 -0.0520  1.2703  1.1703
  102MOL    H6920471   4.432   3.245   5.758  1.0855  0.1057 -1.8344
  102MOL    H7020472   4.554   3.014   5.934 -2.4492 -1.2860 -2.6695
  102MOL    H7120473   4.551   3.185   5.970  0.1030  0.3950 -0.0591
  102MOL    C7220474   4.696   3.144   5.825  1.1868  0.9537  0.8255
  102MOL    C7320475   4.813   3.088   5.905 -0.1779  0.1009 -0.5551
  102MOL   Cl7420476   4.851   3.205   6.028 -0.0388  0.3694 -0.1122
  102MOL    C7520477   4.891   2.985   5.873  0.5715 -0.6000 -0.0406
  102MOL    C7620478   4.998   2.926   5.961 -0.3139  0.9067  0.6992
  102MOL    H7720479   4.711   3.250   5.802 -0.7183  0.5823 -2.3094
  102MOL    H7820480   4.705   3.096   5.728 -1.7223  1.7051  0.1593
  102MOL    H7920481   4.866   2.936   5.780 -1.3313  0.8285 -0.3028
  102MOL    H8020482   4.958   2.936   6.062 -1.8706  1.0426  0.0815
  102MOL    H8120483   5.080   2.998   5.968 -0.2459  1.3769 -3.6838
  102MOL    C8220484   5.035   2.770   5.939  0.1162 -0.1951  0.3613
  102MOL    C8320485   4.937   2.670   5.992  0.0075  0.5668 -0.7363
  102MOL   Cl8420486   4.972   2.649   6.161 -0.2020  0.2971 -0.4365
  102MOL    C8520487   4.840   2.611   5.925  0.7077 -0.5144 -0.4535
  102MOL    C8620488   4.744   2.508   5.980 -0.2167 -0.4337  0.4771
  102MOL    H8720489   5.125   2.758   5.999 -0.1904 -0.2061  0.8180
  102MOL    H8820490   5.049   2.751   5.833  1.8159  0.9786  0.3587
  102MOL    H8920491   4.831   2.632   5.819 -2.0164 -0.3754 -0.2199
  102MOL    H9020492   4.730   2.432   5.903 -2.5932 -1.1793  1.5745
  102MOL    H9120493   4.773   2.459   6.073 -1.0439 -1.1640  0.3589
  102MOL    C9220494   4.603   2.567   6.011  0.2734  0.2435  0.0740
  102MOL    C9320495   4.599   2.635   6.145  0.7122 -0.2254  0.0701
  102MOL   Cl9420496   4.607   2.801   6.119  0.1941 -0.2481  0.0701
  102MOL    C9520497   4.600   2.582   6.266 -0.4370  0.1721  0.3657
  102MOL    C9620498   4.605   2.429   6.294  0.2303 -0.0326  0.2108
  102MOL    H9720499   4.539   2.478   6.015 -1.7623  1.6227 -0.9085
  102MOL    H9820500   4.567   2.630   5.930 -0.8185  0.9717  1.1198
  102MOL    H9920501   4.602   2.645   6.354 -0.7641  0.7457 -0.0370
  102MOL   H10020502   4.516   2.402   6.351 -0.3246  0.4248 -0.4401
  102MOL   H10120503   4.600   2.371   6.202 -0.0324 -1.5361  1.1517
  102MOL   C10220504   4.731   2.390   6.372  0.0127 -0.3475 -0.3685
  102MOL   C10320505   4.745   2.239   6.391  0.0987  0.5468 -0.1171
  102MOL  Cl10420506   4.681   2.166   6.534 -0.2243 -0.3123 -0.2253
  102MOL   C10520507   4.827   2.165   6.308  0.4706  0.4383  0.8242
  102MOL   C10620508   4.858   2.012   6.322  0.4653 -0.1562  0.4951
  102MOL   H10720509   4.823   2.425   6.325 -0.8760  0.6289 -1.4359
  102MOL   H10820510   4.731   2.427   6.474 -1.9494 -0.1408 -0.4267
  102MOL   H10920511   4.878   2.199   6.219 -1.5658  3.2946  0.6676
  102MOL   H11020512   4.957   1.995   6.280  1.0364  1.1623  1.2755
  102MOL   H11120513   4.872   1.984   6.427 -1.5804  0.5376  0.9645
  102MOL   C11220514   4.756   1.931   6.246  0.2198 -0.3245  0.3448
  102MOL   C11320515   4.784   1.778   6.261 -0.0601 -1.1250  0.2195
  102MOL  Cl11420516   4.918   1.722   6.170 -0.0079  0.4425 -0.2770
  102MOL   C11520517   4.721   1.684   6.329  0.6782 -0.6335 -0.3456
  102MOL   C11620518   4.603   1.696   6.419 -0.0414 -0.2053 -0.4435
  102MOL   H11720519   4.656   1.950   6.286 -0.0097 -1.7591  0.5098
  102MOL   H11820520   4.763   1.948   6.139  1.7114 -0.8337  0.3448
  102MOL   H11920521   4.761   1.584   6.319  2.2920 -0.1111  0.6584
  102MOL   H12020522   4.511   1.660   6.371  0.0324  1.3740 -1.8049
  102MOL   H12120523   4.604   1.801   6.446 -0.0852 -0.3230  0.0265
  102MOL   C12220524   4.619   1.609   6.550 -0.0301 -0.1115  0.1860
  102MOL   C12320525   4.737   1.649   6.638  0.4180  0.2540 -0.1185
  102MOL  Cl12420526   4.698   1.792   6.724  0.3090  0.5910 -0.1660
  102MOL   C12520527   4.856   1.589   6.643  0.4857  0.4284  0.0755
  102MOL   C12620528   4.906   1.467   6.557  0.1940  0.9142 -0.1771
  102MOL   H12720529   4.526   1.646   6.594  1.8624  1.9061  2.6124
  102MOL   H12820530   4.605   1.503   6.528  1.4667 -0.4531  0.8563
  102MOL   H12920531   4.927   1.637   6.708  0.7272  0.9461 -0.5647
  102MOL   H13020532   4.818   1.422   6.511  0.9977 -1.2689  0.3617
  102MOL   H13120533   4.967   1.504   6.475 -0.4146  1.5558 -0.3505
  102MOL   C13220534   4.968   1.349   6.622 -0.5140 -0.1679 -0.3378
  102MOL   C13320535   5.098   1.382   6.692 -0.0003  0.1030  0.0898
  102MOL  Cl13420536   5.215   1.417   6.576 -0.1638 -0.1365  0.3880
  102MOL   C13520537   5.135   1.396   6.821 -0.3282 -0.6091 -0.2436
  102MOL   C13620538   5.042   1.387   6.942 -0.4557  0.1287  0.1087
  102MOL   H13720539   4.911   1.311   6.707 -0.2516  1.6735  0.7031
  102MOL   H13820540   4.981   1.266   6.553 -3.7483 -1.6735  0.7523
  102MOL   H13920541   5.239   1.418   6.836 -0.4978  1.9233 -2.3152
  102MOL   H14020542   5.026   1.486   6.987  0.4482 -0.0864  0.9278
  102MOL   H14120543   4.941   1.353   6.918 -0.5397 -0.7375  1.6024
  102MOL   C14220544   5.101   1.297   7.049  0.1920  0.3052  0.8563
  102MOL   C14320545   5.014   1.282   7.172  0.0428 -0.1151 -0.0235
  102MOL  Cl14420546   5.034   1.421   7.278 -0.1811  0.2188  0.2518
  102MOL   C14520547   4.931   1.178   7.185  0.1902 -0.1580  0.2975
  102MOL   C14620548   4.838   1.161   7.301 -0.4898  0.3188 -0.0510
  102MOL   H14720549   5.192   1.340   7.091 -0.0332  1.6451 -0.0149
  102MOL   H14820550   5.132   1.201   7.008 -0.0660  0.6473 -0.1543
  102MOL   H14920551   4.929   1.105   7.106 -0.1151  0.8013 -0.5965
  102MOL   H15020552   4.789   1.252   7.333 -0.2771  0.8920 -1.3190
  102MOL   H15120553   4.755   1.103   7.260 -0.8815  2.2208 -2.0206
  102MOL   C15220554   4.904   1.079   7.418  0.0673 -0.5013 -0.5504
  102MOL   C15320555   4.833   1.090   7.547  0.2911 -0.2007  0.0210
  102MOL  Cl15420556   4.943   1.077   7.672 -0.0793  0.2958 -0.1356
  102MOL   C15520557   4.695   1.105   7.566 -0.8103  0.4782  0.2891
  102MOL   C15620558   4.626   1.118   7.700  0.3668 -0.3488 -0.0789
  102MOL   H15720559   4.939   0.981   7.385  0.3075 -0.7602  0.4767
  102MOL   H15820560   4.997   1.127   7.448  0.0985 -1.6460  1.2270
  102MOL   H15920561   4.634   1.115   7.477  2.2513  1.9601 -1.7329
  102MOL   H16020562   4.688   1.116   7.790  1.2647  0.3272 -0.6770
  102MOL   H16120563   4.549   1.041   7.696 -0.8729  0.9340 -1.7607
  102MOL   C16220564   4.545   1.244   7.708 -0.1039 -0.3347 -0.0461
  102MOL   C16320565   4.458   1.234   7.825 -0.5372 -0.3840  0.3290
  102MOL  Cl16420566   4.504   1.338   7.957  0.0903 -0.0497  0.0564
  102MOL   C16520567   4.350   1.149   7.832  0.8371  0.1153  0.0012
  102MOL   C16620568   4.252   1.136   7.944 -0.2196 -0.0559  0.1896
  102MOL   H16720569   4.615   1.327   7.712 -0.0586 -0.3422 -0.5628
  102MOL   H16820570   4.484   1.266   7.621  0.6348  2.2615  0.0408
  102MOL   H16920571   4.332   1.091   7.742 -0.8110 -0.5862  0.7532
  102MOL   H17020572   4.210   1.036   7.944  2.4605 -1.2635  2.3781
  102MOL   H17120573   4.305   1.160   8.036 -1.5452  1.5945  0.5619
  102MOL   C17220574   4.148   1.245   7.909  0.0310  0.6493 -0.1126
  102MOL   C17320575   4.045   1.247   8.020 -0.7936 -0.0098  0.4741
  102MOL  Cl17420576   3.899   1.156   7.978 -0.1999 -0.1589 -0.1965
  102MOL   C17520577   4.053   1.317   8.136  0.7092  0.2657 -0.2476
  102MOL   C17620578   3.954   1.327   8.252  0.0901  0.6705 -0.2412
  102MOL   H17720579   4.096   1.231   7.814 -1.7067 -0.3293  0.9799
  102MOL   H17820580   4.184   1.348   7.902  0.9037  0.2712 -1.4546
  102MOL   H17920581   4.144   1.375   8.149 -0.1728  1.3301  1.3400
  102MOL   H18020582   4.004   1.305   8.346 -1.5728 -1.0666  0.2822
  102MOL   H18120583   3.887   1.241   8.262  2.8612 -1.3887  1.2152
  102MOL   C18220584   3.885   1.463   8.269  0.1128 -0.2466 -0.3365
  102MOL   C18320585   3.827   1.481   8.410 -0.0097  0.3996  0.2713
  102MOL  Cl18420586   3.877   1.635   0.052  0.0672  0.3618  0.1956
  102MOL   C18520587   3.751   1.395   0.061  0.5776 -0.4470  0.8331
  102MOL   C18620588   3.703   1.407   0.210  0.1653 -0.3484 -0.3827
  102MOL   H18720589   3.958   1.541   8.246 -0.1113  0.3920  1.1078
  102MOL   H18820590   3.798   1.478   8.205 -0.9027 -0.3999  0.9890
  102MOL   H18920591   3.720   1.304   0.013  0.8048 -0.4371  0.6680
  102MOL   H19020592   3.772   1.477   0.257 -1.2422  1.4311 -0.8923
  102MOL   H19120593   3.605   1.455   0.214  1.4238  2.3470 -0.9687
  102MOL   C19220594   3.707   1.275   0.289  0.3573 -0.1365 -0.1553
  102MOL   C19320595   3.660   1.286   0.428 -0.2777  0.1486 -0.1128
  102MOL  Cl19420596   3.487   1.260   0.438  0.2652 -0.3272  0.1738
  102MOL   C19520597   3.739   1.300   0.538  0.1164 -0.4195  0.1432
  102MOL   C19620598   3.887   1.309   0.537 -0.7069  0.0590  0.4458
  102MOL   H19720599   3.800   1.219   0.278 -0.0269 -0.4749 -1.8967
  102MOL   H19820600   3.641   1.204   0.238 -0.7285  0.7487  0.0036
  102MOL   H19920601   3.687   1.315   0.631 -1.0594 -0.0805 -0.5500
  102MOL   H20020602   3.913   1.205   0.556 -2.4498 -0.3751  0.5562
  102MOL   H20120603   3.930   1.366   0.619  0.2627  1.7004 -1.1712
  102MOL   H20220604   3.928   1.346   0.444 -2.1758  2.0402  0.5544
  103MOL     C120605   7.702   1.367   6.526  0.0033 -0.6073 -0.8681
  103MOL     C220606   7.707   1.229   6.462 -0.0358 -0.2761 -0.0695
  103MOL    Cl320607   7.561   1.181   6.395 -0.4276 -0.4729 -0.1295
  103MOL     C420608   7.811   1.150   6.454  0.6018  0.3617 -0.3484
  103MOL     C520609   7.940   1.192   6.521  0.5256 -0.7566  0.5579
  103MOL     H620610   7.720   1.367   6.634 -1.1948 -2.2671 -0.6349
  103MOL     H720611   7.605   1.410   6.501  0.3039  1.6001  1.6289
  103MOL     H820612   7.811   1.054   6.405  0.1740  0.9836 -1.5869
  103MOL     H920613   7.937   1.277   6.590  0.5996 -2.0991  2.2635
  103MOL    H1020614   7.954   1.102   6.581 -1.5802  0.2290  2.5986
  103MOL    H1120615   7.778   1.426   6.476  0.9046  1.1907  2.5271
  103MOL    C1220616   8.061   1.199   6.424 -0.2053 -0.1473 -0.5215
  103MOL    C1320617   8.170   1.284   6.479  0.1865  0.1014  0.5413
  103MOL   Cl1420618   8.148   1.445   6.433  0.4481 -0.2421 -0.4291
  103MOL    C1520619   8.273   1.242   6.553 -0.8569  0.1937  0.5736
  103MOL    C1620620   8.309   1.104   6.579 -0.7831 -0.3009 -0.6850
  103MOL    H1720621   8.100   1.098   6.406  1.8817 -0.0021  2.7266
  103MOL    H1820622   8.033   1.249   6.332  0.2429 -1.2863 -1.2844
  103MOL    H1920623   8.342   1.314   6.593 -0.4223 -0.1211  0.4008
  103MOL    H2020624   8.329   1.099   6.686 -1.3551  1.3370 -0.4849
  103MOL    H2120625   8.223   1.040   6.561 -1.0466  0.0636 -0.7350
  103MOL    C2220626   0.013   1.075   6.493  0.5915  0.1640  0.0167
  103MOL    C2320627   0.086   0.951   6.533 -0.7214 -0.1897 -0.2893
  103MOL   Cl2420628   0.054   0.823   6.420  0.3890  0.4983 -0.0953
  103MOL    C2520629   0.164   0.939   6.647 -0.5984 -0.3272 -0.4589
  103MOL    C2620630   0.253   0.813   6.680 -0.1019  0.1803 -0.4313
  103MOL    H2720631   8.402   1.070   6.389  1.8805 -1.3895 -0.3186
  103MOL    H2820632   0.083   1.159   6.495 -0.2208  0.9252 -2.1292
  103MOL    H2920633   0.160   1.031   6.702  3.0595 -0.2337 -0.2468
  103MOL    H3020634   0.188   0.734   6.719 -0.8593  0.8080 -0.4081
  103MOL    H3120635   0.300   0.794   6.584  0.9836 -1.3914  0.3892
  103MOL    C3220636   0.359   0.845   6.787  0.0360  0.0701 -0.7396
  103MOL    C3320637   0.439   0.717   6.839  1.1143 -0.3574  0.6577
  103MOL   Cl3420638   0.372   0.655   6.980 -0.4614 -0.1204  0.3825
  103MOL    C3520639   0.559   0.676   6.792  0.0486  0.7648  0.2909
  103MOL    C3620640   0.646   0.567   6.839 -0.2471 -0.3726  0.7965
  103MOL    H3720641   0.438   0.912   6.752 -0.0596  0.4634 -0.2174
  103MOL    H3820642   0.327   0.898   6.877 -0.1017 -2.4272  0.7376
  103MOL    H3920643   0.593   0.733   6.706  0.0266  0.2544 -0.0607
  103MOL    H4020644   0.727   0.613   6.895  0.2355 -0.5210  0.2285
  103MOL    H4120645   0.585   0.505   6.905  0.8618  0.0272  2.2265
  103MOL    C4220646   0.708   0.481   6.728  0.3350 -0.6762  0.7359
  103MOL    C4320647   0.759   0.354   6.785 -0.0065  0.0195 -0.3505
  103MOL   Cl4420648   0.931   0.347   6.806  0.2111  0.3219 -0.0447
  103MOL    C4520649   0.689   0.245   6.806  1.2204 -0.6761 -0.2617
  103MOL    C4620650   0.546   0.215   6.789  0.3369 -0.1154 -0.1892
  103MOL    H4720651   0.634   0.453   6.653  0.0104  1.7568  0.1005
  103MOL    H4820652   0.767   0.544   6.661  0.8306  0.4593  2.2311
  103MOL    H4920653   0.749   0.159   6.831  1.7420 -0.0186  0.7848
  103MOL    H5020654   0.490   0.305   6.762 -1.2964 -1.5703 -1.7753
  103MOL    H5120655   0.537   0.143   6.708 -0.0622  0.9793 -1.1434
  103MOL    C5220656   0.470   0.147   6.906  0.1318  0.0451 -0.2083
  103MOL    C5320657   0.319   0.139   6.891 -0.0330 -0.5855 -0.2949
  103MOL   Cl5420658   0.277   0.010   6.800 -0.2084  0.0294 -0.1621
  103MOL    C5520659   0.226   0.225   6.941 -0.5359  1.0171 -0.5826
  103MOL    C5620660   0.076   0.215   6.923 -0.1088  0.3148  0.7691
  103MOL    H5720661   0.512   0.047   6.912 -0.3369 -0.1690 -0.5018
  103MOL    H5820662   0.495   0.192   7.002 -1.2564  0.9222 -0.2494
  103MOL    H5920663   0.266   0.306   7.000  1.9823 -0.8635  0.3701
  103MOL    H6020664   0.057   0.164   6.829  1.1290 -1.2015  1.3208
  103MOL    H6120665   0.047   0.146   7.003 -0.8663  0.7108  0.8397
  103MOL    C6220666   0.002   0.348   6.938 -0.2675  0.4238 -0.3289
  103MOL    C6320667   8.275   0.328   6.899 -0.1468  1.1061  0.0995
  103MOL   Cl6420668   8.247   0.364   6.737 -0.3582 -0.0854  0.0647
  103MOL    C6520669   8.167   0.314   6.984  0.6594  0.3124  0.0705
  103MOL    C6620670   8.016   0.328   6.939  0.0544 -0.0030  0.0083
  103MOL    H6720671   0.010   0.388   7.039  0.7505  0.7239 -0.5147
  103MOL    H6820672   0.049   0.415   6.866 -2.4842  1.3767 -0.9071
  103MOL    H6920673   8.187   0.292   7.088  0.0144 -0.3554  0.0608
  103MOL    H7020674   7.967   0.246   6.993  0.3500  0.5085  1.0647
  103MOL    H7120675   7.992   0.317   6.833  2.5563 -0.1855 -0.5603
  103MOL    C7220676   7.968   0.468   6.988  0.1373 -0.3761 -0.1879
  103MOL    C7320677   7.828   0.505   6.942  0.7619  0.7645 -0.2785
  103MOL   Cl7420678   7.810   0.668   6.893 -0.3764 -0.0000 -0.1352
  103MOL    C7520679   7.722   0.421   6.946  0.2605  0.5490 -0.2748
  103MOL    C7620680   7.576   0.458   6.917  0.1223  0.2631  0.0683
  103MOL    H7720681   8.033   0.546   6.949  0.7091 -0.1614  1.1444
  103MOL    H7820682   7.964   0.462   7.097 -1.9951 -0.7379 -0.2511
  103MOL    H7920683   7.746   0.317   6.964  2.9748  0.7174 -2.4845
  103MOL    H8020684   7.562   0.565   6.932 -0.2779  0.0967  0.9503
  103MOL    H8120685   7.509   0.413   6.990 -0.2769 -1.1850 -1.1792
  103MOL    C8220686   7.535   0.419   6.773 -0.0625  1.0652  0.5731
  103MOL    C8320687   7.389   0.418   6.749  0.6467  0.1469  0.2966
  103MOL   Cl8420688   7.338   0.323   6.611  0.6225 -0.5099 -0.3240
  103MOL    C8520689   7.298   0.478   6.831 -0.4774  0.4821 -0.5211
  103MOL    C8620690   7.152   0.490   6.811 -0.4273 -0.8237 -0.2771
  103MOL    H8720691   7.565   0.314   6.771 -2.3656  0.3855 -0.7503
  103MOL    H8820692   7.583   0.479   6.696  2.2675 -0.1151  1.0670
  103MOL    H8920693   7.336   0.521   6.923 -0.0829 -0.5432 -0.1929
  103MOL    H9020694   7.110   0.408   6.752  1.3377 -0.3134 -2.3215
  103MOL    H9120695   7.100   0.496   6.906  2.4339  2.7537  1.1879
  103MOL    C9220696   7.105   0.621   6.733  0.1373 -0.1247 -0.5702
  103MOL    C9320697   6.953   0.654   6.729  0.3140  0.2786 -0.1329
  103MOL   Cl9420698   6.896   0.668   6.897 -0.2123  0.1816  0.1594
  103MOL    C9520699   6.868   0.661   6.624  0.9399  0.6737 -0.0052
  103MOL    C9620700   6.896   0.625   6.480 -0.3420 -0.1887 -0.5073
  103MOL    H9720701   7.134   0.617   6.628  2.0722 -0.0797 -0.0569
  103MOL    H9820702   7.154   0.705   6.782 -1.0390  0.0772  0.2996
  103MOL    H9920703   6.766   0.692   6.642  0.6997  0.0243 -0.2547
  103MOL   H10020704   6.883   0.721   6.431  0.5836  0.2657  0.1099
  103MOL   H10120705   6.997   0.586   6.465 -0.6736 -1.4659  0.4928
  103MOL   C10220706   6.796   0.522   6.414 -0.0858 -0.6456 -0.3624
  103MOL   C10320707   6.853   0.469   6.289 -0.9441  0.1141 -0.0415
  103MOL  Cl10420708   6.910   0.306   6.306  0.0336  0.4243  0.2072
  103MOL   C10520709   6.824   0.523   6.172  0.3786  0.0089  0.2620
  103MOL   C10620710   6.859   0.466   6.035 -0.5695  0.6861  0.5000
  103MOL   H10720711   6.777   0.439   6.482 -1.6343  0.9106  1.1403
  103MOL   H10820712   6.702   0.572   6.393 -0.6900 -1.5748  0.0838
  103MOL   H10920713   6.771   0.617   6.173 -1.0305 -0.7665 -0.4360
  103MOL   H11020714   6.886   0.360   6.036  0.5817  0.9747  1.2784
  103MOL   H11120715   6.770   0.470   5.972 -0.5706 -1.7829  0.2902
  103MOL   C11220716   6.982   0.547   5.982  0.0304  0.3076 -0.2093
  103MOL   C11320717   6.956   0.690   5.938  0.5493 -0.3367  0.0010
  103MOL  Cl11420718   6.900   0.709   5.774 -0.2734 -0.0711 -0.2615
  103MOL   C11520719   6.971   0.802   6.012  0.7318  0.3672  0.2044
  103MOL   C11620720   7.019   0.814   6.159 -0.5375  0.6137 -0.0542
  103MOL   H11720721   7.065   0.547   6.052 -0.5063  1.0587  0.4276
  103MOL   H11820722   7.016   0.493   5.893 -0.9597  1.0432 -1.0420
  103MOL   H11920723   6.943   0.892   5.959 -1.1182 -1.0793 -1.3573
  103MOL   H12020724   7.036   0.717   6.204 -0.4020  0.5044 -0.3360
  103MOL   H12120725   6.921   0.850   6.190 -0.6509  1.5790 -1.4828
  103MOL   C12220726   7.134   0.907   6.185  0.8346  0.3118 -0.3219
  103MOL   C12320727   7.168   0.889   6.326 -0.0606 -0.7897  0.1484
  103MOL  Cl12420728   7.091   1.007   6.425  0.1600 -0.0036  0.3293
  103MOL   C12520729   7.251   0.793   6.379 -0.0929 -0.9174 -0.1420
  103MOL   C12620730   7.343   0.696   6.301  0.3821  0.1767 -0.0098
  103MOL   H12720731   7.223   0.878   6.131  1.2824 -0.2983  0.7351
  103MOL   H12820732   7.099   1.008   6.161 -2.3195 -0.4548  0.7289
  103MOL   H12920733   7.253   0.775   6.485  1.4841  2.3720  0.4286
  103MOL   H13020734   7.314   0.700   6.196 -0.5351  2.9419  0.3182
  103MOL   H13120735   7.444   0.736   6.313  0.3923  0.4068 -0.8375
  103MOL   C13220736   7.340   0.558   6.366 -0.4713 -0.8948 -0.0311
  103MOL   C13320737   7.408   0.454   6.278  0.6119  0.4166 -0.3229
  103MOL  Cl13420738   7.296   0.368   6.171 -0.2507  0.0850 -0.3290
  103MOL   C13520739   7.545   0.445   6.280 -0.0481 -0.1100  0.2447
  103MOL   C13620740   7.651   0.524   6.368  0.5162 -0.1326 -0.1159
  103MOL   H13720741   7.390   0.554   6.463 -1.4641  0.4219  0.5519
  103MOL   H13820742   7.235   0.527   6.376 -0.7809 -0.9681 -3.0786
  103MOL   H13920743   7.593   0.379   6.210 -1.7908  2.8486 -3.9295
  103MOL   H14020744   7.600   0.592   6.436 -0.2710  0.5873 -1.4154
  103MOL   H14120745   7.706   0.457   6.435  1.5255  2.0980  1.3165
  103MOL   C14220746   7.752   0.603   6.289 -0.4518 -0.2495 -0.5207
  103MOL   C14320747   7.844   0.697   6.368  0.1224  0.0528  0.6142
  103MOL  Cl14420748   7.761   0.789   6.486 -0.1489  0.5407  0.0229
  103MOL   C14520749   7.980   0.693   6.361 -0.2369 -0.0317 -0.9929
  103MOL   C14620750   8.085   0.766   6.446 -0.2786 -0.4992  0.3339
  103MOL   H14720751   7.708   0.669   6.215 -1.6853  0.9251  1.2093
  103MOL   H14820752   7.820   0.539   6.234  0.5895  1.3514 -1.1404
  103MOL   H14920753   8.025   0.617   6.300 -2.1423 -2.1029  0.0821
  103MOL   H15020754   8.178   0.790   6.394 -0.8624  0.1325 -0.4192
  103MOL   H15120755   8.036   0.861   6.467 -0.6916 -0.3416 -1.3050
  103MOL   C15220756   8.115   0.691   6.571 -0.4200  0.3593 -0.5471
  103MOL   C15320757   8.142   0.773   6.698  0.1251  0.8716 -0.0293
  103MOL  Cl15420758   8.287   0.708   6.780 -0.1408 -0.0308  0.0108
  103MOL   C15520759   8.072   0.878   6.744 -0.5987 -0.0500  0.2091
  103MOL   C15620760   8.095   0.954   6.874 -0.6119 -0.4033 -0.3807
  103MOL   H15720761   8.031   0.625   6.595 -0.0552  0.0011 -0.2564
  103MOL   H15820762   8.201   0.626   6.553 -0.4339  0.2030 -0.0493
  103MOL   H15920763   7.982   0.906   6.691 -1.1815 -4.6687 -1.4206
  103MOL   H16020764   8.193   0.923   6.908 -0.0486  1.2475 -0.4954
  103MOL   H16120765   8.023   0.922   6.950  0.3779  1.0449  1.1817
  103MOL   C16220766   8.078   1.112   6.858 -0.1936 -0.0755  0.2532
  103MOL   C16320767   8.120   1.191   6.976 -0.1690  0.1519 -0.3464
  103MOL  Cl16420768   7.996   1.284   7.056 -0.3552 -0.3620 -0.4070
  103MOL   C16520769   8.238   1.181   7.032  0.6681  0.0609  0.9733
  103MOL   C16620770   8.294   1.240   7.162 -0.3138 -0.2630 -0.2079
  103MOL   H16720771   8.143   1.144   6.776  1.3011  0.5241  1.6465
  103MOL   H16820772   7.976   1.137   6.829 -0.1710  0.8759  0.9606
  103MOL   H16920773   8.316   1.122   6.987 -1.6790 -0.6608 -2.3730
  103MOL   H17020774   8.391   1.290   7.157 -0.6061  0.3401  0.0541
  103MOL   H17120775   8.232   1.324   7.195 -2.2285 -1.3888 -0.8774
  103MOL   C17220776   8.288   1.134   7.278 -0.3770  0.1067  0.0720
  103MOL   C17320777   8.318   1.198   7.410 -0.5648 -0.6702  0.2122
  103MOL  Cl17420778   0.053   1.146   7.466  0.1670  0.6570  0.5503
  103MOL   C17520779   8.219   1.256   7.484  0.2224  0.3962  0.1312
  103MOL   C17620780   8.223   1.305   7.624  0.8276 -0.6754  0.2858
  103MOL   H17720781   8.347   1.044   7.264  0.4463  1.0877 -3.0758
  103MOL   H17820782   8.189   1.089   7.281  0.4930 -1.7685  3.4213
  103MOL   H17920783   8.125   1.267   7.432  0.8770  2.7548 -0.6231
  103MOL   H18020784   8.196   1.411   7.623  2.4494 -0.2610 -1.5680
  103MOL   H18120785   8.326   1.303   7.658  1.1596 -0.7117 -0.7214
  103MOL   C18220786   8.126   1.229   7.711  0.5002  0.2832  0.6503
  103MOL   C18320787   8.147   1.259   7.855 -0.1966 -0.2355  0.0435
  103MOL  Cl18420788   8.032   1.364   7.919 -0.1468  0.2137 -0.6316
  103MOL   C18520789   8.235   1.195   7.930 -1.0400  0.9945 -0.3043
  103MOL   C18620790   8.253   1.211   8.084 -0.1001 -0.1926  1.1701
  103MOL   H18720791   8.022   1.232   7.678  0.0539 -0.0436  2.0220
  103MOL   H18820792   8.146   1.122   7.709 -1.0836 -0.0127 -2.1244
  103MOL   H18920793   8.297   1.120   7.883  0.8793  1.4273  1.4473
  103MOL   H19020794   8.341   1.268   8.115 -1.2033  2.1832  0.0967
  103MOL   H19120795   8.171   1.271   8.124 -1.2997 -1.2239  0.3004
  103MOL   C19220796   8.247   1.090   8.169 -0.0024  0.1650 -0.4166
  103MOL   C19320797   8.229   1.134   8.309  1.0948 -0.4382  0.4021
  103MOL  Cl19420798   8.062   1.136   8.357  0.0271  0.1219 -0.2558
  103MOL   C19520799   8.330   1.167   8.394  0.3140 -0.3769  0.6253
  103MOL   C19620800   0.058   1.174   8.368  0.2313  0.4427 -0.4366
  103MOL   H19720801   8.329   1.018   8.164  0.8212  0.9727  1.2780
  103MOL   H19820802   8.160   1.029   8.144 -1.1387  1.3523  0.6149
  103MOL   H19920803   8.295   1.184   0.073 -0.1283 -1.1772  0.6157
  103MOL   H20020804   0.095   1.122   8.279 -1.6148 -0.3734 -0.7333
  103MOL   H20120805   0.127   1.127   0.018  1.6450  1.9510 -0.7586
  103MOL   H20220806   0.078   1.280   8.356  0.6200  0.2931 -1.1426
  104MOL     C120807   8.281   6.641   0.577  0.6809  0.0023  0.4356
  104MOL     C220808   8.366   6.746   0.640 -0.4416 -0.5226  0.0540
  104MOL    Cl320809   8.258   6.846   0.741 -0.1567 -0.0979  0.1118
  104MOL     C420810   0.076   6.768   0.617  0.1502 -0.1333  0.7528
  104MOL     C520811   0.170   6.692   0.527 -0.3235 -0.2574 -0.1168
  104MOL     H620812   8.291   6.551   0.637 -0.2339 -0.5519 -0.2276
  104MOL     H720813   8.321   6.614   0.479 -1.0190  1.3360 -0.6488
  104MOL     H820814   0.114   6.855   0.668  0.9595  0.0314 -0.1171
  104MOL     H920815   0.133   6.592   0.509  0.0862 -0.2327 -1.1149
  104MOL    H1020816   0.190   6.746   0.434 -0.0356  1.8263  1.1058
  104MOL    H1120817   8.178   6.677   0.576  0.2920 -1.1185 -0.8879
  104MOL    C1220818   0.310   6.675   0.587  0.1076 -0.1320 -0.6118
  104MOL    C1320819   0.392   6.805   0.611 -0.0320 -0.1357  0.2354
  104MOL   Cl1420820   0.378   6.867   0.771 -0.4413  0.0199 -0.2246
  104MOL    C1520821   0.476   6.863   0.522 -0.3588  0.0912  0.2143
  104MOL    C1620822   0.498   6.808   0.380 -0.1430 -0.4764 -1.0518
  104MOL    H1720823   0.317   6.616   0.679  0.5779  2.1089  0.8139
  104MOL    H1820824   0.366   6.605   0.525  0.4519 -0.1903 -0.2407
  104MOL    H1920825   0.533   6.953   0.539 -0.0567  0.4818 -2.6613
  104MOL    H2020826   0.404   6.766   0.343 -2.1480  0.1856  3.0386
  104MOL    H2120827   0.530   6.892   0.318  0.6427 -0.3380 -0.4540
  104MOL    C2220828   0.598   6.704   0.368 -1.3011  0.3213 -0.1212
  104MOL    C2320829   0.598   6.637   0.232 -0.2452 -0.2029 -0.1035
  104MOL   Cl2420830   0.672   6.739   0.115 -0.2238 -0.1574 -0.1466
  104MOL    C2520831   0.556   6.512   0.216  0.7137  0.1336 -0.6260
  104MOL    C2620832   0.562   6.421   0.100  0.4448  0.0695 -0.7315
  104MOL    H2720833   0.690   6.761   0.382 -1.5812  1.1327 -1.5060
  104MOL    H2820834   0.593   6.632   0.449  1.6375  0.8867  0.6236
  104MOL    H2920835   0.514   6.471   0.307 -1.8428  0.1644 -1.7523
  104MOL    H3020836   0.633   6.450   0.022  1.9013 -2.4592 -0.4021
  104MOL    H3120837   0.595   6.324   0.136  1.6314  0.7702  0.0733
  104MOL    C3220838   0.420   6.408   0.037  0.5387  0.3624  0.0219
  104MOL    C3320839   0.356   6.542   0.026  0.3459  1.1514  0.3109
  104MOL   Cl3420840   0.242   6.569   0.152  0.0175  0.1381 -0.1044
  104MOL    C3520841   0.375   6.640   8.346 -0.4608  0.0964 -0.6983
  104MOL    C3620842   0.298   6.770   8.335  0.4138 -0.0805 -0.2235
  104MOL    H3720843   0.425   6.359   8.360  1.9978  1.0013 -0.2397
  104MOL    H3820844   0.358   6.339   0.095  1.2722 -0.5303 -0.2350
  104MOL    H3920845   0.450   6.622   8.271 -2.7626 -1.0353 -2.8269
  104MOL    H4020846   0.250   6.780   8.238 -1.4912  0.7700  0.7670
  104MOL    H4120847   0.213   6.777   8.403  0.5752 -2.7480  0.3041
  104MOL    C4220848   0.396   6.887   8.348  0.0561  0.3386  0.4132
  104MOL    C4320849   0.364   7.014   8.271  0.1068  0.4157 -0.1247
  104MOL   Cl4420850   0.200   7.067   8.295  0.0022 -0.1277  0.1812
  104MOL    C4520851   0.445   7.090   8.197 -0.2794  0.1672 -0.0611
  104MOL    C4620852   0.592   7.069   8.173  0.0057 -0.6031  0.1102
  104MOL    H4720853   0.415   6.913   0.031  1.6752 -0.0093  0.2231
  104MOL    H4820854   0.491   6.849   8.309 -0.1178  0.6981 -0.3590
  104MOL    H4920855   0.403   7.179   8.153 -2.1039 -0.2600  0.7581
  104MOL    H5020856   0.620   6.965   8.191  2.6613  0.3843  2.1101
  104MOL    H5120857   0.625   7.092   8.072  0.7447  0.5334  0.5849
  104MOL    C5220858   0.686   7.141   8.277 -0.0749 -0.1598  0.4457
  104MOL    C5320859   0.825   7.070   8.289  0.6671  0.2411  0.0600
  104MOL   Cl5420860   0.962   7.179   8.284  0.0790  0.1058 -0.1957
  104MOL    C5520861   0.842   6.939   8.318 -0.7081  0.5438 -0.4276
  104MOL    C5620862   0.978   6.869   8.334  0.0529  0.0521  0.1923
  104MOL    H5720863   0.694   7.245   8.245 -1.0153  0.6047  2.5478
  104MOL    H5820864   0.646   7.137   8.378 -1.4792 -2.7661 -0.1553
  104MOL    H5920865   0.752   6.881   8.328 -0.0042 -0.6458 -0.8754
  104MOL    H6020866   1.058   6.915   8.276 -0.1688 -0.7770 -0.7878
  104MOL    H6120867   1.009   6.866   0.018  0.8845 -0.0194 -0.0530
  104MOL    C6220868   0.966   6.727   8.290  0.1748  0.0683  0.0977
  104MOL    C6320869   0.919   6.709   8.149  0.0210  0.2620  0.2702
  104MOL   Cl6420870   0.771   6.627   8.141 -0.1807 -0.3015  0.5966
  104MOL    C6520871   0.971   6.768   8.040 -0.5014 -0.1440  0.4624
  104MOL    C6620872   0.916   6.754   7.899  0.3936  0.4633 -0.5407
  104MOL    H6720873   1.069   6.692   8.290 -0.3028 -1.3953 -1.0258
  104MOL    H6820874   0.902   6.664   8.352  0.8364  0.1658  0.8927
  104MOL    H6920875   1.057   6.831   8.054 -1.2612  1.1427 -0.5410
  104MOL    H7020876   0.880   6.846   7.853 -0.3275  0.1368 -0.6234
  104MOL    H7120877   0.827   6.693   7.890 -0.2390  1.2117  0.4937
  104MOL    C7220878   1.037   6.707   7.815 -0.1806  0.0959 -0.6322
  104MOL    C7320879   0.996   6.708   7.666  0.4459  0.8205  0.2304
  104MOL   Cl7420880   0.924   6.562   7.620 -0.2696 -0.1595 -0.2237
  104MOL    C7520881   0.990   6.821   7.590  0.5085 -0.1160  0.2078
  104MOL    C7620882   0.924   6.822   7.453  0.2283  0.3997 -0.1982
  104MOL    H7720883   1.070   6.605   7.835 -0.3503 -0.0648 -1.1651
  104MOL    H7820884   1.127   6.767   7.829  1.3353 -2.0570 -0.8692
  104MOL    H7920885   1.015   6.922   7.618 -0.6647  0.4828 -0.8537
  104MOL    H8020886   0.840   6.889   7.472 -0.0208 -0.0244  0.1834
  104MOL    H8120887   0.863   6.735   7.426  0.7985  0.2652 -1.0729
  104MOL    C8220888   1.008   6.864   7.341  0.1498 -0.5648  0.9961
  104MOL    C8320889   0.930   6.862   7.211  0.3615  0.5451  0.2976
  104MOL   Cl8420890   0.891   7.016   7.159  0.0992 -0.3124  0.4211
  104MOL    C8520891   0.936   6.756   7.123 -0.6377  0.5056 -0.4404
  104MOL    C8620892   0.882   6.747   6.982  0.2352 -0.3763  1.0725
  104MOL    H8720893   1.087   6.789   7.339 -0.5713 -1.3033 -1.5248
  104MOL    H8820894   1.052   6.964   7.344  0.1117 -0.4809 -0.7394
  104MOL    H8920895   0.980   6.663   7.156 -1.6795  0.6535  1.4714
  104MOL    H9020896   0.832   6.838   6.950  1.5104  0.2589  0.8529
  104MOL    H9120897   0.979   6.739   6.933 -0.2315  1.9564 -0.2590
  104MOL    C9220898   0.783   6.629   6.977  0.1102  0.3049 -0.1806
  104MOL    C9320899   0.746   6.611   6.824  0.1910  1.0574 -1.0624
  104MOL   Cl9420900   0.794   6.457   6.755 -0.5272 -0.4378 -0.2686
  104MOL    C9520901   0.671   6.688   6.748  0.0945 -0.1817  0.3365
  104MOL    C9620902   0.599   6.810   6.793 -0.5143 -0.6529 -0.7827
  104MOL    H9720903   0.701   6.635   7.049 -0.6764 -0.7761 -0.9580
  104MOL    H9820904   0.834   6.535   6.993  1.1212  0.6803 -1.1168
  104MOL    H9920905   0.653   6.663   6.644 -0.3281  2.2970 -0.2082
  104MOL   H10020906   0.496   6.775   6.780 -1.4359  1.3671  0.8208
  104MOL   H10120907   0.625   6.829   6.897 -1.3854 -0.4145 -0.6050
  104MOL   C10220908   0.642   6.933   6.714 -0.3012 -0.2859 -0.0456
  104MOL   C10320909   0.553   7.053   6.739  0.5267 -0.1540 -0.6483
  104MOL  Cl10420910   0.651   7.186   6.797  0.2810 -0.0769 -0.0491
  104MOL   C10520911   0.418   7.048   6.723  0.2790 -0.6826 -0.4677
  104MOL   C10620912   0.312   7.153   6.747 -0.6701 -0.2684  0.1767
  104MOL   H10720913   0.746   6.955   6.740 -0.6398  2.4125 -0.7747
  104MOL   H10820914   0.629   6.919   6.607 -1.7351 -0.7147  0.1764
  104MOL   H10920915   0.374   6.955   6.690 -0.0123  0.4841 -3.4738
  104MOL   H11020916   0.361   7.236   6.799 -2.9528  0.6713  0.8973
  104MOL   H11120917   0.283   7.192   6.650 -2.5158 -0.6471  0.5557
  104MOL   C11220918   0.185   7.106   6.821 -0.5741  0.1012  0.3560
  104MOL   C11320919   0.092   7.223   6.845 -0.0686 -1.1413  0.1751
  104MOL  Cl11420920   0.098   7.296   7.005 -0.2199 -0.4631  0.4814
  104MOL   C11520921   0.006   7.278   6.758  0.6095  0.3205 -0.4570
  104MOL   C11620922   0.001   7.242   6.608  0.4970  0.1875 -0.3579
  104MOL   H11720923   0.129   7.029   6.768  1.5843 -0.6997 -0.8181
  104MOL   H11820924   0.204   7.058   6.917  1.1371 -0.8950 -0.4506
  104MOL   H11920925   8.356   7.355   6.785  0.2225 -0.5349  1.0674
  104MOL   H12020926   8.321   7.204   6.592  0.0043  0.5007  1.8616
  104MOL   H12120927   0.068   7.159   6.587 -0.5623 -0.8232  0.1989
  104MOL   C12220928   0.031   7.361   6.515 -0.3480  1.0908 -0.6414
  104MOL   C12320929   8.354   7.375   6.405 -0.0245 -0.2218 -0.4528
  104MOL  Cl12420930   8.331   7.242   6.304  0.2640  0.2263 -0.0608
  104MOL   C12520931   8.267   7.473   6.385 -0.7111  0.6614 -1.2945
  104MOL   C12620932   8.249   7.599   6.465 -0.7013  0.3725 -0.4204
  104MOL   H12720933   0.049   7.451   6.575  0.9615 -0.2142  0.9659
  104MOL   H12820934   0.125   7.347   6.464  1.1138  0.0378  2.2242
  104MOL   H12920935   8.202   7.467   6.299 -1.3686  1.6935 -0.8869
  104MOL   H13020936   8.334   7.618   6.529 -1.7306  2.9381  0.2341
  104MOL   H13120937   8.248   7.687   6.401  0.3553  0.7073  0.0252
  104MOL   C13220938   8.126   7.590   6.544 -0.1075 -0.1331 -0.3027
  104MOL   C13320939   8.113   7.716   6.631  0.0330  0.4511 -0.3643
  104MOL  Cl13420940   8.224   7.704   6.768  0.2550 -0.0166 -0.4939
  104MOL   C13520941   8.045   7.828   6.597  0.3883 -0.1146  0.2491
  104MOL   C13620942   7.975   7.858   6.468 -0.2538 -0.6817  0.1452
  104MOL   H13720943   8.041   7.562   6.481 -0.0849 -2.7175  0.7392
  104MOL   H13820944   8.134   7.516   6.623  0.0140  1.0622  0.8184
  104MOL   H13920945   8.044   7.910   6.667 -3.0075  1.0161 -1.0138
  104MOL   H14020946   7.994   7.772   6.403  1.7296  2.0074 -3.0079
  104MOL   H14120947   7.866   7.859   6.473 -0.2518  0.9540 -0.0896
  104MOL   C14220948   8.030   7.981   6.396  0.2923 -0.6851  0.3710
  104MOL   C14320949   7.930   8.016   6.287 -0.0688 -0.4686  0.2671
  104MOL  Cl14420950   7.900   7.896   6.172  0.1194  0.0865 -0.2501
  104MOL   C14520951   7.870   8.136   6.280 -0.1002 -0.2810 -0.7031
  104MOL   C14620952   7.779   8.189   6.174 -0.3707 -0.0462  0.2604
  104MOL   H14720953   8.128   7.958   6.354  0.4423  0.1271  0.2739
  104MOL   H14820954   8.049   8.056   6.472 -0.6968 -0.6349  0.5712
  104MOL   H14920955   7.886   8.200   6.365 -0.1309  1.0698 -1.7082
  104MOL   H15020956   7.839   8.272   6.135  1.6231 -2.4093 -1.8928
  104MOL   H15120957   7.774   8.124   6.086 -1.3114  0.5303 -0.1205
  104MOL   C15220958   7.638   8.231   6.213 -0.4207 -0.2748  0.9512
  104MOL   C15320959   7.552   8.294   6.108  0.0626 -0.2376  0.0446
  104MOL  Cl15420960   7.562   0.050   6.118  0.0894 -0.2131  0.1647
  104MOL   C15520961   7.475   8.225   6.020 -0.2740  0.0993 -0.1195
  104MOL   C15620962   7.386   8.283   5.905 -0.0033  0.1569 -0.6017
  104MOL   H15720963   7.581   8.148   6.255 -1.2787 -0.1248  0.1181
  104MOL   H15820964   7.636   8.295   6.301  0.9184  0.6637  0.3047
  104MOL   H15920965   7.483   8.118   6.034  2.2323  0.6230  3.1595
  104MOL   H16020966   7.355   8.388   5.911 -0.0642  0.2833 -2.7047
  104MOL   H16120967   7.296   8.222   5.912 -0.8001  1.1804 -1.7579
  104MOL   C16220968   7.440   8.260   5.763  0.2412 -0.4101 -0.0703
  104MOL   C16320969   7.518   8.133   5.727 -0.0539  0.0338  0.3442
  104MOL  Cl16420970   7.464   7.993   5.811  0.2202 -0.0578  0.0273
  104MOL   C16520971   7.631   8.142   5.652  0.6408 -0.2226 -0.3497
  104MOL   C16620972   7.725   8.022   5.626 -0.5005  0.7527  0.3592
  104MOL   H16720973   7.357   8.290   5.698  0.0057  0.2175  0.5181
  104MOL   H16820974   7.508   8.344   5.749 -0.1128 -0.3183 -1.2829
  104MOL   H16920975   7.663   8.236   5.608 -0.0513  0.7920  1.2662
  104MOL   H17020976   7.666   7.931   5.636  0.6648 -0.0017  0.4447
  104MOL   H17120977   7.762   8.026   5.523  0.1830 -1.0340  0.5216
  104MOL   C17220978   7.847   8.012   5.725  0.0365 -0.6990 -0.0704
  104MOL   C17320979   7.942   7.900   5.686 -0.0224 -0.2196 -0.3473
  104MOL  Cl17420980   7.935   7.767   5.799  0.1656  0.5288  0.0204
  104MOL   C17520981   8.037   7.907   5.592  0.4965  0.1221  0.5370
  104MOL   C17620982   8.126   7.795   5.546  1.0239  0.0076  0.2885
  104MOL   H17720983   7.807   7.997   5.825 -2.5073 -1.8921 -1.2415
  104MOL   H17820984   7.906   8.104   5.729 -1.7242  0.3865  1.9475
  104MOL   H17920985   8.043   8.002   5.541  1.5145 -0.0608  0.3150
  104MOL   H18020986   8.114   7.701   5.599 -0.4011  1.0339  1.8338
  104MOL   H18120987   8.224   7.841   5.559  1.2955 -0.4118 -0.2400
  104MOL   C18220988   8.114   7.751   5.392  0.4041  0.2288  0.3013
  104MOL   C18320989   8.218   7.660   5.335 -0.1730 -0.3646 -0.0144
  104MOL  Cl18420990   8.372   7.654   5.424  0.0324 -0.3239 -0.1381
  104MOL   C18520991   8.192   7.581   5.229  0.0767  0.3191  0.9292
  104MOL   C18620992   8.287   7.483   5.160  0.2809 -0.5745 -0.0092
  104MOL   H18720993   8.017   7.707   5.369  1.3688 -1.0314 -1.4971
  104MOL   H18820994   8.103   7.842   5.334 -1.0389  1.4338  2.3972
  104MOL   H18920995   8.096   7.599   5.183  0.2860  1.0080  0.7480
  104MOL   H19020996   8.380   7.488   5.218 -0.5897 -1.1252  1.4592
  104MOL   H19120997   8.250   7.382   5.173 -1.3730  0.1590  1.1140
  104MOL   C19220998   8.314   7.517   5.017  0.1217  0.2749  0.3123
  104MOL   C19320999   8.403   7.409   4.946  0.4810  0.2527  0.3420
  104MOL  Cl19421000   8.293   7.289   4.878 -0.0875 -0.0404  0.2955
  104MOL   C19521001   0.112   7.416   4.914 -0.4106  0.3761 -0.4500
  104MOL   C19621002   0.206   7.524   4.940 -0.4785  0.3551  0.3506
  104MOL   H19721003   8.362   7.614   5.009 -0.1924  0.3222 -1.1503
  104MOL   H19821004   8.217   7.516   4.967  1.0903  3.2492 -1.7475
  104MOL   H19921005   0.156   7.337   4.855 -1.8182 -1.6459  1.1545
  104MOL   H20021006   0.296   7.481   4.984 -0.9801  0.6739  1.7220
  104MOL   H20121007   0.159   7.610   4.988 -1.2004  0.0164  0.2714
  104MOL   H20221008   0.240   7.563   4.845  1.4376  0.2093  0.9623
  105MOL     C121009   5.713   5.549   4.953  0.4540 -0.2219 -0.2796
  105MOL     C221010   5.713   5.590   4.806  0.3903  0.7714  0.0047
  105MOL    Cl321011   5.848   5.694   4.766 -0.2208  0.0046  0.0563
  105MOL     C421012   5.629   5.541   4.712 -0.9668 -0.4978 -0.4993
  105MOL     C521013   5.512   5.440   4.739 -0.4535  0.1776  0.3018
  105MOL     H621014   5.788   5.603   5.010 -1.0717  2.5529 -0.8030
  105MOL     H721015   5.719   5.443   4.978  0.4123  0.2056  1.6226
  105MOL     H821016   5.648   5.564   4.608  2.6940  0.0611  0.2408
  105MOL     H921017   5.465   5.384   4.658 -0.6038  0.2698  0.3236
  105MOL    H1021018   5.561   5.370   4.807 -2.4520 -1.6179 -0.0627
  105MOL    H1121019   5.623   5.588   5.001  0.7526 -0.1386  0.2154
  105MOL    C1221020   5.381   5.497   4.794 -0.3245 -0.0892 -0.5260
  105MOL    C1321021   5.289   5.384   4.837 -0.0281  0.3911 -0.0928
  105MOL   Cl1421022   5.199   5.305   4.705 -0.2389 -0.0511 -0.0542
  105MOL    C1521023   5.285   5.348   4.966  0.0187 -0.2860  0.0195
  105MOL    C1621024   5.361   5.405   5.087 -0.7997  0.1427 -0.1794
  105MOL    H1721025   5.409   5.569   4.871 -3.2441 -0.0580  0.5750
  105MOL    H1821026   5.332   5.567   4.727  0.2428 -1.0351 -1.9572
  105MOL    H1921027   5.214   5.270   4.987 -0.2650 -0.1828 -0.5497
  105MOL    H2021028   5.444   5.468   5.052 -1.1872 -0.0454 -1.4476
  105MOL    H2121029   5.281   5.456   5.140 -1.7491  0.7330 -2.1256
  105MOL    C2221030   5.430   5.296   5.163  0.7837 -0.2918 -0.1050
  105MOL    C2321031   5.504   5.344   5.291  0.2034 -0.6511 -0.4888
  105MOL   Cl2421032   5.410   5.330   5.430  0.3874 -0.0522 -0.2644
  105MOL    C2521033   5.629   5.396   5.297  0.1442 -0.2946  0.4829
  105MOL    C2621034   5.699   5.438   5.424  0.1423 -0.8218 -0.0215
  105MOL    H2721035   5.362   5.211   5.177  0.1329  0.4925  1.5598
  105MOL    H2821036   5.498   5.234   5.104 -0.7051 -0.2610 -1.9314
  105MOL    H2921037   5.685   5.411   5.206 -1.8057 -2.2142 -1.1009
  105MOL    H3021038   5.710   5.545   5.406 -1.9656 -0.8154 -1.5516
  105MOL    H3121039   5.643   5.434   5.518  1.9903  0.8330  1.1945
  105MOL    C3221040   5.832   5.371   5.452  0.0090  0.0677  0.7174
  105MOL    C3321041   5.925   5.435   5.556 -0.2171  0.6906 -0.6670
  105MOL   Cl3421042   6.071   5.496   5.492 -0.5983 -0.0663  0.0326
  105MOL    C3521043   5.898   5.437   5.685  0.6728  0.5562 -0.0503
  105MOL    C3621044   5.985   5.488   5.802 -0.3520 -0.2366 -0.7040
  105MOL    H3721045   5.807   5.269   5.483  1.9953  0.0418  2.3051
  105MOL    H3821046   5.889   5.368   5.359  1.0483  0.0467  1.3500
  105MOL    H3921047   5.808   5.393   5.724  0.5201  1.6245  0.8498
  105MOL    H4021048   6.011   5.396   5.856  1.3000  1.5342  1.6096
  105MOL    H4121049   6.068   5.540   5.755  0.1646  1.2078  1.7210
  105MOL    C4221050   5.931   5.587   5.910 -0.0610  0.3305 -0.7799
  105MOL    C4321051   6.037   5.614   6.011 -0.3024  0.4712 -0.2257
  105MOL   Cl4421052   6.141   5.743   5.972  0.3484  0.1270 -0.1750
  105MOL    C4521053   6.041   5.563   6.133  0.6015 -0.0333  0.8308
  105MOL    C4621054   5.953   5.457   6.186 -0.1980 -0.0657 -0.4982
  105MOL    H4721055   5.905   5.681   5.862  0.8660  1.2081  0.4162
  105MOL    H4821056   5.841   5.544   5.954 -0.0859  0.5260 -0.6388
  105MOL    H4921057   6.113   5.600   6.205  0.4554 -2.9322  2.5511
  105MOL    H5021058   5.882   5.419   6.113 -0.5387 -3.0906  1.3144
  105MOL    H5121059   6.017   5.374   6.214  1.3511  1.4542  0.5827
  105MOL    C5221060   5.874   5.506   6.309 -0.3114 -0.9709  0.1919
  105MOL    C5321061   5.754   5.600   6.272 -0.5936 -0.4250  0.1469
  105MOL   Cl5421062   5.600   5.525   6.281 -0.3446 -0.4864  0.2448
  105MOL    C5521063   5.780   5.726   6.226 -0.1407 -0.9821 -0.5283
  105MOL    C5621064   5.668   5.819   6.175 -0.1288  0.0753 -0.4465
  105MOL    H5721065   5.841   5.419   6.366  0.6444 -1.1675  0.4619
  105MOL    H5821066   5.931   5.574   6.373 -1.0732  0.8848 -1.0589
  105MOL    H5921067   5.877   5.773   6.221  0.2050 -1.5108  0.8932
  105MOL    H6021068   5.577   5.775   6.215 -0.2167 -0.1903 -0.9387
  105MOL    H6121069   5.676   5.912   6.230 -0.1193 -0.5788  0.6791
  105MOL    C6221070   5.664   5.845   6.020 -0.0477  0.0316  0.5754
  105MOL    C6321071   5.562   5.961   5.983 -0.3629  0.8439  0.6474
  105MOL   Cl6421072   5.635   6.119   5.966  0.3788 -0.0624 -0.3010
  105MOL    C6521073   5.439   5.939   5.942 -0.0008  0.3043 -0.4118
  105MOL    C6621074   5.332   6.047   5.901  0.0791  0.2146 -0.4248
  105MOL    H6721075   5.761   5.855   5.973  0.2683 -2.5206  0.6560
  105MOL    H6821076   5.636   5.756   5.964 -0.1017 -0.2030  0.9762
  105MOL    H6921077   5.405   5.837   5.935 -0.2649  0.4130 -0.6700
  105MOL    H7021078   5.360   6.144   5.942  1.5586 -0.5552  0.4404
  105MOL    H7121079   5.239   6.021   5.951  0.0646  2.7452  0.9092
  105MOL    C7221080   5.329   6.064   5.744 -0.3500  0.1480  0.5877
  105MOL    C7321081   5.262   6.194   5.694 -0.3457  0.8104  0.4605
  105MOL   Cl7421082   5.093   6.168   5.664 -0.3635  0.3562 -0.4681
  105MOL    C7521083   5.328   6.311   5.686  0.1931 -0.4067  0.2973
  105MOL    C7621084   5.267   6.453   5.654 -0.9587  0.1992  0.4054
  105MOL    H7721085   5.297   5.978   5.686  2.5337 -0.5518 -0.0113
  105MOL    H7821086   5.433   6.065   5.711 -0.2637 -1.1009  0.7922
  105MOL    H7921087   5.433   6.299   5.706  0.5722  0.6376 -0.9345
  105MOL    H8021088   5.262   6.511   5.746  0.0734  2.8396 -1.1550
  105MOL    H8121089   5.166   6.432   5.617 -0.0784 -1.6370 -1.0646
  105MOL    C8221090   5.365   6.512   5.553 -0.4974 -0.4536 -0.6011
  105MOL    C8321091   5.348   6.656   5.509  0.3512  1.2830  0.7319
  105MOL   Cl8421092   5.214   6.669   5.406  0.2058 -0.4025  0.1946
  105MOL    C8521093   5.435   6.755   5.536  0.3656 -0.2452 -0.3494
  105MOL    C8621094   5.430   6.896   5.485 -0.6323  0.0487  0.3362
  105MOL    H8721095   5.377   6.463   5.456 -1.0467  1.8404 -1.8712
  105MOL    H8821096   5.465   6.506   5.597 -0.7067 -0.1086 -0.0826
  105MOL    H8921097   5.516   6.728   5.603  0.4153  2.5601  0.7721
  105MOL    H9021098   5.517   6.896   5.419 -0.0203  0.7951  1.1286
  105MOL    H9121099   5.340   6.921   5.429 -1.0600 -1.4229  0.3644
  105MOL    C9221100   5.465   7.003   5.595 -0.0315  0.5020  0.1646
  105MOL    C9321101   5.469   7.145   5.544  0.6222 -0.2406 -0.4451
  105MOL   Cl9421102   5.322   7.235   5.578 -0.3174 -0.1728  0.2310
  105MOL    C9521103   5.572   7.212   5.489 -0.9337 -0.6797  0.0209
  105MOL    C9621104   5.713   7.166   5.457  0.2643  0.3059  0.0075
  105MOL    H9721105   5.569   6.980   5.618 -0.0099  0.5010  0.0623
  105MOL    H9821106   5.406   6.992   5.686  0.3419 -1.2617  0.2135
  105MOL    H9921107   5.568   7.317   5.465  0.9292 -0.3777  0.8902
  105MOL   H10021108   5.713   7.057   5.463 -0.2697  0.3635  1.3831
  105MOL   H10121109   5.748   7.192   5.357  2.4428 -1.7824  0.1754
  105MOL   C10221110   5.810   7.222   5.555  0.2044  0.5033  1.0886
  105MOL   C10321111   5.928   7.125   5.569 -0.2307  0.2778  0.2798
  105MOL  Cl10421112   5.901   7.000   5.678  0.2179  0.3156 -0.3979
  105MOL   C10521113   6.042   7.125   5.499 -0.2442  0.0331  0.8570
  105MOL   C10621114   6.149   7.012   5.496  0.8142  0.4179  0.4005
  105MOL   H10721115   5.850   7.308   5.501 -1.7539  1.3571  0.9191
  105MOL   H10821116   5.762   7.259   5.646  0.9163  3.2222  0.4071
  105MOL   H10921117   6.058   7.207   5.430  1.2048  0.9518  2.2461
  105MOL   H11021118   6.235   7.023   5.562 -0.1550  0.2417  1.7352
  105MOL   H11121119   6.109   6.915   5.529  2.0801 -0.2923 -0.1246
  105MOL   C11221120   6.201   6.988   5.357  0.5226 -0.3187  0.9345
  105MOL   C11321121   6.311   7.084   5.323  0.4920  0.4439 -0.1120
  105MOL  Cl11421122   6.453   7.055   5.416  0.0363 -0.2838  0.1327
  105MOL   C11521123   6.321   7.166   5.217  0.4729 -0.2109 -1.1346
  105MOL   C11621124   6.211   7.195   5.113 -0.1189 -0.7618 -0.2136
  105MOL   H11721125   6.239   6.887   5.340 -1.6293 -1.1644  0.9980
  105MOL   H11821126   6.117   6.983   5.287  0.5321  0.0599  0.8962
  105MOL   H11921127   6.414   7.218   5.196 -0.0273  0.2151 -2.3230
  105MOL   H12021128   6.109   7.169   5.139  0.0823  0.3646  1.8184
  105MOL   H12121129   6.239   7.157   5.015  0.6552 -0.6835 -0.0302
  105MOL   C12221130   6.215   7.346   5.097  0.4002  0.5329  0.5974
  105MOL   C12321131   6.105   7.405   5.023  0.1250 -0.5657  0.5893
  105MOL  Cl12421132   6.142   7.424   4.853 -0.0400  0.4512  0.0600
  105MOL   C12521133   5.992   7.454   5.079  0.3028  0.8158 -0.0846
  105MOL   C12621134   5.950   7.442   5.223  0.4701  0.5519  0.1276
  105MOL   H12721135   6.219   7.403   5.190 -0.4448  1.2269  0.2253
  105MOL   H12821136   6.304   7.368   5.039 -1.0719  0.1235 -1.9028
  105MOL   H12921137   5.929   7.507   5.009  0.4196 -1.2498 -1.7898
  105MOL   H13021138   5.857   7.388   5.237  0.7363 -0.3143 -1.3552
  105MOL   H13121139   6.024   7.394   5.288  0.2541  0.4996  0.3352
  105MOL   C13221140   5.944   7.584   5.273  0.4725 -0.0743 -0.8365
  105MOL   C13321141   5.862   7.593   5.396 -0.0018 -0.6369 -0.9184
  105MOL  Cl13421142   5.699   7.605   5.367 -0.0885  0.5605 -0.0752
  105MOL   C13521143   5.909   7.606   5.528  0.5539 -0.1653  0.6463
  105MOL   C13621144   6.046   7.598   5.578 -0.1835 -0.4710  0.0049
  105MOL   H13721145   6.042   7.626   5.295  0.8113 -1.3805  0.2176
  105MOL   H13821146   5.886   7.642   5.201  0.6227 -0.9658 -1.6760
  105MOL   H13921147   5.832   7.619   5.602  1.0072 -2.9480  1.6768
  105MOL   H14021148   6.065   7.493   5.599  1.4081 -0.5426 -1.7390
  105MOL   H14121149   6.107   7.619   5.490  2.4398 -1.8435  1.4157
  105MOL   C14221150   6.080   7.695   5.687 -0.0481 -0.5162 -0.1221
  105MOL   C14321151   6.113   7.628   5.818 -0.2940  0.5430 -0.0203
  105MOL  Cl14421152   5.960   7.584   5.894 -0.0404 -0.0121  0.4785
  105MOL   C14521153   6.238   7.606   5.868  0.3018 -0.3465  0.3475
  105MOL   C14621154   6.261   7.546   6.005  0.4487  0.0005  0.6084
  105MOL   H14721155   6.008   7.775   5.706  1.8856  1.7253 -1.7986
  105MOL   H14821156   6.177   7.738   5.658 -0.0034 -0.6523 -0.1744
  105MOL   H14921157   6.325   7.626   5.806 -0.4819 -0.4375 -0.7823
  105MOL   H15021158   6.184   7.476   6.036  0.3808  0.5320  1.6537
  105MOL   H15121159   6.357   7.493   6.006  0.6461  0.3512  2.3013
  105MOL   C15221160   6.271   7.667   6.108  0.2895  0.2862 -0.2799
  105MOL   C15321161   6.299   7.627   6.248 -0.1419 -0.2307  0.1739
  105MOL  Cl15421162   6.293   7.762   6.351  0.0023  0.1175 -0.0781
  105MOL   C15521163   6.309   7.495   6.295 -0.1205 -0.0001 -0.0765
  105MOL   C15621164   6.320   7.456   6.441 -0.4047  0.3649 -0.0774
  105MOL   H15721165   6.350   7.734   6.076 -1.0696  1.6741 -0.8021
  105MOL   H15821166   6.182   7.730   6.100  0.3560  0.6400  1.5059
  105MOL   H15921167   6.298   7.410   6.229  0.5888 -0.3138  0.2066
  105MOL   H16021168   6.225   7.409   6.467 -1.0633  1.0467 -1.2011
  105MOL   H16121169   6.343   7.533   6.514  2.6062  0.5092 -1.1173
  105MOL   C16221170   6.428   7.352   6.469 -0.1319 -0.3101 -0.2263
  105MOL   C16321171   6.452   7.319   6.615 -0.3109  0.0137 -0.2010
  105MOL  Cl16421172   6.554   7.429   6.696  0.2627  0.0241  0.0499
  105MOL   C16521173   6.405   7.209   6.682  0.2308  0.0371  0.4466
  105MOL   C16621174   6.422   7.164   6.825  0.0251  0.0426  0.0489
  105MOL   H16721175   6.392   7.263   6.418 -0.8775  0.7164 -1.5443
  105MOL   H16821176   6.526   7.376   6.430  0.0325 -0.0276  0.3533
  105MOL   H16921177   6.352   7.140   6.618 -0.2648  0.8200 -0.0098
  105MOL   H17021178   6.483   7.075   6.839  1.0422  0.2252 -2.9709
  105MOL   H17121179   6.462   7.245   6.886 -0.7117  1.3739 -1.1895
  105MOL   C17221180   6.283   7.127   6.883  0.4160 -0.6290  0.4793
  105MOL   C17321181   6.274   7.097   7.026 -0.5593 -0.9539  0.6178
  105MOL  Cl17421182   6.254   6.929   7.060  0.2073 -0.3718 -0.0149
  105MOL   C17521183   6.284   7.193   7.125  0.2566 -0.0637 -0.6883
  105MOL   C17621184   6.287   7.169   7.274 -0.0480 -0.1279  0.0251
  105MOL   H17721185   6.242   7.043   6.828  0.4483  0.0756 -0.6425
  105MOL   H17821186   6.210   7.207   6.870 -0.4678 -1.7576 -1.7156
  105MOL   H17921187   6.293   7.298   7.103 -1.3242  0.3291  0.4494
  105MOL   H18021188   6.223   7.083   7.294  1.4460 -1.0527  0.8883
  105MOL   H18121189   6.236   7.255   7.316 -1.8049 -2.1921  2.2754
  105MOL   C18221190   6.430   7.144   7.320 -0.3514  0.9627 -0.7245
  105MOL   C18321191   6.494   7.008   7.273  0.2969  0.3947  0.0026
  105MOL  Cl18421192   6.595   7.019   7.126 -0.0908  0.2755  0.2291
  105MOL   C18521193   6.478   6.893   7.337  0.3044 -0.9789 -0.0364
  105MOL   C18621194   6.541   6.758   7.301 -0.2790  0.3306  0.2181
  105MOL   H18721195   6.487   7.229   7.281  0.9643 -0.4257 -1.8551
  105MOL   H18821196   6.435   7.142   7.429  0.8808 -0.4912 -0.8032
  105MOL   H18921197   6.415   6.890   7.424  1.4048 -2.9192  0.7159
  105MOL   H19021198   6.604   6.766   7.212 -0.8493  0.2090 -0.1948
  105MOL   H19121199   6.618   6.726   7.372  0.0739 -3.1026 -1.6002
  105MOL   C19221200   6.430   6.658   7.270  0.5436  0.5651 -0.4191
  105MOL   C19321201   6.356   6.622   7.397  0.0866  0.1116 -0.2465
  105MOL  Cl19421202   6.463   6.544   7.505 -0.0818 -0.1025  0.2458
  105MOL   C19521203   6.233   6.660   7.432  0.0268  0.3493  0.4854
  105MOL   C19621204   6.147   6.750   7.342 -0.0982  0.2369  0.2014
  105MOL   H19721205   6.482   6.568   7.238  2.1529  2.3873 -3.1607
  105MOL   H19821206   6.364   6.675   7.185 -1.6860 -0.7248  1.0013
  105MOL   H19921207   6.183   6.637   7.525  1.4370 -0.2013  1.1126
  105MOL   H20021208   6.145   6.728   7.235 -3.4855 -1.5408  0.5405
  105MOL   H20121209   6.167   6.855   7.361 -0.2479  0.5470 -1.2474
  105MOL   H20221210   6.044   6.728   7.372  0.2082 -2.0469 -0.3245
  106MOL     C121211   7.675   7.699   3.481 -0.8079 -0.1738 -0.4903
  106MOL     C221212   7.798   7.712   3.570 -0.6575 -0.2108 -0.1650
  106MOL    Cl321213   7.882   7.562   3.553  0.2049 -0.4006 -0.1434
  106MOL     C421214   7.827   7.809   3.655 -0.0339 -0.0915 -0.5378
  106MOL     C521215   7.748   7.931   3.684 -0.1873 -0.9130 -0.0207
  106MOL     H621216   7.616   7.790   3.481 -1.7722 -0.7902 -0.8096
  106MOL     H721217   7.609   7.619   3.516 -1.0957 -0.2332 -1.1575
  106MOL     H821218   7.913   7.804   3.720 -0.2451  0.7744 -0.1827
  106MOL     H921219   7.662   7.942   3.618 -1.3466 -4.0671  0.8607
  106MOL    H1021220   7.710   7.913   3.785  1.6485  1.3709  1.1410
  106MOL    H1121221   7.712   7.667   3.384 -2.2244  1.3692 -1.5645
  106MOL    C1221222   7.834   8.051   3.678 -0.0221 -0.4364 -0.8791
  106MOL    C1321223   7.748   8.176   3.691 -0.0754  0.2406 -0.4478
  106MOL   Cl1421224   7.717   8.258   3.545  0.0212  0.7977  0.0196
  106MOL    C1521225   7.703   8.228   3.803  1.1737 -0.1962 -0.0761
  106MOL    C1621226   7.726   8.186   3.944 -0.8492  0.3010 -0.6041
  106MOL    H1721227   7.903   8.034   3.760 -1.3911  0.1404  0.4149
  106MOL    H1821228   7.887   8.061   3.583  1.0776 -0.3290 -0.2546
  106MOL    H1921229   7.646   8.319   3.810 -1.2476 -1.7653  1.2970
  106MOL    H2021230   7.774   8.089   3.956 -0.2829  0.5247 -1.0531
  106MOL    H2121231   7.795   8.252   3.996 -0.0393 -0.3842 -0.7865
  106MOL    C2221232   7.593   8.193   4.019  0.2981  0.3060 -0.7538
  106MOL    C2321233   7.607   8.190   4.172  0.0805 -0.8943 -0.4741
  106MOL   Cl2421234   7.593   8.034   4.239 -0.2503 -0.2904  0.0655
  106MOL    C2521235   7.626   8.302   4.243 -0.8806 -0.0709 -0.5944
  106MOL    C2621236   7.635   8.319   4.391  0.3266  0.3876  0.0701
  106MOL    H2721237   7.532   8.280   3.996 -0.0672  0.6581  1.4540
  106MOL    H2821238   7.532   8.110   3.982 -1.6094  1.1460  0.4559
  106MOL    H2921239   7.631   8.400   4.197 -2.1895  0.1534 -0.2815
  106MOL    H3021240   7.627   8.221   4.437 -0.4423  0.7801  0.8012
  106MOL    H3121241   7.736   8.353   4.411  0.6819 -0.5132 -0.1826
  106MOL    C3221242   7.519   8.416   4.438 -0.2501 -0.1681  0.8750
  106MOL    C3321243   7.382   8.349   4.434 -0.0125  0.8793  0.2823
  106MOL   Cl3421244   7.276   8.408   4.311 -0.4587  0.3971 -0.5831
  106MOL    C3521245   7.349   8.246   4.515 -0.4456  0.2253 -0.2792
  106MOL    C3621246   7.224   8.160   4.490  0.2828  0.6258  0.2397
  106MOL    H3721247   7.536   0.032   4.540 -0.9753  1.2869  0.4783
  106MOL    H3821248   7.532   0.081   4.373  0.8316  1.1592  2.7654
  106MOL    H3921249   7.412   8.211   4.595 -0.9503 -0.3600 -0.1284
  106MOL    H4021250   7.160   8.157   4.579 -0.5240  1.5537 -0.2988
  106MOL    H4121251   7.165   8.206   4.411  3.2359  2.6045 -0.8817
  106MOL    C4221252   7.272   8.026   4.449 -0.4354  0.1619 -0.6647
  106MOL    C4321253   7.170   7.919   4.432 -0.0120 -0.4192 -0.9129
  106MOL   Cl4421254   7.006   7.979   4.447 -0.2991  0.1042  0.1097
  106MOL    C4521255   7.195   7.791   4.406 -0.2531  0.1954  0.9487
  106MOL    C4621256   7.332   7.730   4.392  0.0497  0.2071 -0.2099
  106MOL    H4721257   7.319   8.039   4.352  0.0499 -0.9647 -0.5882
  106MOL    H4821258   7.346   7.994   4.522 -0.6633  0.8892 -0.1097
  106MOL    H4921259   7.114   7.722   4.386  3.0127 -3.6784  0.3924
  106MOL    H5021260   7.402   7.809   4.364  0.5883 -0.2654 -0.2237
  106MOL    H5121261   7.363   7.706   4.494  0.2269 -0.1875 -0.3555
  106MOL    C5221262   7.327   7.613   4.290 -0.3478  0.6293 -0.5385
  106MOL    C5321263   7.325   7.645   4.151  0.0557  0.7602 -0.1610
  106MOL   Cl5421264   7.312   7.503   4.051 -0.2551 -0.0382 -0.4141
  106MOL    C5521265   7.311   7.763   4.099  0.3057 -0.4847 -0.0200
  106MOL    C5621266   7.308   7.805   3.953 -0.7201  0.0774  0.1724
  106MOL    H5721267   7.428   7.575   4.305  0.5766  3.0130 -0.5103
  106MOL    H5821268   7.250   7.539   4.312 -0.6374  0.4115 -2.2383
  106MOL    H5921269   7.302   7.844   4.169 -3.1755 -2.9684  2.6306
  106MOL    H6021270   7.408   7.790   3.911  0.0891 -0.0140  2.0776
  106MOL    H6121271   7.245   7.730   3.905  0.0923 -0.6225  0.1931
  106MOL    C6221272   7.266   7.945   3.927 -0.3078  0.1415 -1.3007
  106MOL    C6321273   7.236   7.975   3.782  0.6221  0.3140  0.3404
  106MOL   Cl6421274   7.056   7.973   3.741  0.2720  0.1366 -0.0607
  106MOL    C6521275   7.326   8.013   3.692  0.1769  0.1309  0.7786
  106MOL    C6621276   7.286   8.044   3.548  0.5144  0.2506 -0.6292
  106MOL    H6721277   7.168   7.948   3.973 -0.0617  1.0870 -0.8166
  106MOL    H6821278   7.327   8.023   3.974 -2.5755 -0.8269  3.6006
  106MOL    H6921279   7.431   8.011   3.713  0.1451  0.9639  1.0260
  106MOL    H7021280   7.236   8.139   3.529  1.8093  0.9238 -0.7020
  106MOL    H7121281   7.217   7.962   3.524  1.3572 -0.8064  0.5123
  106MOL    C7221282   7.405   8.037   3.458 -0.4151 -0.2858  0.0944
  106MOL    C7321283   7.380   8.095   3.324  0.8680 -0.2625  0.5125
  106MOL   Cl7421284   7.363   7.960   3.207 -0.2957  0.0986 -0.3697
  106MOL    C7521285   7.363   8.226   3.298 -0.0400 -0.0537 -0.0269
  106MOL    C7621286   7.321   8.276   3.166  0.3385 -0.3340  0.6035
  106MOL    H7721287   7.448   7.938   3.445  2.2555  0.9517 -0.8499
  106MOL    H7821288   7.477   8.100   3.510 -0.5196 -0.8249  0.9000
  106MOL    H7921289   7.384   8.298   3.376 -0.5243  1.2660 -1.0755
  106MOL    H8021290   7.268   8.370   3.186  0.0484 -0.5819  1.0016
  106MOL    H8121291   7.255   8.211   3.109 -0.8045  1.2556  0.0736
  106MOL    C8221292   7.431   8.327   3.074 -0.0174  0.4554 -0.6474
  106MOL    C8321293   7.382   0.002   2.969 -0.0536 -0.0984  0.1277
  106MOL   Cl8421294   7.509   0.118   2.938 -0.0284 -0.1882 -0.0620
  106MOL    C8521295   7.275   8.404   2.885  0.4232 -0.8542 -1.1027
  106MOL    C8621296   7.251   0.072   2.765 -0.4750 -0.0128  0.1588
  106MOL    H8721297   7.469   8.241   3.019 -1.8293 -0.6879 -0.1683
  106MOL    H8821298   7.504   8.362   3.147 -1.1171 -1.5334  1.5129
  106MOL    H8921299   7.211   8.319   2.905 -1.1023  1.0255  2.5866
  106MOL    H9021300   7.163   0.136   2.777  1.2597  2.6854 -0.9513
  106MOL    H9121301   7.335   0.140   2.749  1.4848 -2.1946  0.9281
  106MOL    C9221302   7.228   8.403   2.636 -0.3224  0.3586 -0.1081
  106MOL    C9321303   7.235   0.066   2.508  0.2689  0.1524 -0.0875
  106MOL   Cl9421304   7.070   0.110   2.482  0.3416  0.0981  0.3636
  106MOL    C9521305   7.343   0.093   2.436 -0.2715  1.0184 -0.0077
  106MOL    C9621306   7.484   0.051   2.460 -0.1573 -0.4528  0.1719
  106MOL    H9721307   7.132   8.353   2.647  0.4117 -1.3364 -1.2221
  106MOL    H9821308   7.298   8.320   2.632 -0.4624  0.2641 -0.5304
  106MOL    H9921309   7.327   0.151   2.347 -3.3742 -2.3555 -1.7985
  106MOL   H10021310   7.481   8.396   2.538  1.9184 -1.0115 -0.2473
  106MOL   H10121311   7.534   0.004   2.375  1.2465  1.2394  0.0325
  106MOL   C10221312   7.579   0.157   2.510  0.3166  0.4496  0.0332
  106MOL   C10321313   7.720   0.102   2.544  0.4652  0.0697 -0.0757
  106MOL  Cl10421314   7.828   0.106   2.409 -0.4735  0.4669 -0.1505
  106MOL   C10521315   7.730   0.031   2.657 -0.5795 -0.4786 -0.6922
  106MOL   C10621316   7.856   8.384   2.686 -0.2638  0.0352 -0.0699
  106MOL   H10721317   7.587   0.236   2.435 -3.2182  0.9401  0.0797
  106MOL   H10821318   7.547   0.215   2.597 -2.3255 -1.3309  0.2979
  106MOL   H10921319   7.656   0.028   2.735 -1.7202 -0.0867 -1.7353
  106MOL   H11021320   7.823   8.286   2.721  0.0808  0.1150  0.4831
  106MOL   H11121321   7.918   8.361   2.600  2.6231 -1.8519  2.3790
  106MOL   C11221322   7.939   0.037   2.793  0.2267  0.2440 -0.0869
  106MOL   C11321323   8.060   8.379   2.843  0.4356  0.0510 -0.5785
  106MOL  Cl11421324   8.093   8.231   2.762  0.1504 -0.2477  0.3967
  106MOL   C11521325   8.135   8.413   2.948 -0.2634  0.0834  0.0355
  106MOL   C11621326   8.132   0.120   3.021 -0.3309  0.4672  0.1336
  106MOL   H11721327   7.972   0.134   2.755  2.5379 -0.4368  0.0968
  106MOL   H11821328   7.883   0.079   2.876 -0.2258  0.8136 -0.6720
  106MOL   H11921329   8.210   8.337   2.967 -1.7229 -1.8459 -1.6362
  106MOL   H12021330   8.050   0.108   3.092  0.9721  1.5750  1.8827
  106MOL   H12121331   8.094   0.202   2.960 -0.8176  0.3505  0.2758
  106MOL   C12221332   8.261   0.156   3.097  0.7852  0.7956 -0.4926
  106MOL   C12321333   8.243   0.269   3.192 -0.0610 -0.6869  0.1117
  106MOL  Cl12421334   8.306   0.420   3.127  0.0763  0.0271  0.0223
  106MOL   C12521335   8.188   0.265   3.315 -0.2629 -0.9360  0.2529
  106MOL   C12621336   8.120   0.148   3.390 -0.1578  0.2359 -0.8829
  106MOL   H12721337   8.311   0.071   3.143 -3.0157 -1.9723 -1.3088
  106MOL   H12821338   8.333   0.191   3.023  0.3952  0.4553 -1.0334
  106MOL   H12921339   8.172   0.364   3.355 -0.1078 -1.0143  0.5082
  106MOL   H13021340   8.036   0.191   3.444 -0.7185 -2.4697  0.4746
  106MOL   H13121341   8.086   0.076   3.315  0.4653 -0.6051 -0.3680
  106MOL   C13221342   8.207   0.094   3.514 -0.4190 -0.0821 -0.5610
  106MOL   C13321343   8.144   8.381   3.559 -0.5695 -1.0314 -0.0949
  106MOL  Cl13421344   8.192   8.253   3.463  0.3646 -0.1432  0.0201
  106MOL   C13521345   8.068   8.359   3.669  0.3110 -0.4488  0.1701
  106MOL   C13621346   8.022   0.041   3.768 -0.1623  0.4713 -0.3801
  106MOL   H13721347   8.310   0.077   3.483 -0.1715 -0.2781  0.3656
  106MOL   H13821348   8.207   0.160   3.600 -0.3196  1.4784 -1.7427
  106MOL   H13921349   8.034   8.261   3.697 -1.1651  0.2069  0.6879
  106MOL   H14021350   8.001   0.135   3.718 -3.5427  0.3419  0.6820
  106MOL   H14121351   7.933   0.000   3.816  0.2895  0.3577  0.3685
  106MOL   C14221352   8.132   0.057   3.878  0.8377 -0.3902  0.0231
  106MOL   C14321353   8.101   0.152   3.993 -0.3494  0.2628 -0.2938
  106MOL  Cl14421354   8.065   0.068   4.140 -0.3147  0.3061 -0.0303
  106MOL   C14521355   8.111   0.287   3.979  0.0255  0.2618  0.2270
  106MOL   C14621356   8.073   0.398   4.082  0.3075  0.2110 -0.2370
  106MOL   H14721357   8.222   0.094   3.830  1.1692  0.2920  1.1674
  106MOL   H14821358   8.164   8.382   3.921  1.0566 -0.2789  0.1067
  106MOL   H14921359   8.147   0.326   3.885  1.7704  1.5396  1.3807
  106MOL   H15021360   7.972   0.435   4.067  0.2926 -0.3687 -1.6541
  106MOL   H15121361   8.092   0.349   4.178  1.1070 -1.0100 -0.9958
  106MOL   C15221362   8.176   0.509   4.072 -0.0335  0.2858  0.3122
  106MOL   C15321363   8.164   0.639   4.157 -0.7902  0.2281 -0.4720
  106MOL  Cl15421364   8.120   0.598   4.322  0.0239  0.0757 -0.4343
  106MOL   C15521365   8.163   0.761   4.097 -0.0732  0.0093 -0.0407
  106MOL   C15621366   8.138   0.892   4.173 -0.1190  0.1816  0.2830
  106MOL   H15721367   8.274   0.468   4.096 -0.3843 -1.4658 -1.0464
  106MOL   H15821368   8.175   0.542   3.968 -1.6617  1.3729  0.6521
  106MOL   H15921369   8.177   0.754   3.990 -0.2149 -1.2292  0.0148
  106MOL   H16021370   8.119   0.860   4.276  3.0278 -2.2859  0.1879
  106MOL   H16121371   8.045   0.935   4.136  0.3331  1.4742  0.6006
  106MOL   C16221372   8.247   0.999   4.154  0.2007 -0.2010 -0.2169
  106MOL   C16321373   8.246   1.097   4.271  0.3602  0.4017 -0.8218
  106MOL  Cl16421374   8.107   1.194   4.256  0.1822 -0.3127 -0.0463
  106MOL   C16521375   8.329   1.104   4.377 -0.0117 -0.3443  0.0670
  106MOL   C16621376   8.310   1.199   4.494 -0.0317  0.1924 -0.6509
  106MOL   H16721377   8.336   0.936   4.150  0.6919  0.5499 -1.5260
  106MOL   H16821378   8.233   1.044   4.056  1.3270 -0.5317 -0.5400
  106MOL   H16921379   8.420   1.046   4.369  0.5065  0.4900 -0.1206
  106MOL   H17021380   8.406   1.249   4.503 -0.4671  0.9739 -0.3684
  106MOL   H17121381   8.251   1.278   4.448  1.3891  1.7874  0.2218
  106MOL   C17221382   8.245   1.126   4.611  0.3952 -0.2262 -0.5285
  106MOL   C17321383   8.221   1.225   4.724 -0.3139  0.1582  0.3004
  106MOL  Cl17421384   8.377   1.267   4.794 -0.1000  0.1453  0.5035
  106MOL   C17521385   8.098   1.270   4.769 -0.2562 -0.3843  0.2690
  106MOL   C17621386   8.083   1.377   4.874  0.4384 -0.6476 -0.1007
  106MOL   H17721387   8.291   1.033   4.645  0.6182  0.6677  1.6954
  106MOL   H17821388   8.144   1.095   4.586  0.5345 -0.7843 -0.4042
  106MOL   H17921389   8.006   1.232   4.729 -0.9074  1.1741  0.2463
  106MOL   H18021390   8.169   1.443   4.887 -2.4511  2.8872  2.2588
  106MOL   H18121391   8.083   1.329   4.972  1.2643 -3.5891 -1.4905
  106MOL   C18221392   7.963   1.469   4.858  0.2227  0.3016  0.4982
  106MOL   C18321393   7.964   1.548   4.726 -0.2218 -0.1263  0.2611
  106MOL  Cl18421394   8.101   1.646   4.719 -0.3543 -0.0896  0.1970
  106MOL   C18521395   7.875   1.547   4.623  0.1358  0.3556 -1.1281
  106MOL   C18621396   7.884   1.622   4.490  0.0853  0.3754 -0.5761
  106MOL   H18721397   7.876   1.403   4.860  0.3468  0.0637 -0.9596
  106MOL   H18821398   7.963   1.550   4.931  0.1964  0.6583  0.1076
  106MOL   H18921399   7.786   1.485   4.628 -0.0747  0.3124 -4.5045
  106MOL   H19021400   7.859   1.726   4.508  0.5354  0.8730 -2.7598
  106MOL   H19121401   7.986   1.616   4.453  0.6376 -2.3233  1.2323
  106MOL   C19221402   7.794   1.555   4.385  0.1362  0.3096  0.1207
  106MOL   C19321403   7.801   1.602   4.237 -0.2853  0.6733  0.9488
  106MOL  Cl19421404   7.836   1.774   4.220 -0.2013  0.2502  0.3573
  106MOL   C19521405   7.793   1.520   4.127  0.2964 -0.1440  0.3420
  106MOL   C19621406   7.777   1.371   4.126 -0.1944  0.5284 -0.2385
  106MOL   H19721407   7.692   1.566   4.421  0.4198  2.5489  0.3192
  106MOL   H19821408   7.818   1.448   4.383 -1.0667  0.0592 -2.2855
  106MOL   H19921409   7.806   1.564   4.029 -1.0375 -1.3897 -0.4221
  106MOL   H20021410   7.871   1.317   4.130 -1.6849 -2.1983 -0.8895
  106MOL   H20121411   7.717   1.350   4.038 -1.4766  0.7799  0.5667
  106MOL   H20221412   7.714   1.333   4.207 -0.1371  0.7089 -0.1085
  107MOL     C121413   1.982   8.049   6.675 -0.0027 -0.1673 -0.1644
  107MOL     C221414   1.993   8.182   6.600  0.5128  0.0343  0.1123
  107MOL    Cl321415   2.036   8.312   6.707  0.0011 -0.1189 -0.1544
  107MOL     C421416   1.987   8.195   6.464  1.0039  0.2315  0.3885
  107MOL     C521417   1.957   8.083   6.355  0.6687 -0.3126  0.0867
  107MOL     H621418   2.045   7.978   6.620  0.4273 -0.3695  0.5855
  107MOL     H721419   1.881   8.012   6.688  0.7550 -1.9160  0.8426
  107MOL     H821420   2.004   8.291   6.417  2.5780 -0.8848 -1.4132
  107MOL     H921421   1.943   7.984   6.397  0.4623 -0.3595 -0.0947
  107MOL    H1021422   1.858   8.112   6.319  1.3313  2.3185  0.2266
  107MOL    H1121423   2.019   8.066   6.776  0.6799  1.7799 -0.7204
  107MOL    C1221424   2.053   8.093   6.234 -0.1746 -0.3260 -0.1956
  107MOL    C1321425   2.003   8.056   6.094 -0.7822  0.7442 -0.4633
  107MOL   Cl1421426   2.034   8.182   5.982  0.0938 -0.2739 -0.2386
  107MOL    C1521427   1.947   7.940   6.054 -0.0764 -0.2618 -0.1095
  107MOL    C1621428   1.935   7.812   6.138 -1.1248  0.5146 -0.3831
  107MOL    H1721429   2.101   8.189   6.220 -0.4708  0.0705  1.3562
  107MOL    H1821430   2.145   8.038   6.253 -0.6633 -0.9070  0.5012
  107MOL    H1921431   1.911   7.932   5.952 -2.1972 -0.3217  0.6215
  107MOL    H2021432   1.953   7.727   6.072 -3.1815 -0.9416  0.8827
  107MOL    H2121433   2.013   7.833   6.211 -0.6036 -0.9080 -0.5131
  107MOL    C2221434   1.807   7.789   6.214 -0.3471 -0.5092 -0.1325
  107MOL    C2321435   1.817   7.673   6.305 -0.7506 -0.7895  0.0907
  107MOL   Cl2421436   1.749   7.707   6.459 -0.1190 -0.1599 -0.2158
  107MOL    C2521437   1.873   7.555   6.282 -0.0761  0.0242 -0.0446
  107MOL    C2621438   1.873   7.443   6.386  0.6642  0.0360  0.3778
  107MOL    H2721439   1.772   7.873   6.274 -2.2097 -1.8591  0.7346
  107MOL    H2821440   1.726   7.775   6.142 -2.7268  0.9662  2.1908
  107MOL    H2921441   1.926   7.533   6.190  1.1780 -0.0053  0.6713
  107MOL    H3021442   1.837   7.481   6.482 -0.3066  0.0518  0.0091
  107MOL    H3121443   1.801   7.369   6.349 -1.4270  2.2607 -0.0888
  107MOL    C3221444   2.015   7.384   6.400 -0.1701 -0.0273  0.3905
  107MOL    C3321445   2.034   7.259   6.482 -0.1658  0.3586 -0.0212
  107MOL   Cl3421446   2.185   7.187   6.447 -0.3667  0.2610 -0.1331
  107MOL    C3521447   1.939   7.202   6.557  0.2043  0.6348 -0.0975
  107MOL    C3621448   1.960   7.077   6.650  0.3847 -0.0984 -0.6618
  107MOL    H3721449   2.040   7.369   6.295  0.3140 -3.0512  0.8815
  107MOL    H3821450   2.083   7.463   6.433  0.6643 -1.2526  1.6783
  107MOL    H3921451   1.846   7.255   6.572 -0.5399 -1.0402  1.3940
  107MOL    H4021452   2.064   7.062   6.680  0.6628  2.5841 -0.1223
  107MOL    H4121453   1.903   7.101   6.740  1.1978 -0.7169  0.0331
  107MOL    C4221454   1.912   6.947   6.581  0.1905  0.2165  0.3687
  107MOL    C4321455   1.816   6.867   6.663 -0.1417  0.0336 -0.4885
  107MOL   Cl4421456   1.653   6.871   6.594 -0.0380  0.0066 -0.0259
  107MOL    C4521457   1.848   6.795   6.773 -0.0841 -0.4860  0.8739
  107MOL    C4621458   1.985   6.768   6.830  0.3707 -0.4083  0.3578
  107MOL    H4721459   1.881   6.965   6.478  4.7077  0.0098 -1.1174
  107MOL    H4821460   1.990   6.878   6.553 -0.4804 -0.5975  0.4786
  107MOL    H4921461   1.772   6.737   6.822 -1.4770  0.6252  0.0587
  107MOL    H5021462   2.003   6.661   6.820 -0.4603 -0.5583  0.4159
  107MOL    H5121463   2.061   6.819   6.771  0.3178 -2.4915 -1.5394
  107MOL    C5221464   1.990   6.828   6.974  0.1323  0.2049  0.5318
  107MOL    C5321465   2.113   6.783   7.048 -0.2373 -0.1381  0.0757
  107MOL   Cl5421466   2.233   6.905   7.059  0.1454  0.4245  0.3498
  107MOL    C5521467   2.133   6.656   7.081  0.3146  0.3550  0.3502
  107MOL    C5621468   2.256   6.609   7.145 -0.4625  1.1025  0.6413
  107MOL    H5721469   1.993   6.936   6.960 -1.1481 -0.0267 -1.8671
  107MOL    H5821470   1.904   6.801   7.035  0.2739 -0.6178  0.3761
  107MOL    H5921471   2.059   6.579   7.062  0.3024  0.5299 -0.3401
  107MOL    H6021472   2.347   6.612   7.086 -0.7007 -1.3638  0.0871
  107MOL    H6121473   2.277   6.688   7.217  1.0131  2.2771 -1.0474
  107MOL    C6221474   2.236   6.467   7.217 -0.7329 -0.6978  0.4881
  107MOL    C6321475   2.296   6.468   7.357 -0.0333  0.4958 -0.0074
  107MOL   Cl6421476   2.462   6.403   7.347 -0.2209  0.2447  0.0562
  107MOL    C6521477   2.238   6.534   7.464 -0.1321  0.2993 -0.0887
  107MOL    C6621478   2.295   6.526   7.606 -0.7081 -0.0932  0.0151
  107MOL    H6721479   2.130   6.442   7.233 -1.1203  0.3331 -0.4355
  107MOL    H6821480   2.279   6.389   7.154  0.9993  1.3986 -0.9927
  107MOL    H6921481   2.144   6.587   7.459  0.4928  1.5225  0.8538
  107MOL    H7021482   2.339   6.625   7.623  0.1200 -0.5545  0.6170
  107MOL    H7121483   2.380   6.459   7.614 -0.5189 -0.0017 -1.2151
  107MOL    C7221484   2.192   6.490   7.715  0.1660  0.6033  0.7950
  107MOL    C7321485   2.225   6.554   7.842  0.2467 -0.4512 -0.6497
  107MOL   Cl7421486   2.268   6.428   7.959  0.1808  0.1233 -0.1591
  107MOL    C7521487   2.225   6.683   7.879 -0.1190 -0.4911 -0.1898
  107MOL    C7621488   2.264   6.727   8.022 -0.1026  0.1960  0.6377
  107MOL    H7721489   2.190   6.382   7.729 -0.6729  0.2365 -1.9616
  107MOL    H7821490   2.094   6.528   7.688 -0.4481 -2.3835 -1.3181
  107MOL    H7921491   2.197   6.752   7.800 -1.0034 -0.4021  0.1951
  107MOL    H8021492   2.372   6.715   8.030  0.0792  0.9568 -0.5428
  107MOL    H8121493   2.208   6.678   8.101 -1.0752 -1.0890 -0.8087
  107MOL    C8221494   2.230   6.871   8.053  0.2819  0.0875 -0.0518
  107MOL    C8321495   2.278   6.910   8.191 -0.2642  0.4001 -0.1139
  107MOL   Cl8421496   2.152   7.010   8.272 -0.0492  0.2525  0.2687
  107MOL    C8521497   2.399   6.894   8.246 -0.3001 -0.4118 -0.6218
  107MOL    C8621498   2.452   6.940   8.377  0.8402 -0.8965  0.0922
  107MOL    H8721499   2.122   6.886   8.048  0.1414  0.3136  2.9472
  107MOL    H8821500   2.274   6.948   7.989 -1.8487  1.4286  0.0157
  107MOL    H8921501   2.472   6.846   8.182 -0.2262 -2.5238  1.0274
  107MOL    H9021502   2.540   7.000   8.354  0.9461 -1.4044 -0.8353
  107MOL    H9121503   2.378   7.004   0.004  0.7445 -1.3259  0.5236
  107MOL    C9221504   2.501   6.820   0.041  0.2120  0.2733  0.6368
  107MOL    C9321505   2.551   6.856   0.183 -0.0343 -0.3318 -0.1605
  107MOL   Cl9421506   2.456   6.977   0.261 -0.0142  0.1922  0.1872
  107MOL    C9521507   2.650   6.794   0.243  0.5762  0.7921  0.2315
  107MOL    C9621508   2.734   6.678   0.176  0.4137  0.2289 -0.7621
  107MOL    H9721509   2.578   6.766   8.406  0.2727 -1.0377  1.9316
  107MOL    H9821510   2.419   6.748   0.040  1.3497 -1.0619 -1.5399
  107MOL    H9921511   2.682   6.820   0.343 -0.7842 -0.7293  1.0863
  107MOL   H10021512   2.745   6.697   0.069  1.4838  0.3085 -0.6441
  107MOL   H10121513   2.841   6.690   0.192  0.2825  0.5143 -0.1135
  107MOL   C10221514   2.686   6.549   0.231  0.7372  0.8716 -0.2788
  107MOL   C10321515   2.759   6.422   0.186  1.1714  0.2813 -0.4602
  107MOL  Cl10421516   2.661   6.288   0.193  0.2974  0.5812  0.2496
  107MOL   C10521517   2.883   6.421   0.123  0.7683 -0.4157  0.6832
  107MOL   C10621518   2.944   6.298   0.052  0.5936  0.4166 -0.0186
  107MOL   H10721519   2.683   6.558   0.340 -0.3906  1.3791 -0.3509
  107MOL   H10821520   2.583   6.539   0.197  0.0791  0.7944  1.6488
  107MOL   H10921521   2.940   6.512   0.111 -1.1116  0.5209 -1.7005
  107MOL   H11021522   2.897   6.215   0.105  0.0361  0.6059 -0.2132
  107MOL   H11121523   2.902   6.303   8.373  0.5446  0.0483 -0.0162
  107MOL   C11221524   3.101   6.285   0.078  0.1613  0.0056 -0.7537
  107MOL   C11321525   3.148   6.164   0.000  0.6995 -0.4742  0.0503
  107MOL  Cl11421526   3.205   6.230   8.274 -0.3389  0.1457 -0.6444
  107MOL   C11521527   3.147   6.031   0.033 -0.2031  0.9591  0.0535
  107MOL   C11621528   3.095   5.968   0.152  0.5738  0.4314 -0.1431
  107MOL   H11721529   3.157   6.374   0.051 -2.3460  1.4056 -1.5477
  107MOL   H11821530   3.127   6.275   0.183  1.6852 -0.0570 -1.1307
  107MOL   H11921531   3.195   5.967   8.381  1.4822  1.7618  0.4407
  107MOL   H12021532   3.098   6.053   0.220 -0.9792  0.5892 -0.2522
  107MOL   H12121533   3.168   5.896   0.189  1.5198  0.9135 -1.0613
  107MOL   C12221534   2.962   5.903   0.116  0.3037 -0.2245 -0.8289
  107MOL   C12321535   2.890   5.837   0.230 -0.2969 -0.0087 -0.9947
  107MOL  Cl12421536   2.810   5.942   0.342 -0.5344  0.1138 -0.0069
  107MOL   C12521537   2.884   5.706   0.255  0.0125 -0.3013  0.4115
  107MOL   C12621538   2.967   5.595   0.186 -0.0978 -0.4718 -0.0149
  107MOL   H12721539   2.896   5.977   0.071  0.4325  1.1410  1.1415
  107MOL   H12821540   2.977   5.827   0.039 -0.3985 -1.2189 -0.0014
  107MOL   H12921541   2.827   5.669   0.339 -0.4894 -0.2327  0.1015
  107MOL   H13021542   2.903   5.508   0.168 -1.8966  0.9814 -0.8000
  107MOL   H13121543   2.995   5.623   0.085  1.7293 -0.8786  0.3559
  107MOL   C13221544   3.094   5.566   0.257  0.1555  0.3500  0.6024
  107MOL   C13321545   3.162   5.439   0.210  0.4292 -0.3382 -0.1595
  107MOL  Cl13421546   3.284   5.466   0.089 -0.2431 -0.4033 -0.0160
  107MOL   C13521547   3.128   5.313   0.241  0.3878 -0.2955 -0.3324
  107MOL   C13621548   3.022   5.278   0.343  0.5154  0.2566  0.8274
  107MOL   H13721549   3.166   5.647   0.250 -0.7250  1.2126  1.3463
  107MOL   H13821550   3.084   5.554   0.365 -0.5864 -0.9258  0.3937
  107MOL   H13921551   3.182   5.229   0.202  1.9132  0.8399 -0.6997
  107MOL   H14021552   3.076   5.244   0.431 -0.7515  0.8898  1.8620
  107MOL   H14121553   2.972   5.372   0.367 -0.7411 -1.2404  4.3144
  107MOL   C14221554   2.914   5.184   0.277 -0.1582 -0.6093 -0.3640
  107MOL   C14321555   2.799   5.143   0.360  0.1418  0.3159  0.1643
  107MOL  Cl14421556   2.691   5.041   0.270 -0.5424  0.2845  0.2508
  107MOL   C14521557   2.789   5.177   0.492 -0.4893 -0.0131  0.4471
  107MOL   C14621558   2.685   5.127   0.585  0.1748  0.4214 -0.3876
  107MOL   H14721559   2.962   5.094   0.240 -1.7962 -1.8775  0.5448
  107MOL   H14821560   2.872   5.225   0.185 -0.8197 -2.3583 -0.8710
  107MOL   H14921561   2.859   5.243   0.543 -1.3509 -1.0057  2.9760
  107MOL   H15021562   2.649   5.216   0.636 -1.2016  0.2876 -1.1072
  107MOL   H15121563   2.610   5.062   0.542 -1.0164  0.6909  1.2225
  107MOL   C15221564   2.764   5.052   0.691 -0.9839 -0.3950  0.3225
  107MOL   C15321565   2.680   4.955   0.773  0.3166 -0.4546  0.3007
  107MOL  Cl15421566   2.629   5.020   0.923  0.0946 -0.1009  0.3414
  107MOL   C15521567   2.646   4.831   0.734  0.0871  0.0090 -0.7144
  107MOL   C15621568   2.576   4.725   0.819  0.2136 -0.6637  0.1821
  107MOL   H15721569   2.850   5.000   0.648 -0.9222  1.5146 -1.9862
  107MOL   H15821570   2.791   5.122   0.770  0.8492 -2.2281  1.3583
  107MOL   H15921571   2.676   4.805   0.633  2.1190  2.6766 -0.8646
  107MOL   H16021572   2.478   4.716   0.771  0.7968  1.1523 -1.4482
  107MOL   H16121573   2.559   4.745   0.925  1.7777  0.6396  0.2133
  107MOL   C16221574   2.644   4.592   0.808  0.0416 -0.7254 -0.0321
  107MOL   C16321575   2.560   4.471   0.862  0.6057  0.2698  0.8048
  107MOL  Cl16421576   2.629   4.374   0.988 -0.1433  0.6567 -0.0655
  107MOL   C16521577   2.443   4.439   0.799  0.6290  0.0431  0.1634
  107MOL   C16621578   2.356   4.327   0.838 -0.9093  0.7452 -0.7360
  107MOL   H16721579   2.674   4.577   0.705  3.0033 -0.4548  0.7425
  107MOL   H16821580   2.735   4.586   0.867 -1.6808 -1.3723  2.6560
  107MOL   H16921581   2.417   4.508   0.720 -0.1963 -0.1238  0.2758
  107MOL   H17021582   2.410   4.257   0.901  0.3312  1.0321 -1.4682
  107MOL   H17121583   2.270   4.370   0.890  0.5715  0.9500  1.6567
  107MOL   C17221584   2.302   4.245   0.715 -0.2065 -0.5443 -0.7112
  107MOL   C17321585   2.402   4.164   0.647 -0.5393  0.4189 -0.0732
  107MOL  Cl17421586   2.469   4.254   0.510  0.2390 -0.2615  0.3602
  107MOL   C17521587   2.436   4.037   0.681 -0.4642 -0.1082 -0.4243
  107MOL   C17621588   2.541   3.946   0.613  0.8594 -0.5981  0.3413
  107MOL   H17721589   2.243   4.309   0.649 -2.3065  1.2817  2.7688
  107MOL   H17821590   2.220   4.184   0.754 -0.8723  0.6481 -0.2217
  107MOL   H17921591   2.393   3.992   0.769  0.4318 -1.7700 -0.8111
  107MOL   H18021592   2.571   3.969   0.512 -1.1760 -0.8538 -0.3553
  107MOL   H18121593   2.494   3.848   0.600  0.6083 -0.2295 -1.6626
  107MOL   C18221594   2.667   3.949   0.707 -0.7073 -0.1956 -0.0882
  107MOL   C18321595   2.772   3.864   0.644 -0.4459  0.6223 -0.6268
  107MOL  Cl18421596   2.768   3.702   0.708 -0.1357 -0.6863  0.2759
  107MOL   C18521597   2.861   3.899   0.544  0.3377 -0.1247 -0.4510
  107MOL   C18621598   2.981   3.814   0.507 -0.0915  0.1332 -0.3640
  107MOL   H18721599   2.703   4.051   0.723 -0.3361 -0.5533  1.5009
  107MOL   H18821600   2.646   3.915   0.809  0.5966  0.0435  0.2713
  107MOL   H18921601   2.849   3.994   0.494 -1.7824 -0.0109  0.2434
  107MOL   H19021602   3.067   3.880   0.491  1.0360 -1.2512 -0.1031
  107MOL   H19121603   3.010   3.741   0.582 -0.0443  1.0395  0.5160
  107MOL   C19221604   2.967   3.744   0.375 -0.5759 -0.0090  0.5143
  107MOL   C19321605   2.869   3.627   0.375 -0.7897 -0.5283 -1.2220
  107MOL  Cl19421606   2.720   3.672   0.308  0.1462  0.1208 -0.1700
  107MOL   C19521607   2.896   3.500   0.416  0.5875  0.2771 -0.2971
  107MOL   C19621608   3.027   3.457   0.480 -0.8835  0.1827  0.3171
  107MOL   H19721609   3.066   3.715   0.341 -0.6493  1.4261 -0.9974
  107MOL   H19821610   2.937   3.821   0.304  1.5960  2.3312  2.0353
  107MOL   H19921611   2.826   3.420   0.403 -0.0522  0.7005  0.4735
  107MOL   H20021612   3.096   3.533   0.518 -0.0051 -0.3810 -0.1218
  107MOL   H20121613   3.075   3.398   0.402 -0.4887  0.6840  0.1791
  107MOL   H20221614   2.994   3.387   0.557  0.9202 -1.7077 -0.5883
  108MOL     C121615   2.667   3.047   8.105  0.0705  0.2152 -0.2482
  108MOL     C221616   2.552   3.058   8.011 -0.5968  0.2585  0.1691
  108MOL    Cl321617   2.403   3.065   8.100 -0.3203  0.2903 -0.2868
  108MOL     C421618   2.567   3.066   7.878 -0.0992 -0.1666  0.0647
  108MOL     C521619   2.693   3.065   7.799 -0.6289 -0.0114 -0.2369
  108MOL     H621620   2.635   3.081   8.203 -1.0699  0.0561 -0.5604
  108MOL     H721621   2.751   3.113   8.083 -0.5969  1.2050  0.1093
  108MOL     H821622   2.479   3.079   7.817  0.6599 -1.3234 -1.3145
  108MOL     H921623   2.761   2.992   7.844 -2.0372 -0.6292  0.9497
  108MOL    H1021624   2.672   3.028   7.699 -0.3155 -1.6123  0.2723
  108MOL    H1121625   2.714   2.949   8.107  3.4546  1.7907  0.2290
  108MOL    C1221626   2.759   3.201   7.782  0.2075  0.2651 -0.2646
  108MOL    C1321627   2.901   3.197   7.736  0.0312 -0.8596 -0.3038
  108MOL   Cl1421628   3.013   3.183   7.864  0.4850  0.0408 -0.1245
  108MOL    C1521629   2.945   3.206   7.612 -0.6887  0.3681  0.0660
  108MOL    C1621630   2.863   3.210   7.486  0.3217 -0.6072 -0.5834
  108MOL    H1721631   2.699   3.269   7.721  0.4104 -1.0810 -1.9936
  108MOL    H1821632   2.765   3.248   7.880 -0.2507  0.1214 -0.1691
  108MOL    H1921633   3.053   3.201   7.605 -0.6325 -1.2543  1.8169
  108MOL    H2021634   2.902   3.149   7.404  1.8788  1.0756 -1.1215
  108MOL    H2121635   2.757   3.194   7.507  0.6395 -1.0201  0.7784
  108MOL    C2221636   2.867   3.361   7.441 -1.0822  0.0507  0.5130
  108MOL    C2321637   2.786   3.390   7.315  0.0405  0.1153 -0.3991
  108MOL   Cl2421638   2.677   3.521   7.339  0.2491  0.3747  0.1558
  108MOL    C2521639   2.791   3.320   7.204 -0.0177 -0.0116  0.5315
  108MOL    C2621640   2.704   3.327   7.083  1.0846 -0.0151  1.0596
  108MOL    H2721641   2.843   3.429   7.523 -1.0270  0.2068  0.4012
  108MOL    H2821642   2.969   3.388   7.413 -0.6766  0.1876  2.0670
  108MOL    H2921643   2.852   3.231   7.201 -2.3185 -1.5775 -0.9969
  108MOL    H3021644   2.642   3.416   7.097 -0.1786 -0.4981 -1.2709
  108MOL    H3121645   2.767   3.337   6.995 -1.5480 -2.5400 -1.2241
  108MOL    C3221646   2.616   3.202   7.068  0.6289 -0.9305 -0.1168
  108MOL    C3321647   2.499   3.214   6.966  0.5129 -0.7522 -0.8099
  108MOL   Cl3421648   2.360   3.131   7.021 -0.1928  0.5326 -0.2478
  108MOL    C3521649   2.495   3.304   6.868 -0.2870  0.0178  0.1439
  108MOL    C3621650   2.381   3.336   6.768 -0.1481  0.6151 -0.1573
  108MOL    H3721651   2.674   3.112   7.047  0.2388 -1.2142  0.0044
  108MOL    H3821652   2.569   3.172   7.162  0.1385 -1.6351 -0.5807
  108MOL    H3921653   2.582   3.363   6.846 -1.5480  1.6675 -0.6005
  108MOL    H4021654   2.301   3.263   6.780 -0.8570  1.4988  0.4784
  108MOL    H4121655   2.339   3.431   6.800  1.7014 -0.1503  5.0374
  108MOL    C4221656   2.432   3.332   6.624  0.3562  0.5253 -1.4929
  108MOL    C4321657   2.326   3.375   6.530 -0.5090 -0.1108  0.0685
  108MOL   Cl4421658   2.318   3.548   6.530 -0.0904 -0.2034  0.3051
  108MOL    C4521659   2.247   3.300   6.456 -0.1603 -0.5314 -0.8041
  108MOL    C4621660   2.253   3.146   6.445 -0.7043  0.2063  0.2438
  108MOL    H4721661   2.514   3.402   6.611  1.3990 -0.7594 -1.8301
  108MOL    H4821662   2.464   3.239   6.578  0.6251  0.2617 -0.7745
  108MOL    H4921663   2.174   3.363   6.407 -0.8112 -0.6126  0.0478
  108MOL    H5021664   2.210   3.146   6.345  0.2847 -2.2829 -0.2194
  108MOL    H5121665   2.352   3.100   6.451 -0.3039  1.0989  0.7127
  108MOL    C5221666   2.161   3.085   6.550  0.3452 -0.2293 -0.5431
  108MOL    C5321667   2.143   2.936   6.536  0.1451 -0.0909  0.1919
  108MOL   Cl5421668   2.012   2.905   6.426  0.3322 -0.0580  0.1355
  108MOL    C5521669   2.210   2.845   6.609 -0.0529 -0.1091  0.1461
  108MOL    C5621670   2.191   2.695   6.592  0.1962 -0.2035 -0.3578
  108MOL    H5721671   2.191   3.103   6.653  0.0334 -0.1535 -0.4660
  108MOL    H5821672   2.065   3.136   6.542  0.0840 -0.5401  0.5159
  108MOL    H5921673   2.286   2.873   6.681  1.3424 -2.3253 -0.4094
  108MOL    H6021674   2.203   2.640   6.685  0.0553 -2.5882 -1.6971
  108MOL    H6121675   2.086   2.681   6.564  0.7102  0.1903 -2.5688
  108MOL    C6221676   2.303   2.627   6.506 -0.0002 -0.0361  0.0943
  108MOL    C6321677   2.267   2.489   6.481 -0.6114  0.7322  0.3745
  108MOL   Cl6421678   2.286   2.397   6.619 -0.4732  0.2046 -0.1807
  108MOL    C6521679   2.220   2.430   6.366  0.1042 -0.2384 -0.6623
  108MOL    C6621680   2.165   2.287   6.347 -0.3543 -0.7468 -0.2730
  108MOL    H6721681   2.310   2.666   6.404 -0.4780 -1.2198 -0.4103
  108MOL    H6821682   2.405   2.626   6.542 -0.1329 -0.1925  0.4716
  108MOL    H6921683   2.209   2.484   6.273 -3.4167 -1.1247 -0.8378
  108MOL    H7021684   2.058   2.288   6.325 -0.1999  3.7149 -1.0960
  108MOL    H7121685   2.172   2.221   6.434 -1.3049 -2.4819 -1.4646
  108MOL    C7221686   2.244   2.216   6.232 -0.7722 -0.0370  0.1344
  108MOL    C7321687   2.394   2.195   6.264  0.3128 -0.6260 -0.0239
  108MOL   Cl7421688   2.489   2.233   6.126 -0.4343 -0.3819 -0.1356
  108MOL    C7521689   2.454   2.168   6.378 -0.6879  0.1485 -0.7818
  108MOL    C7621690   2.604   2.151   6.406 -0.3696  0.0294  0.8329
  108MOL    H7721691   2.238   2.265   6.135 -0.5087 -0.1045  0.0827
  108MOL    H7821692   2.205   2.115   6.217 -2.7659  0.2237  3.0507
  108MOL    H7921693   2.399   2.141   6.467  1.6690  1.4897  1.1130
  108MOL    H8021694   2.647   2.097   6.321  3.8818  1.0344  2.2160
  108MOL    H8121695   2.618   2.096   6.499 -2.0201  3.4479  3.2222
  108MOL    C8221696   2.665   2.289   6.432 -0.4945 -0.7140  0.3340
  108MOL    C8321697   2.807   2.282   6.477  0.0723  0.1344 -0.0913
  108MOL   Cl8421698   2.834   2.355   6.629  0.1067  0.4018 -0.6161
  108MOL    C8521699   2.902   2.226   6.403  0.9315  0.0410  0.4020
  108MOL    C8621700   3.053   2.219   6.437  0.0499  0.1205  0.1252
  108MOL    H8721701   2.609   2.341   6.509 -0.2223  0.1527 -0.0524
  108MOL    H8821702   2.673   2.350   6.342  0.0219  1.0731  1.5770
  108MOL    H8921703   2.870   2.185   6.309 -0.2890  1.6895  0.0881
  108MOL    H9021704   3.098   2.270   6.352  4.0121 -1.5759  1.0833
  108MOL    H9121705   3.078   2.279   6.525  2.5104 -0.6502 -0.0085
  108MOL    C9221706   3.115   2.080   6.436  0.7047 -0.8767  0.3210
  108MOL    C9321707   3.101   2.018   6.298 -0.1162  0.0190  0.4510
  108MOL   Cl9421708   3.225   2.072   6.187  0.2133  0.0072 -0.2149
  108MOL    C9521709   3.011   1.924   6.261 -0.1893  0.5279 -0.8064
  108MOL    C9621710   2.905   1.867   6.350  0.1519  0.7971 -0.6298
  108MOL    H9721711   3.074   2.027   6.522 -0.4111  1.3930  1.2118
  108MOL    H9821712   3.220   2.079   6.465  0.4670 -0.1802  1.2406
  108MOL    H9921713   3.014   1.893   6.157 -1.7802 -1.0779 -0.3934
  108MOL   H10021714   2.895   1.916   6.447  0.8922  0.0528 -0.1710
  108MOL   H10121715   2.822   1.912   6.296 -1.5715  1.4233  2.4452
  108MOL   C10221716   2.907   1.713   6.354  0.1584 -0.8529 -0.4550
  108MOL   C10321717   3.024   1.646   6.430 -0.4582  0.1238  0.3001
  108MOL  Cl10421718   3.165   1.616   6.327  0.2136  0.4026 -0.1358
  108MOL   C10521719   3.028   1.627   6.565 -0.4639  0.6810  0.2812
  108MOL   C10621720   3.139   1.573   6.639 -0.6495  0.4181  0.2736
  108MOL   H10721721   2.812   1.673   6.391 -0.0864 -0.6884 -0.8867
  108MOL   H10821722   2.912   1.669   6.254  0.3835 -1.0426 -0.3587
  108MOL   H10921723   2.944   1.658   6.624 -1.2960  0.6042 -0.8357
  108MOL   H11021724   3.120   1.468   6.662  1.3662  0.3639  1.7721
  108MOL   H11121725   3.235   1.572   6.586 -1.7709 -1.7431 -1.8218
  108MOL   C11221726   3.167   1.625   6.783 -0.1658  0.2041 -0.2683
  108MOL   C11321727   3.298   1.574   6.850 -0.4133  0.8686 -0.3950
  108MOL  Cl11421728   3.308   1.405   6.828 -0.4025 -0.4828 -0.0241
  108MOL   C11521729   3.375   1.642   6.937 -0.7620 -0.2827  0.3652
  108MOL   C11621730   3.343   1.781   6.992  0.1358 -0.3773 -0.7802
  108MOL   H11721731   3.169   1.734   6.788  1.2861  0.1080  2.0203
  108MOL   H11821732   3.087   1.585   6.845  0.7562  0.0975  0.8668
  108MOL   H11921733   3.464   1.599   6.980  1.9665  1.1832 -3.4993
  108MOL   H12021734   3.254   1.818   6.942 -0.5403 -1.6286 -0.5265
  108MOL   H12121735   3.430   1.844   6.972 -0.5798  0.8852  0.0247
  108MOL   C12221736   3.312   1.758   7.143 -0.2891 -0.0650 -0.3745
  108MOL   C12321737   3.286   1.886   7.220 -0.2332  0.5156  0.3933
  108MOL  Cl12421738   3.439   1.962   7.271  0.0023 -0.0220  0.3063
  108MOL   C12521739   3.171   1.943   7.253 -0.3431 -0.8295  0.2418
  108MOL   C12621740   3.024   1.893   7.241  0.1986 -0.3281  0.7873
  108MOL   H12721741   3.233   1.687   7.162  0.3233 -0.3046  1.4112
  108MOL   H12821742   3.404   1.718   7.187 -0.0825  1.3884  0.5546
  108MOL   H12921743   3.190   2.036   7.304  4.1685 -0.6014 -1.5680
  108MOL   H13021744   2.965   1.960   7.178  1.2779 -0.6056 -0.5459
  108MOL   H13121745   3.021   1.792   7.202  2.3377 -1.3914  3.2188
  108MOL   C13221746   2.967   1.893   7.385  0.1100 -0.3363  0.1822
  108MOL   C13321747   2.819   1.902   7.385 -0.0770 -0.5420  0.3056
  108MOL  Cl13421748   2.768   2.068   7.378  0.3306  0.0959  0.2330
  108MOL   C13521749   2.731   1.793   7.404  0.0377 -0.0249 -0.3099
  108MOL   C13621750   2.767   1.650   7.418 -0.1971  0.7143  0.0797
  108MOL   H13721751   3.008   1.816   7.450  1.7802  1.0659  0.8262
  108MOL   H13821752   3.005   1.986   7.428  2.3634 -1.4479  0.6386
  108MOL   H13921753   2.626   1.817   7.417  0.1952  0.5930 -0.1411
  108MOL   H14021754   2.704   1.603   7.342 -2.3008 -0.3002  2.3906
  108MOL   H14121755   2.872   1.640   7.391 -0.6560 -0.0856 -1.5240
  108MOL   C14221756   2.731   1.587   7.549  0.5854  0.7000 -0.1831
  108MOL   C14321757   2.779   1.444   7.562 -0.1656 -0.1767  0.0140
  108MOL  Cl14421758   2.909   1.425   7.679 -0.0499 -0.0346  0.1515
  108MOL   C14521759   2.726   1.343   7.490 -0.0656  0.3805  0.0567
  108MOL   C14621760   2.768   1.199   7.502  0.0708 -0.8404 -0.2605
  108MOL   H14721761   2.623   1.587   7.568  0.3746  1.1376 -1.3619
  108MOL   H14821762   2.770   1.637   7.638 -0.3789  1.4629 -0.1835
  108MOL   H14921763   2.648   1.363   7.419 -1.0431  0.5080  1.1535
  108MOL   H15021764   2.777   1.156   7.402  0.3254 -2.9996  0.6697
  108MOL   H15121765   2.868   1.191   7.543 -0.8618  0.2139  2.3288
  108MOL   C15221766   2.675   1.108   7.579 -0.2385 -0.4213  0.3407
  108MOL   C15321767   2.734   0.974   7.607  0.2316  0.2225 -0.3716
  108MOL  Cl15421768   2.766   0.940   7.775 -0.2705 -0.3112  0.0198
  108MOL   C15521769   2.741   0.881   7.510 -0.1637 -0.2308 -0.7801
  108MOL   C15621770   2.777   0.736   7.532  0.5698 -0.1024 -0.1462
  108MOL   H15721771   2.635   1.157   7.668 -0.0743 -0.9932  0.7327
  108MOL   H15821772   2.591   1.087   7.512  0.0035 -1.0630  0.2398
  108MOL   H15921773   2.712   0.918   7.413 -0.7873  0.8527 -0.1883
  108MOL   H16021774   2.767   0.709   7.637  1.3192 -0.7172 -0.2261
  108MOL   H16121775   2.879   0.710   7.503  1.4347  0.0441  2.6330
  108MOL   C16221776   2.681   0.649   7.450 -0.7494 -0.5915 -0.5642
  108MOL   C16321777   2.534   0.663   7.499 -0.1447  0.1087  0.1956
  108MOL  Cl16421778   2.501   0.548   7.621 -0.1694 -0.0058 -0.2039
  108MOL   C16521779   2.436   0.737   7.451 -0.6601  0.1683  0.4769
  108MOL   C16621780   2.291   0.749   7.487 -0.6917  0.4785  0.3445
  108MOL   H16721781   2.684   0.675   7.344  0.2096  0.4551 -0.2981
  108MOL   H16821782   2.715   0.548   7.474 -2.3384 -1.2181 -0.9265
  108MOL   H16921783   2.463   0.802   7.369 -0.4600 -2.9913 -2.0975
  108MOL   H17021784   2.229   0.709   7.406 -0.8494  1.0545  0.1778
  108MOL   H17121785   2.277   0.693   7.580  0.2401  1.5829  1.1545
  108MOL   C17221786   2.261   0.898   7.499 -0.6252 -0.7273 -0.5515
  108MOL   C17321787   2.115   0.920   7.515  0.8206 -0.2977  0.4599
  108MOL  Cl17421788   2.050   1.030   7.397  0.2027 -0.4149 -0.1620
  108MOL   C17521789   2.049   0.859   7.611 -0.4439  0.4247 -0.2263
  108MOL   C17621790   1.909   0.874   7.645 -0.1297  0.5154 -0.2595
  108MOL   H17721791   2.309   0.964   7.427  1.1065  1.6727  2.6196
  108MOL   H17821792   2.308   0.937   7.590 -0.1762  0.5650 -1.3131
  108MOL   H17921793   2.108   0.796   7.674  0.3976 -0.2118 -1.6261
  108MOL   H18021794   1.881   0.769   7.649  0.8632  0.1989 -1.2786
  108MOL   H18121795   1.848   0.921   7.567 -0.4615  0.7668  0.1521
  108MOL   C18221796   1.886   0.936   7.779 -0.0304  0.0208 -0.4439
  108MOL   C18321797   1.950   0.862   7.892 -0.9637 -0.1727  0.4954
  108MOL  Cl18421798   1.857   0.722   7.943  0.4218 -0.0245  0.4653
  108MOL   C18521799   2.065   0.903   7.950 -0.0269  0.0305 -0.2334
  108MOL   C18621800   2.140   0.836   8.063 -0.0048  0.2821 -0.0030
  108MOL   H18721801   1.927   1.036   7.767  0.2268 -0.1734 -1.2020
  108MOL   H18821802   1.778   0.942   7.796 -0.1434  0.6397 -1.3405
  108MOL   H18921803   2.114   0.988   7.906 -0.9477 -0.1986 -1.7308
  108MOL   H19021804   2.115   0.872   8.163 -1.4022  2.7364 -1.2023
  108MOL   H19121805   2.105   0.732   8.064 -0.2154  0.3466 -0.6269
  108MOL   C19221806   2.296   0.834   8.038 -1.2784 -0.6780  0.8004
  108MOL   C19321807   2.367   0.955   8.099 -0.3556  0.5568 -0.4909
  108MOL  Cl19421808   2.444   1.048   7.978 -0.1433 -0.2499  0.3776
  108MOL   C19521809   2.392   0.981   8.228  0.3241  0.1611 -0.1245
  108MOL   C19621810   2.352   0.897   8.350  0.0221  0.0477  0.3409
  108MOL   H19721811   2.323   0.828   7.932 -2.8262  3.6116  0.0708
  108MOL   H19821812   2.341   0.752   8.093 -0.5230  0.8142  2.4363
  108MOL   H19921813   2.442   1.071   8.261  1.3732 -0.1332 -0.9068
  108MOL   H20021814   2.277   0.822   8.321 -1.2931  1.2060  0.6846
  108MOL   H20121815   2.319   0.947   0.020  0.0165  0.6621 -0.0005
  108MOL   H20221816   2.431   0.824   8.367 -0.1914 -0.0800  0.8032
  109MOL     C121817   4.301   2.207   4.432  0.7088  0.4939  0.1590
  109MOL     C221818   4.330   2.354   4.410 -0.0755 -0.2059  0.9480
  109MOL    Cl321819   4.179   2.437   4.383 -0.2624  0.0853  0.3672
  109MOL     C421820   4.447   2.420   4.423  0.1481 -0.1985 -0.5242
  109MOL     C521821   4.584   2.362   4.448 -0.9395 -0.0786  0.2363
  109MOL     H621822   4.297   2.182   4.538 -0.0457  1.2446  0.3155
  109MOL     H721823   4.374   2.150   4.376 -0.0108 -0.5466  0.2689
  109MOL     H821824   4.448   2.527   4.422  0.0199 -0.1813 -2.6362
  109MOL     H921825   4.572   2.255   4.467  1.4361 -0.8892 -2.3591
  109MOL    H1021826   4.648   2.365   4.360  0.8319  0.6625  1.5072
  109MOL    H1121827   4.201   2.187   4.393  1.4943 -1.1802 -1.0217
  109MOL    C1221828   4.647   2.413   4.578  0.8276  0.4684 -0.4959
  109MOL    C1321829   4.728   2.532   4.556 -0.9330 -0.2264  0.1519
  109MOL   Cl1421830   4.634   2.682   4.562 -0.0669 -0.4708  0.1564
  109MOL    C1521831   4.858   2.538   4.539  0.1908 -0.0119  0.0390
  109MOL    C1621832   4.945   2.414   4.538 -0.3349  0.0377 -0.0231
  109MOL    H1721833   4.577   2.434   4.658  1.5674  0.3620  0.1911
  109MOL    H1821834   4.712   2.334   4.617  0.8265 -0.3272 -2.0771
  109MOL    H1921835   4.909   2.630   4.513 -0.3191 -0.0073 -1.0077
  109MOL    H2021836   4.965   2.371   4.636 -2.8417 -2.0584 -0.3759
  109MOL    H2121837   4.922   2.329   4.474  0.4671 -1.2737  1.3941
  109MOL    C2221838   5.083   2.453   4.491 -0.1463 -0.5364  0.1932
  109MOL    C2321839   5.163   2.339   4.451  0.1891 -0.5042  0.2679
  109MOL   Cl2421840   5.123   2.289   4.289 -0.1810 -0.1391 -0.1643
  109MOL    C2521841   5.252   2.281   4.531 -0.2981 -0.2334  0.4586
  109MOL    C2621842   5.337   2.158   4.483 -0.1442 -0.2006 -0.4783
  109MOL    H2721843   5.095   2.524   4.410  1.5050 -0.0043  0.8897
  109MOL    H2821844   5.142   2.497   4.571  0.8949  0.9165 -1.3481
  109MOL    H2921845   5.269   2.306   4.635 -0.2764 -0.2109  0.4501
  109MOL    H3021846   5.337   2.087   4.565  1.6044 -1.6242 -1.6691
  109MOL    H3121847   5.288   2.111   4.398 -1.5232  1.5895 -0.7121
  109MOL    C3221848   5.485   2.177   4.453 -0.2463 -0.2328 -0.0301
  109MOL    C3321849   5.565   2.054   4.417  0.0095 -0.4881 -0.2670
  109MOL   Cl3421850   5.729   2.076   4.468 -0.1714 -0.2513  0.0832
  109MOL    C3521851   5.518   1.961   4.328  0.5024  0.2861 -0.3931
  109MOL    C3621852   5.609   1.837   4.295 -0.4230 -0.6601 -0.0092
  109MOL    H3721853   5.489   2.245   4.368 -0.7510 -0.0605  0.0795
  109MOL    H3821854   5.534   2.235   4.531 -0.9703  2.2693 -1.3516
  109MOL    H3921855   5.419   1.972   4.288  0.8407  0.0073 -1.3236
  109MOL    H4021856   5.672   1.852   4.207 -1.1965  1.4653 -0.2288
  109MOL    H4121857   5.690   1.835   4.369 -1.7088  0.4934  1.4434
  109MOL    C4221858   5.521   1.716   4.301 -0.0566  0.1554 -0.4599
  109MOL    C4321859   5.610   1.590   4.274  0.4757 -0.0143 -0.1236
  109MOL   Cl4421860   5.619   1.550   4.108  0.0109 -0.3353 -0.0700
  109MOL    C4521861   5.665   1.516   4.367 -0.5377  0.1934  0.2256
  109MOL    C4621862   5.661   1.537   4.520  0.3442 -0.5832  0.1961
  109MOL    H4721863   5.469   1.696   4.394  0.3338  0.7169 -0.1196
  109MOL    H4821864   5.457   1.726   4.213  1.1486  1.4009 -1.2141
  109MOL    H4921865   5.719   1.427   4.337 -1.1706  0.3106 -1.2584
  109MOL    H5021866   5.766   1.534   4.549  0.7253  1.3375 -0.9585
  109MOL    H5121867   5.637   1.640   4.544 -1.0026 -1.0672  0.9182
  109MOL    C5221868   5.554   1.434   4.587 -0.1204 -0.4667 -0.2058
  109MOL    C5321869   5.543   1.435   4.735  0.5711 -0.7241  0.2528
  109MOL   Cl5421870   5.691   1.363   4.794 -0.0979 -0.0585 -0.0358
  109MOL    C5521871   5.445   1.471   4.816 -0.1055  0.9736  0.0279
  109MOL    C5621872   5.465   1.485   4.963 -0.1090  0.6503 -0.0091
  109MOL    H5721873   5.455   1.461   4.549  0.5327  1.3359 -0.7024
  109MOL    H5821874   5.567   1.332   4.551 -0.3303 -0.4377 -0.3646
  109MOL    H5921875   5.348   1.494   4.774 -0.1992 -1.2092 -1.0521
  109MOL    H6021876   5.572   1.487   4.983 -0.4987 -1.1365  2.5147
  109MOL    H6121877   5.421   1.583   4.985 -3.4420 -0.5782 -0.8009
  109MOL    C6221878   5.388   1.373   5.042  0.9292  0.8117 -0.0889
  109MOL    C6321879   5.386   1.397   5.190  0.6402  0.1472  0.6489
  109MOL   Cl6421880   5.285   1.280   5.264 -0.2661  0.0728  0.2200
  109MOL    C6521881   5.454   1.495   5.260  0.5110 -0.0652  0.3760
  109MOL    C6621882   5.440   1.518   5.411 -0.4107 -0.8760 -0.3525
  109MOL    H6721883   5.285   1.370   5.006  0.2562  2.2491  1.6434
  109MOL    H6821884   5.429   1.280   5.001  1.0998  0.8842 -0.0816
  109MOL    H6921885   5.522   1.561   5.209  0.9125  0.5294  1.6385
  109MOL    H7021886   5.357   1.461   5.453  0.8812 -1.2220  1.7619
  109MOL    H7121887   5.425   1.626   5.415  2.5422 -0.4367 -0.0379
  109MOL    C7221888   5.572   1.477   5.482  0.0599  0.1435  0.1198
  109MOL    C7321889   5.572   1.493   5.633 -0.5447 -0.3012 -0.2507
  109MOL   Cl7421890   5.653   1.633   5.690  0.0347 -0.5051  0.0257
  109MOL    C7521891   5.523   1.406   5.726 -0.1533 -0.9123 -0.0378
  109MOL    C7621892   5.535   1.421   5.882 -0.0626  0.9416  0.1877
  109MOL    H7721893   5.654   1.541   5.449 -0.1528 -1.6835 -4.2871
  109MOL    H7821894   5.593   1.372   5.463 -2.2100  0.0058 -1.8561
  109MOL    H7921895   5.468   1.318   5.696 -0.1781 -1.8125  2.5198
  109MOL    H8021896   5.446   1.373   5.923 -1.8508  3.2988 -0.8095
  109MOL    H8121897   5.555   1.520   5.924 -0.7131  0.9681  0.4363
  109MOL    C8221898   5.655   1.352   5.936  0.4701  0.1137 -0.0578
  109MOL    C8321899   5.664   1.343   6.089  0.0498  0.7086  0.8992
  109MOL   Cl8421900   5.806   1.423   6.144 -0.5311  0.2567  0.3822
  109MOL    C8521901   5.568   1.294   6.172 -0.1948  0.2070 -0.0196
  109MOL    C8621902   5.577   1.278   6.315 -0.1143 -0.3121  0.0889
  109MOL    H8721903   5.747   1.379   5.885  1.4404 -0.3855  1.4121
  109MOL    H8821904   5.646   1.248   5.903  0.0543  0.7321 -1.9919
  109MOL    H8921905   5.485   1.254   6.116  1.1291  0.9511 -2.6288
  109MOL    H9021906   5.664   1.330   6.356 -0.8795 -0.0849  1.4630
  109MOL    H9121907   5.497   1.333   6.366 -1.1930 -1.8091  0.0382
  109MOL    C9221908   5.579   1.131   6.346  0.3798  0.4713 -0.2480
  109MOL    C9321909   5.443   1.065   6.330  0.7666  0.4888  0.2456
  109MOL   Cl9421910   5.337   1.087   6.471  0.3532 -0.1038 -0.4707
  109MOL    C9521911   5.403   1.002   6.220 -0.3019 -0.5865  0.2492
  109MOL    C9621912   5.489   0.960   6.098  0.5395 -0.0273 -0.2397
  109MOL    H9721913   5.601   1.128   6.453 -1.3065 -1.3833  0.0749
  109MOL    H9821914   5.658   1.076   6.296  0.6710  1.4505 -0.8823
  109MOL    H9921915   5.299   0.975   6.207 -0.8932  2.3394 -1.5647
  109MOL   H10021916   5.591   0.998   6.097  0.8035 -0.6369  1.8474
  109MOL   H10121917   5.495   0.851   6.104  0.9310 -0.0512 -0.9810
  109MOL   C10221918   5.418   1.002   5.970 -0.5012  0.6561 -0.7073
  109MOL   C10321919   5.492   0.977   5.837  0.1072  0.1563 -0.4349
  109MOL  Cl10421920   5.390   0.976   5.693 -0.0192  0.0077 -0.3331
  109MOL   C10521921   5.625   0.958   5.829 -0.0391  0.9104  0.0786
  109MOL   C10621922   5.698   0.924   5.700  0.2591 -0.3488 -0.2652
  109MOL   H10721923   5.329   0.942   5.951 -1.2560  0.9624  1.6976
  109MOL   H10821924   5.390   1.108   5.973  1.0099  1.0323  2.2078
  109MOL   H10921925   5.683   0.967   5.920  0.9142 -0.5108 -0.3692
  109MOL   H11021926   5.624   0.897   5.624  1.3342 -1.3259 -0.9979
  109MOL   H11121927   5.737   1.022   5.671 -0.5636  0.9340  2.7744
  109MOL   C11221928   5.805   0.814   5.719 -0.0497 -0.2978  0.1280
  109MOL   C11321929   5.751   0.690   5.797 -0.2078  0.3027 -0.9520
  109MOL  Cl11421930   5.827   0.678   5.955  0.2016 -0.3177  0.1751
  109MOL   C11521931   5.668   0.602   5.754  1.3274  0.2291  0.1172
  109MOL   C11621932   5.615   0.580   5.617 -0.1606 -0.7492  0.7337
  109MOL   H11721933   5.853   0.790   5.623  1.9283 -2.1167  1.5216
  109MOL   H11821934   5.885   0.857   5.779 -2.4000  1.5879  1.9843
  109MOL   H11921935   5.635   0.525   5.823  1.0956  1.5987  1.5687
  109MOL   H12021936   5.667   0.493   5.576  0.2824 -0.2434  0.2197
  109MOL   H12121937   5.634   0.667   5.555 -0.8891 -0.8439  0.3731
  109MOL   C12221938   5.462   0.554   5.624  0.0351 -0.3105 -0.4101
  109MOL   C12321939   5.400   0.526   5.485 -0.6245  0.0476 -1.3386
  109MOL  Cl12421940   5.352   0.362   5.473 -0.4358 -0.0058 -0.2272
  109MOL   C12521941   5.389   0.609   5.382 -0.1905 -0.1685 -0.6477
  109MOL   C12621942   5.415   0.758   5.377 -0.7598  0.4360 -0.7416
  109MOL   H12721943   5.435   0.463   5.678 -0.4195  0.4675  0.6839
  109MOL   H12821944   5.419   0.647   5.661 -0.2873  0.2260 -2.1163
  109MOL   H12921945   5.349   0.564   5.292 -1.1450  0.3870 -0.5016
  109MOL   H13021946   5.320   0.812   5.375 -0.0152  1.7224 -1.3859
  109MOL   H13121947   5.462   0.787   5.471 -0.7987  1.4820 -1.0383
  109MOL   C13221948   5.514   0.804   5.263  0.0223 -0.4996 -0.0690
  109MOL   C13321949   5.495   0.956   5.230  0.5969  1.1958 -0.2111
  109MOL  Cl13421950   5.366   0.970   5.111  0.1683 -0.0552 -0.1237
  109MOL   C13521951   5.564   1.063   5.260  0.5233  0.0019  0.1795
  109MOL   C13621952   5.677   1.068   5.355  0.1043  0.2162 -0.4299
  109MOL   H13721953   5.620   0.784   5.276  0.4906  1.2187 -1.0652
  109MOL   H13821954   5.491   0.741   5.177 -0.5829 -1.3531  0.7085
  109MOL   H13921955   5.539   1.152   5.204 -1.9221 -0.5182  0.3842
  109MOL   H14021956   5.647   1.138   5.433  1.3842 -0.7691  0.9610
  109MOL   H14121957   5.692   0.973   5.405 -0.9390  0.2232 -0.0918
  109MOL   C14221958   5.802   1.111   5.279  0.7063 -0.6524  0.2417
  109MOL   C14321959   5.915   1.142   5.378 -0.1624 -0.2165  0.1559
  109MOL  Cl14421960   6.038   1.022   5.396  0.0557  0.3587  0.0130
  109MOL   C14521961   5.922   1.256   5.447 -0.7054 -0.2369 -0.1304
  109MOL   C14621962   6.038   1.298   5.531 -0.7242 -0.0833  0.0746
  109MOL   H14721963   5.789   1.188   5.203  0.8122 -1.4464 -0.5998
  109MOL   H14821964   5.844   1.023   5.229  1.4003 -0.0074 -0.3188
  109MOL   H14921965   5.838   1.324   5.437 -0.7969 -0.2700  0.4081
  109MOL   H15021966   6.101   1.212   5.552 -0.9563 -0.3776 -0.4196
  109MOL   H15121967   6.112   1.359   5.478 -0.4200  2.0950  2.8876
  109MOL   C15221968   5.997   1.370   5.660 -0.5778  0.0930  0.3182
  109MOL   C15321969   6.113   1.399   5.748  0.3579  0.0090  0.2391
  109MOL  Cl15421970   6.230   1.502   5.674  0.2979  0.3009 -0.0654
  109MOL   C15521971   6.139   1.345   5.861  0.2371  0.6018 -0.6036
  109MOL   C15621972   6.261   1.372   5.948  0.6220  0.2470  0.3521
  109MOL   H15721973   5.950   1.465   5.636  2.1295  1.2282 -0.7798
  109MOL   H15821974   5.922   1.308   5.709  0.3796  0.4914  2.3571
  109MOL   H15921975   6.065   1.281   5.908 -1.2738  1.5419 -1.6675
  109MOL   H16021976   6.262   1.473   5.988 -0.1614 -0.2663  1.7083
  109MOL   H16121977   6.345   1.352   5.882 -0.3552 -0.8926 -0.5672
  109MOL   C16221978   6.272   1.277   6.069  0.5310  0.4771 -0.5129
  109MOL   C16321979   6.378   1.308   6.168 -0.7539 -0.8238 -0.3709
  109MOL  Cl16421980   6.380   1.196   6.298 -0.3523 -0.0532 -0.0664
  109MOL   C16521981   6.467   1.409   6.153 -0.4514  0.6906 -0.9004
  109MOL   C16621982   6.585   1.447   6.243 -0.5908  0.0245 -0.1939
  109MOL   H16721983   6.179   1.259   6.123  0.8412  2.0082  0.5578
  109MOL   H16821984   6.286   1.178   6.025 -0.7927  0.1661 -0.2430
  109MOL   H16921985   6.463   1.468   6.063 -0.2033 -0.0047 -1.3673
  109MOL   H17021986   6.573   1.544   6.290  2.9861 -0.9930  3.1139
  109MOL   H17121987   6.596   1.374   6.324  0.0642  1.0440  0.6437
  109MOL   C17221988   6.717   1.450   6.167 -0.0390 -0.3831  1.6449
  109MOL   C17321989   6.835   1.505   6.252 -0.0942 -0.2761 -0.1973
  109MOL  Cl17421990   6.904   1.647   6.182 -0.1274 -0.0076 -0.4293
  109MOL   C17521991   6.873   1.450   6.367 -0.3663  0.1331  0.1009
  109MOL   C17621992   6.981   1.495   6.463  0.6926  0.0775 -0.2354
  109MOL   H17721993   6.709   1.499   6.070 -0.2286 -0.8664  1.4145
  109MOL   H17821994   6.727   1.344   6.143  2.2200 -0.0371  0.9093
  109MOL   H17921995   6.821   1.359   6.393 -1.3660  0.6313 -0.1159
  109MOL   H18021996   6.940   1.545   6.550 -0.4936 -1.0335 -0.1416
  109MOL   H18121997   7.042   1.572   6.415 -0.8933  0.9933 -0.8084
  109MOL   C18221998   7.066   1.373   6.509  0.0769 -0.3173  0.7376
  109MOL   C18321999   7.169   1.404   6.612  0.1522  0.0870  0.7849
  109MOL  Cl18422000   7.314   1.304   6.591  0.3049  0.1228  0.0140
  109MOL   C18522001   7.151   1.482   6.726 -0.0097 -0.5307 -0.2514
  109MOL   C18622002   7.261   1.504   6.834 -0.4913  0.1538  0.1271
  109MOL   H18722003   7.000   1.298   6.553  0.3050 -1.9371 -1.5987
  109MOL   H18822004   7.110   1.335   6.416  0.6710  0.1545  0.8277
  109MOL   H18922005   7.052   1.522   6.743  0.3563  0.5688 -0.6916
  109MOL   H19022006   7.318   1.411   6.840  0.1404  0.5378  0.1832
  109MOL   H19122007   7.339   1.574   6.805  1.5259 -2.0124  0.1969
  109MOL   C19222008   7.192   1.552   6.965 -0.2799 -0.3745  0.4375
  109MOL   C19322009   7.289   1.585   7.083 -0.3337 -0.2453 -0.3165
  109MOL  Cl19422010   7.364   1.443   7.148  0.4219  0.3143 -0.4401
  109MOL   C19522011   7.313   1.711   7.127 -0.4512  0.2834  0.3272
  109MOL   C19622012   7.251   1.842   7.080  0.5268 -0.3646  0.0646
  109MOL   H19722013   7.116   1.488   7.009 -0.3005 -0.6126  0.0543
  109MOL   H19822014   7.141   1.641   6.930  2.1195  0.5724 -0.7968
  109MOL   H19922015   7.380   1.733   7.209 -0.0883  1.0909 -0.1768
  109MOL   H20022016   7.329   1.907   7.042  0.0864  1.2712  1.8451
  109MOL   H20122017   7.201   1.898   7.160 -3.1470 -2.0839 -0.9290
  109MOL   H20222018   7.183   1.830   6.995  0.9854 -0.9201 -0.2198
  110MOL     C122019   6.618   6.330   7.827  0.4927 -0.5962 -0.4023
  110MOL     C222020   6.532   6.342   7.949  0.2497 -0.3755 -0.2305
  110MOL    Cl322021   6.354   6.338   7.914 -0.3820  0.0090  0.1815
  110MOL     C422022   6.575   6.343   8.076 -0.1385  0.1240 -0.2197
  110MOL     C522023   6.719   6.327   8.127  0.2896  0.2989  0.4945
  110MOL     H622024   6.661   6.230   7.821  1.5992 -0.2418  1.3187
  110MOL     H722025   6.698   6.403   7.833  0.9289 -1.1009 -0.0607
  110MOL     H822026   6.494   6.354   8.146 -1.2415 -2.2355 -1.0598
  110MOL     H922027   6.720   6.256   8.210 -0.3760 -2.8675 -2.1051
  110MOL    H1022028   6.780   6.275   8.054 -0.9554 -0.6251  0.0964
  110MOL    H1122029   6.556   6.346   7.739  0.0687  0.5805  0.1078
  110MOL    C1222030   6.780   6.458   8.171  0.1577  0.6304 -0.2346
  110MOL    C1322031   6.919   6.446   8.223 -0.1366  0.5628  0.2590
  110MOL   Cl1422032   7.035   6.449   8.095 -0.0215  0.3155 -0.0707
  110MOL    C1522033   6.962   6.423   8.349 -0.4752  0.5347  0.2779
  110MOL    C1622034   6.870   6.392   0.052  1.0251 -0.0076  0.7078
  110MOL    H1722035   6.775   6.530   8.089 -2.0797 -0.9831 -1.5612
  110MOL    H1822036   6.718   6.499   8.252 -1.3701 -3.0377  0.5644
  110MOL    H1922037   7.066   6.420   8.376 -0.3461  0.3478 -0.2331
  110MOL    H2022038   6.881   6.464   0.133  1.8328 -0.9327  1.4286
  110MOL    H2122039   6.763   6.402   0.034  1.0071 -0.0898  0.7716
  110MOL    C2222040   6.879   6.252   0.106 -0.4252  0.3702  0.1401
  110MOL    C2322041   6.781   6.230   0.212  1.1108  0.4355 -0.2827
  110MOL   Cl2422042   6.849   6.244   0.368 -0.0232  0.1243 -0.3735
  110MOL    C2522043   6.651   6.214   0.185 -0.3548 -0.1899 -0.6162
  110MOL    C2622044   6.537   6.191   0.283 -0.6735 -0.0628  0.1778
  110MOL    H2722045   6.863   6.175   0.030  1.5318 -0.9583  1.0365
  110MOL    H2822046   6.979   6.241   0.149 -1.2183  0.3971  2.0178
  110MOL    H2922047   6.614   6.215   0.083  0.2359 -1.5455 -0.8388
  110MOL    H3022048   6.569   6.216   0.385  0.4445 -1.5170  0.2123
  110MOL    H3122049   6.467   6.270   0.255 -0.6103  0.7875  2.3025
  110MOL    C3222050   6.479   6.045   0.286 -0.4761  0.0307 -0.6638
  110MOL    C3322051   6.390   6.028   0.407 -0.0572  0.1182 -0.3677
  110MOL   Cl3422052   6.470   6.041   0.557  0.0815  0.2560  0.3784
  110MOL    C3522053   6.257   6.013   0.386  0.1119  0.0603  0.6707
  110MOL    C3622054   6.150   6.002   0.481  0.2129 -0.3737 -0.5820
  110MOL    H3722055   6.431   6.022   0.191 -0.8803 -2.0429  0.0191
  110MOL    H3822056   6.557   5.969   0.295 -0.3744  0.6022  5.2419
  110MOL    H3922057   6.231   5.998   0.283  1.5842 -2.7906  0.6635
  110MOL    H4022058   6.074   5.934   0.443 -1.0115  0.2973  0.6419
  110MOL    H4122059   6.187   5.946   0.567 -2.4662  1.0868  1.5923
  110MOL    C4222060   6.087   6.133   0.515  0.0525 -0.6486  0.5991
  110MOL    C4322061   5.975   6.125   0.623 -0.5305 -0.7092  0.7530
  110MOL   Cl4422062   5.824   6.065   0.560 -0.0758 -0.2455  0.0299
  110MOL    C4522063   5.975   6.169   0.748  0.5816  0.2397 -0.0378
  110MOL    C4622064   6.094   6.230   0.814 -0.7458  0.7132 -0.3949
  110MOL    H4722065   6.154   6.212   0.551 -0.0062 -0.5604  0.5128
  110MOL    H4822066   6.043   6.179   0.427 -0.4825  1.9928  2.1745
  110MOL    H4922067   5.882   6.159   0.803  0.0756 -0.7643 -1.0334
  110MOL    H5022068   6.159   6.145   0.839 -0.6000  1.2476  1.1129
  110MOL    H5122069   6.153   6.286   0.742  0.4587  0.4760  0.3822
  110MOL    C5222070   6.064   6.308   0.942  0.4425  0.4844  0.5512
  110MOL    C5322071   6.181   6.378   0.996 -0.1224  1.0679 -0.0127
  110MOL   Cl5422072   6.263   6.472   0.877  0.0654  0.1419 -0.4495
  110MOL    C5522073   6.231   6.350   1.118 -0.0527 -0.4859 -0.4472
  110MOL    C5622074   6.360   6.413   1.178 -0.1892  0.1601  0.1418
  110MOL    H5722075   5.981   6.377   0.933 -0.1020 -0.3328 -0.7822
  110MOL    H5822076   6.028   6.241   1.020  0.1922 -0.4579 -0.3617
  110MOL    H5922077   6.179   6.286   1.187 -1.1071 -1.1148 -1.8023
  110MOL    H6022078   6.416   6.465   1.100  0.2646 -0.4253  0.0722
  110MOL    H6122079   6.333   6.477   1.261  2.5447 -0.2215  1.3638
  110MOL    C6222080   6.456   6.312   1.246 -0.0326  0.5819  0.2508
  110MOL    C6322081   6.579   6.366   1.318 -0.9199 -0.1280  0.4082
  110MOL   Cl6422082   6.545   6.511   1.407  0.1557  0.1030 -0.2148
  110MOL    C6522083   6.699   6.312   1.318  0.4020 -0.0520  0.1338
  110MOL    C6622084   6.827   6.358   1.374  0.2435 -0.1062  0.2929
  110MOL    H6722085   6.394   6.264   1.322  1.3340 -0.7571  0.5298
  110MOL    H6822086   6.485   6.252   1.160 -0.7108 -0.8722  1.0203
  110MOL    H6922087   6.712   6.219   1.264 -1.6236  1.2477 -2.7320
  110MOL    H7022088   6.811   6.457   1.416  0.2317 -0.0339  0.1176
  110MOL    H7122089   6.897   6.369   1.292 -0.6197  0.1230 -0.4268
  110MOL    C7222090   6.875   6.248   1.468  0.3770 -0.0864 -0.4342
  110MOL    C7322091   6.768   6.195   1.570  0.5159 -0.5662 -0.4721
  110MOL   Cl7422092   6.732   6.021   1.545 -0.0675 -0.1310 -0.1005
  110MOL    C7522093   6.709   6.277   1.659 -0.2554  0.0223 -1.2790
  110MOL    C7622094   6.599   6.249   1.765 -0.0945 -0.4277  0.2744
  110MOL    H7722095   6.970   6.268   1.517  1.1962  2.4905 -2.9043
  110MOL    H7822096   6.901   6.173   1.393 -0.9084  0.5084 -1.5012
  110MOL    H7922097   6.736   6.381   1.658 -1.0042  0.2736  0.7710
  110MOL    H8022098   6.591   6.141   1.774  0.8130 -0.3890  1.6588
  110MOL    H8122099   6.509   6.281   1.713  0.7704  2.4518  0.4234
  110MOL    C8222100   6.622   6.313   1.902  0.0350  0.4729 -0.0598
  110MOL    C8322101   6.750   6.276   1.987  0.4222  0.7644 -0.6716
  110MOL   Cl8422102   6.748   6.377   2.123 -0.1413 -0.2196 -0.1975
  110MOL    C8522103   6.820   6.165   1.970  0.0875 -0.0495 -0.2413
  110MOL    C8622104   6.931   6.103   2.051 -0.2427  0.0155 -0.1128
  110MOL    H8722105   6.530   6.329   1.957 -1.0415  1.7097 -2.1676
  110MOL    H8822106   6.641   6.412   1.862  0.9462  0.7138  0.9566
  110MOL    H8922107   6.791   6.101   1.888  0.9910 -0.1536 -0.4862
  110MOL    H9022108   6.943   6.169   2.138 -1.1987  1.5538 -1.1318
  110MOL    H9122109   6.907   6.004   2.088 -1.3916 -0.0149 -0.9403
  110MOL    C9222110   7.061   6.102   1.976  0.1795  0.1174 -0.4805
  110MOL    C9322111   7.181   6.086   2.073  0.2839 -0.0941  0.3006
  110MOL   Cl9422112   7.230   6.236   2.127 -0.3395  0.0644  0.0034
  110MOL    C9522113   7.246   5.975   2.108 -0.1420 -0.3495  0.0662
  110MOL    C9622114   7.233   5.832   2.069 -0.2360  0.2466 -0.3358
  110MOL    H9722115   7.071   6.194   1.919  2.0926 -0.1882 -0.6479
  110MOL    H9822116   7.057   6.017   1.908 -0.3578 -0.3429  0.1203
  110MOL    H9922117   7.329   6.000   2.172 -0.5273 -2.8230  1.6021
  110MOL   H10022118   7.192   5.786   2.158  0.6765 -1.7291 -0.9186
  110MOL   H10122119   7.172   5.835   1.979 -0.2096  1.7552 -0.3205
  110MOL   C10222120   7.369   5.779   2.028  0.8488  0.7285 -0.5888
  110MOL   C10322121   7.382   5.621   2.021  0.2490 -0.3716  0.5833
  110MOL  Cl10422122   7.451   5.564   1.876  0.1690  0.0068  0.3571
  110MOL   C10522123   7.351   5.539   2.125  0.3856 -0.2275  0.3739
  110MOL   C10622124   7.351   5.388   2.135 -0.0992  0.2948  0.3101
  110MOL   H10722125   7.413   5.818   1.936  1.8538 -1.8708 -1.2718
  110MOL   H10822126   7.445   5.802   2.102  0.3333  1.4440 -0.2891
  110MOL   H10922127   7.326   5.600   2.211  1.0593  0.3889  0.1383
  110MOL   H11022128   7.380   5.347   2.038  0.8024 -1.3012  1.2358
  110MOL   H11122129   7.422   5.353   2.210 -3.0075  0.1088  3.0344
  110MOL   C11222130   7.217   5.329   2.182  0.4683 -0.1260  0.7564
  110MOL   C11322131   7.221   5.190   2.236  0.1964 -0.1837 -0.5029
  110MOL  Cl11422132   7.329   5.085   2.151 -0.0137 -0.0576  0.3084
  110MOL   C11522133   7.138   5.144   2.328  0.2554 -0.1265 -0.0035
  110MOL   C11622134   7.026   5.223   2.397 -0.3599 -0.3850 -0.7377
  110MOL   H11722135   7.187   5.383   2.272 -0.7391 -1.8347  1.4039
  110MOL   H11822136   7.131   5.335   2.115  0.5191 -2.3881  0.4754
  110MOL   H11922137   7.151   5.040   2.354  1.0179  0.2183  1.0104
  110MOL   H12022138   7.029   5.330   2.376  2.3168 -0.4112 -0.7570
  110MOL   H12122139   7.053   5.211   2.502 -0.9579  0.4221 -0.4945
  110MOL   C12222140   6.887   5.166   2.377 -0.6560 -0.2557  0.0441
  110MOL   C12322141   6.824   5.198   2.240 -0.3985 -0.5071  0.1873
  110MOL  Cl12422142   6.826   5.057   2.131  0.3600 -0.2068  0.0926
  110MOL   C12522143   6.781   5.314   2.193 -0.0945 -0.1046  0.2472
  110MOL   C12622144   6.787   5.443   2.264  0.1321  0.9993  0.0671
  110MOL   H12722145   6.878   5.059   2.395 -1.7233 -0.4685 -1.5736
  110MOL   H12822146   6.825   5.212   2.453  0.3483  0.5478  0.3798
  110MOL   H12922147   6.744   5.319   2.091  3.0044  0.4436 -0.9112
  110MOL   H13022148   6.684   5.477   2.280 -0.2951  0.6829 -1.9655
  110MOL   H13122149   6.813   5.439   2.370 -1.3448  0.8924  0.4414
  110MOL   C13222150   6.864   5.542   2.177  0.2337  0.4331 -0.1501
  110MOL   C13322151   6.854   5.684   2.225  0.9489  0.3707 -0.5170
  110MOL  Cl13422152   6.773   5.778   2.111 -0.2971  0.1446  0.1772
  110MOL   C13522153   6.909   5.728   2.342  0.7547 -0.2660  0.4213
  110MOL   C13622154   6.979   5.648   2.442  0.1588 -0.2235  0.4197
  110MOL   H13722155   6.967   5.507   2.169  0.6005  1.0489  1.7614
  110MOL   H13822156   6.812   5.529   2.082 -2.2583 -1.0161  1.3513
  110MOL   H13922157   6.886   5.831   2.364 -1.7510 -1.0590  1.7222
  110MOL   H14022158   6.906   5.622   2.519 -0.2223 -0.7108 -0.0997
  110MOL   H14122159   7.020   5.558   2.395  3.3222  0.1643  2.2871
  110MOL   C14222160   7.103   5.721   2.500  0.4857 -0.2857 -0.4679
  110MOL   C14322161   7.064   5.861   2.561 -0.0161 -0.1701  0.0679
  110MOL  Cl14422162   6.997   5.845   2.723 -0.4283  0.4870 -0.0684
  110MOL   C14522163   7.067   5.977   2.494 -0.5375  0.0411  0.6135
  110MOL   C14622164   7.042   6.116   2.550  0.1318 -0.1519  0.2479
  110MOL   H14722165   7.190   5.730   2.436  2.0895 -2.5172  1.3372
  110MOL   H14822166   7.148   5.672   2.586  0.3757 -0.8172 -0.7099
  110MOL   H14922167   7.100   5.974   2.391 -1.3120  0.7039  0.3402
  110MOL   H15022168   6.964   6.103   2.625  0.9331  0.3200  1.1789
  110MOL   H15122169   7.140   6.141   2.591 -0.1074  1.6444 -0.2295
  110MOL   C15222170   6.984   6.210   2.439  0.1844 -0.6603  0.2634
  110MOL   C15322171   6.993   6.355   2.492 -0.6099  0.3932  0.2539
  110MOL  Cl15422172   6.938   6.465   2.380 -0.5318  0.2320 -0.3340
  110MOL   C15522173   7.044   6.394   2.613 -0.1768 -0.6472  0.2586
  110MOL   C15622174   7.050   6.536   2.659 -0.0697 -0.0282  1.1899
  110MOL   H15722175   7.045   6.205   2.349 -0.4927 -1.8193 -0.1415
  110MOL   H15822176   6.887   6.174   2.404  0.2715 -0.8531  0.2214
  110MOL   H15922177   7.073   6.312   2.676 -2.6773 -0.5436  1.6209
  110MOL   H16022178   6.963   6.564   2.719 -0.1933  0.0808  0.9612
  110MOL   H16122179   7.059   6.608   2.578  2.1323 -1.0619  0.5012
  110MOL   C16222180   7.183   6.562   2.736  0.2587 -0.1004  0.4049
  110MOL   C16322181   7.174   6.698   2.801 -0.5267  0.3609 -0.7311
  110MOL  Cl16422182   7.297   6.806   2.741  0.5531  0.1811 -0.1343
  110MOL   C16522183   7.090   6.726   2.902  0.7224 -0.5476 -0.2264
  110MOL   C16622184   7.060   6.865   2.964 -0.7128  0.2711  0.1415
  110MOL   H16722185   7.196   6.489   2.815  0.6389 -0.1674  0.2809
  110MOL   H16822186   7.272   6.560   2.673  0.3416 -0.5896  0.5412
  110MOL   H16922187   7.031   6.643   2.939 -1.1441  1.2353  0.9274
  110MOL   H17022188   7.110   6.948   2.914  1.5312 -1.8416 -1.2142
  110MOL   H17122189   6.954   6.891   2.963 -0.6314  0.6648  0.9408
  110MOL   C17222190   7.083   6.872   3.114 -0.2261 -0.2672  0.1832
  110MOL   C17322191   7.059   7.012   3.173  0.7983  0.6135  0.2839
  110MOL  Cl17422192   7.203   7.064   3.244 -0.0701  0.0868 -0.2501
  110MOL   C17522193   6.936   7.060   3.177  0.3465 -0.5135 -0.3622
  110MOL   C17622194   6.889   7.187   3.248 -1.0026  0.3281 -0.2740
  110MOL   H17722195   7.189   6.850   3.128 -0.3170 -0.7863  0.0871
  110MOL   H17822196   7.025   6.797   3.167 -2.2845 -0.8020 -2.7009
  110MOL   H17922197   6.853   7.008   3.130 -1.5023  1.2292  0.9010
  110MOL   H18022198   6.975   7.207   3.312 -1.1393 -2.3014  0.8247
  110MOL   H18122199   6.803   7.163   3.310 -0.6034  2.4545  1.1360
  110MOL   C18222200   6.848   7.291   3.147  0.7943  0.0570  0.6325
  110MOL   C18322201   6.822   7.435   3.195  0.3642 -1.0623 -0.0118
  110MOL  Cl18422202   6.786   7.442   3.365  0.0614  0.0676 -0.1748
  110MOL   C18522203   6.827   7.545   3.109 -0.5146  0.0311 -0.0711
  110MOL   C18622204   6.804   7.689   3.140  0.4639 -0.2324 -0.6098
  110MOL   H18722205   6.931   7.300   3.077  0.2505  0.6344  0.0495
  110MOL   H18822206   6.771   7.258   3.077  3.4828 -2.7151 -1.1597
  110MOL   H18922207   6.847   7.526   3.005  1.4160  0.0427  0.2651
  110MOL   H19022208   6.706   7.713   3.099  1.1003  1.5002 -1.1519
  110MOL   H19122209   6.788   7.698   3.247 -0.0000 -0.7006 -0.6355
  110MOL   C19222210   6.928   7.776   3.090 -0.2294  0.0775  0.1407
  110MOL   C19322211   6.918   7.933   3.095  0.4760  0.5951  0.0209
  110MOL  Cl19422212   6.859   7.990   2.947 -0.0903  0.5449  0.1452
  110MOL   C19522213   6.947   8.013   3.195 -0.4480  0.0854  0.6337
  110MOL   C19622214   7.004   7.971   3.333 -0.1210  0.1245 -0.3082
  110MOL   H19722215   6.947   7.746   2.987 -0.8977 -2.1513  0.6399
  110MOL   H19822216   7.018   7.743   3.141  0.6171  2.1565  0.0370
  110MOL   H19922217   6.936   8.118   3.176  2.5139 -0.0055 -1.8386
  110MOL   H20022218   7.063   8.058   3.363 -0.0523  0.2896 -0.9121
  110MOL   H20122219   7.071   7.886   3.318 -0.6292 -0.1168 -1.2537
  110MOL   H20222220   6.921   7.956   3.402 -0.2024 -1.3370 -0.7199
  111MOL     C122221   5.084   4.345   3.293 -0.4468  0.4479  0.1100
  111MOL     C222222   4.969   4.394   3.380 -0.1104 -0.1212  0.7212
  111MOL    Cl322223   4.982   4.568   3.397 -0.2991 -0.3681  0.3759
  111MOL     C422224   4.860   4.322   3.422 -0.4255 -0.4492 -0.3112
  111MOL     C522225   4.837   4.178   3.404 -0.3355  0.0945 -0.2330
  111MOL     H622226   5.050   4.299   3.201 -0.6622 -0.9053  0.8539
  111MOL     H722227   5.152   4.277   3.345 -0.4099 -0.2086 -0.8065
  111MOL     H822228   4.791   4.388   3.473  1.4744  0.7354  0.8204
  111MOL     H922229   4.750   4.168   3.339  0.9577  2.9196 -2.4980
  111MOL    H1022230   4.919   4.128   3.352  0.7728  0.4801  1.1083
  111MOL    H1122231   5.138   4.433   3.256 -2.1568  1.5005  0.0756
  111MOL    C1222232   4.801   4.104   3.540  0.1291 -0.9519 -0.1233
  111MOL    C1322233   4.832   3.956   3.547  0.4559 -0.1351 -0.0431
  111MOL   Cl1422234   5.000   3.936   3.594  0.4632  0.2394  0.3004
  111MOL    C1522235   4.741   3.855   3.529  0.2027  0.3052 -0.3187
  111MOL    C1622236   4.595   3.875   3.500  0.5505 -1.1145 -0.2568
  111MOL    H1722237   4.860   4.160   3.612 -2.1221  2.5595 -0.8848
  111MOL    H1822238   4.697   4.130   3.561 -0.0139 -3.6365  2.9267
  111MOL    H1922239   4.778   3.755   3.545  0.3932  0.3874 -0.2407
  111MOL    H2022240   4.563   3.977   3.521 -1.4349 -1.4669 -1.4919
  111MOL    H2122241   4.577   3.857   3.394 -0.3550 -0.5190 -0.2078
  111MOL    C2222242   4.501   3.786   3.579 -0.7147  0.0873 -0.2012
  111MOL    C2322243   4.358   3.785   3.539 -0.4871 -0.2539  0.2965
  111MOL   Cl2422244   4.319   3.651   3.440 -0.1735  0.0244  0.1629
  111MOL    C2522245   4.266   3.871   3.587  0.4065  0.5008  0.7604
  111MOL    C2622246   4.118   3.868   3.553 -0.3195 -0.9126 -0.1616
  111MOL    H2722247   4.545   3.687   3.571  0.1519  0.1902  2.6274
  111MOL    H2822248   4.504   3.819   3.683 -1.2856 -0.4727 -0.0040
  111MOL    H2922249   4.306   3.952   3.646 -0.1889  2.6668 -1.7062
  111MOL    H3022250   4.069   3.779   3.513  1.4536 -1.3967 -1.2847
  111MOL    H3122251   4.065   3.894   3.645  2.2205  2.0968  0.5404
  111MOL    C3222252   4.084   3.999   3.477 -0.3876  0.3224 -1.0020
  111MOL    C3322253   3.935   4.048   3.489 -0.0568 -0.2601 -0.3082
  111MOL   Cl3422254   3.930   4.219   3.520  0.3129  0.1242 -0.5770
  111MOL    C3522255   3.823   3.980   3.462  0.7045  0.6212 -0.1054
  111MOL    C3622256   3.679   4.033   3.453 -0.2686 -0.1016  0.3904
  111MOL    H3722257   4.140   4.080   3.524  1.2267 -2.0885  1.3861
  111MOL    H3822258   4.120   4.006   3.375  0.8610 -1.1514 -0.6708
  111MOL    H3922259   3.836   3.874   3.444  0.8244  0.7259 -0.6474
  111MOL    H4022260   3.674   4.136   3.489 -2.6188 -0.3973  0.9917
  111MOL    H4122261   3.655   4.038   3.347  0.0347 -0.9062  0.2872
  111MOL    C4222262   3.569   3.961   3.526 -0.0658  0.0637  0.5005
  111MOL    C4322263   3.426   4.014   3.497  0.1289 -0.0437 -0.0618
  111MOL   Cl4422264   3.350   4.089   3.630 -0.0393 -0.1356  0.1107
  111MOL    C4522265   3.358   4.012   3.379 -0.4552 -0.0586  0.2829
  111MOL    C4622266   3.399   3.942   3.254 -0.0195 -0.6668  0.0675
  111MOL    H4722267   3.565   3.859   3.488 -3.2859  0.8294 -1.4232
  111MOL    H4822268   3.597   3.955   3.632  0.5945 -0.3161  0.3079
  111MOL    H4922269   3.262   4.060   3.370  0.0665  0.8702 -0.3870
  111MOL    H5022270   3.503   3.911   3.241 -0.9622 -4.0705  0.1777
  111MOL    H5122271   3.322   3.864   3.252 -3.0509  2.2252 -0.1187
  111MOL    C5222272   3.379   4.040   3.135 -0.2653  0.0284  0.0312
  111MOL    C5322273   3.344   3.962   3.001  0.1060  0.4664 -0.4755
  111MOL   Cl5422274   3.173   3.929   2.991  0.0525  0.0772  0.0025
  111MOL    C5522275   3.433   3.937   2.901  0.4779  0.1965  0.5611
  111MOL    C5622276   3.406   3.857   2.769 -0.6972 -0.0511 -0.7680
  111MOL    H5722277   3.327   4.129   3.169  0.9190  0.7218  0.0513
  111MOL    H5822278   3.476   4.083   3.113  0.7962 -2.2829  0.0430
  111MOL    H5922279   3.535   3.970   2.912  0.8550 -0.6449 -0.2426
  111MOL    H6022280   3.301   3.828   2.767 -1.0309  1.1409 -0.6168
  111MOL    H6122281   3.417   3.928   2.687  0.3946 -0.0386 -0.6195
  111MOL    C6222282   3.501   3.746   2.749 -0.2014  0.1894  0.4218
  111MOL    C6322283   3.467   3.657   2.634 -0.5514 -0.2029  0.2515
  111MOL   Cl6422284   3.514   3.747   2.487  0.3288 -0.0221 -0.4688
  111MOL    C6522285   3.400   3.539   2.633 -0.0999  0.1401  0.2098
  111MOL    C6622286   3.371   3.461   2.507 -1.2539 -0.0243  0.3366
  111MOL    H6722287   3.595   3.799   2.733 -1.7135  2.6306 -0.7895
  111MOL    H6822288   3.522   3.696   2.844  0.2036  0.8796  0.6997
  111MOL    H6922289   3.366   3.484   2.719  1.3003  0.3185  0.8911
  111MOL    H7022290   3.461   3.404   2.483 -0.7311  1.0006 -0.1885
  111MOL    H7122291   3.367   3.538   2.430 -1.4264  0.5989  0.9613
  111MOL    C7222292   3.235   3.393   2.517 -0.1597 -0.2927  0.0549
  111MOL    C7322293   3.200   3.274   2.420 -0.1758  0.0673  0.0562
  111MOL   Cl7422294   3.058   3.182   2.484  0.1440  0.3532 -0.0496
  111MOL    C7522295   3.268   3.249   2.308  0.0950 -0.3849  0.1614
  111MOL    C7622296   3.251   3.136   2.200 -0.4004  0.2117  0.1002
  111MOL    H7722297   3.163   3.473   2.501  1.1617  0.6057 -1.5520
  111MOL    H7822298   3.215   3.354   2.617  2.8015  0.2100  0.9013
  111MOL    H7922299   3.348   3.316   2.280 -0.2086  0.7999  2.0432
  111MOL    H8022300   3.189   3.178   2.120  0.8358  1.9172  0.0229
  111MOL    H8122301   3.177   3.071   2.246 -1.0076  0.6459 -0.2486
  111MOL    C8222302   3.378   3.059   2.151  0.6044 -0.2584 -0.1973
  111MOL    C8322303   3.353   2.964   2.043 -0.2231 -0.1093 -0.2583
  111MOL   Cl8422304   3.443   3.013   1.896  0.0317 -0.0487  0.2871
  111MOL    C8522305   3.286   2.850   2.049 -0.0964  0.1506 -0.4144
  111MOL    C8622306   3.267   2.753   1.935  0.1819 -0.0713  0.1946
  111MOL    H8722307   3.418   3.005   2.237 -1.3859 -1.8982 -0.2902
  111MOL    H8822308   3.443   3.138   2.112 -0.6487  0.5676 -0.6483
  111MOL    H8922309   3.248   2.824   2.146  0.7311 -0.7310 -0.3156
  111MOL    H9022310   3.158   2.747   1.934  0.2357 -1.0292  0.1753
  111MOL    H9122311   3.298   2.783   1.835 -0.5267 -2.6806 -0.8362
  111MOL    C9222312   3.333   2.614   1.957  0.0910  0.2912  0.0871
  111MOL    C9322313   3.304   2.519   1.844  0.0049 -0.4984 -0.9508
  111MOL   Cl9422314   3.138   2.469   1.840 -0.0426  0.0866 -0.1767
  111MOL    C9522315   3.394   2.471   1.753 -0.1456 -0.2510 -0.2806
  111MOL    C9622316   3.539   2.514   1.730  0.6997  0.1596 -0.3202
  111MOL    H9722317   3.298   2.573   2.052  0.4258 -0.4278 -0.0918
  111MOL    H9822318   3.439   2.626   1.980 -0.1352  0.3404  1.1278
  111MOL    H9922319   3.356   2.393   1.688 -0.3356  0.3798 -0.9345
  111MOL   H10022320   3.578   2.545   1.827 -1.4674 -0.7269  0.8821
  111MOL   H10122321   3.580   2.422   1.687 -1.5559 -0.2129 -1.8130
  111MOL   C10222322   3.540   2.639   1.635  0.4203 -0.2482 -0.0428
  111MOL   C10322323   3.672   2.674   1.569  0.0099  0.2321  0.2100
  111MOL  Cl10422324   3.693   2.844   1.549  0.1128  0.0570 -0.2037
  111MOL   C10522325   3.759   2.586   1.521  0.9150  0.4686  0.3242
  111MOL   C10622326   3.892   2.621   1.451 -0.2013  0.0434  0.4161
  111MOL   H10722327   3.470   2.629   1.553 -0.0273  0.3730  0.2599
  111MOL   H10822328   3.499   2.721   1.694 -0.2427 -0.9454  0.4748
  111MOL   H10922329   3.751   2.479   1.531  1.2315  0.5842  2.0688
  111MOL   H11022330   3.930   2.715   1.489 -2.5630  0.6116  1.4333
  111MOL   H11122331   3.949   2.530   1.474 -1.9649 -0.8330  1.4231
  111MOL   C11222332   3.862   2.622   1.303 -0.0262 -0.4962  0.7476
  111MOL   C11322333   3.987   2.617   1.216  0.0519 -0.3159  0.1564
  111MOL  Cl11422334   4.019   2.776   1.148 -0.1830  0.0488 -0.0193
  111MOL   C11522335   4.066   2.517   1.181 -0.1948 -0.4966  0.2244
  111MOL   C11622336   4.052   2.373   1.223 -0.5780 -0.0499  0.2875
  111MOL   H11722337   3.799   2.542   1.264  0.4946  0.5718 -2.4495
  111MOL   H11822338   3.801   2.709   1.277  1.0217 -0.2251 -0.8765
  111MOL   H11922339   4.154   2.546   1.126 -0.4005  0.8565  0.5877
  111MOL   H12022340   4.064   2.310   1.135  0.5201 -0.1143  0.4746
  111MOL   H12122341   3.954   2.345   1.263  0.0153 -1.9873  0.4235
  111MOL   C12222342   4.166   2.338   1.315  0.0033  0.4588  0.4474
  111MOL   C12322343   4.217   2.198   1.293  0.2984 -0.3082  0.4562
  111MOL  Cl12422344   4.359   2.197   1.186 -0.0223 -0.2300 -0.0449
  111MOL   C12522345   4.170   2.085   1.350  0.4980 -0.2423 -0.3190
  111MOL   C12622346   4.057   2.077   1.446  0.2573  0.3936  0.1452
  111MOL   H12722347   4.247   2.410   1.305 -0.3566  1.0252  1.4884
  111MOL   H12822348   4.143   2.358   1.420 -1.8776 -1.4562  0.4310
  111MOL   H12922349   4.226   1.997   1.321  0.9580 -0.1949  0.3976
  111MOL   H13022350   4.088   2.027   1.538 -1.7220 -1.6246 -0.2300
  111MOL   H13122351   4.033   2.177   1.482 -0.4443  0.5612 -0.7785
  111MOL   C13222352   3.934   2.011   1.377 -0.4956 -0.2096 -0.1297
  111MOL   C13322353   3.827   1.982   1.484 -0.7570 -0.7052  0.0176
  111MOL  Cl13422354   3.844   1.828   1.559  0.0348  0.0413  0.1031
  111MOL   C13522355   3.722   2.061   1.505  0.5453  0.1674  0.2106
  111MOL   C13622356   3.680   2.196   1.436 -0.0769 -0.1209 -0.1606
  111MOL   H13722357   3.891   2.069   1.296  0.5161  0.5274 -0.1443
  111MOL   H13822358   3.961   1.915   1.333  1.9079 -0.2818  1.3796
  111MOL   H13922359   3.654   2.020   1.580  0.6975  0.7582  0.6735
  111MOL   H14022360   3.645   2.258   1.518 -4.5952 -1.0822 -1.2296
  111MOL   H14122361   3.772   2.236   1.393  2.0616 -3.8017  0.7446
  111MOL   C14222362   3.570   2.172   1.337 -0.1588  0.4046  0.4500
  111MOL   C14322363   3.534   2.298   1.258  0.3566 -0.7236  0.1525
  111MOL  Cl14422364   3.372   2.351   1.309  0.1056 -0.3402  0.0715
  111MOL   C14522365   3.607   2.361   1.161 -0.3148  0.4491  0.4605
  111MOL   C14622366   3.556   2.479   1.081  0.2639  0.4278 -0.4180
  111MOL   H14722367   3.481   2.132   1.384 -0.5304 -0.3795 -0.8865
  111MOL   H14822368   3.600   2.095   1.265 -2.1561 -0.4984  0.5711
  111MOL   H14922369   3.708   2.328   1.146 -0.0660  1.4373 -0.0772
  111MOL   H15022370   3.457   2.514   1.111  1.2265  0.9909  2.3191
  111MOL   H15122371   3.617   2.562   1.115  3.0427 -0.9519 -1.9082
  111MOL   C15222372   3.586   2.467   0.934 -0.6206  0.6375 -0.6332
  111MOL   C15322373   3.564   2.590   0.848  0.3708 -0.1476 -0.6600
  111MOL  Cl15422374   3.566   2.541   0.682  0.0238  0.2689  0.1674
  111MOL   C15522375   3.538   2.714   0.888  1.0088  0.0293  0.3034
  111MOL   C15622376   3.492   2.832   0.794 -0.9879  0.1769  0.3606
  111MOL   H15722377   3.691   2.439   0.936 -0.1249  2.4787  0.7983
  111MOL   H15822378   3.525   2.385   0.895 -0.6766 -0.3843  1.5162
  111MOL   H15922379   3.553   2.737   0.993 -0.1068 -1.6811  0.8691
  111MOL   H16022380   3.409   2.876   0.849  0.4553 -0.5342  3.1940
  111MOL   H16122381   3.459   2.782   0.702  0.2997 -2.8619  1.4777
  111MOL   C16222382   3.612   2.943   0.779  0.4295 -0.1658  0.6056
  111MOL   C16322383   3.743   2.902   0.714 -0.6121 -0.8418 -0.1906
  111MOL  Cl16422384   3.877   2.980   0.799 -0.1173  0.1999  0.1035
  111MOL   C16522385   3.754   2.826   0.603  0.2924  0.0086  0.9450
  111MOL   C16622386   3.884   2.787   0.544 -0.0249 -0.7334 -1.0039
  111MOL   H16722387   3.579   3.022   0.710 -1.5986 -1.1967  0.3681
  111MOL   H16822388   3.631   2.992   0.874 -2.5461  0.4145  0.9455
  111MOL   H16922389   3.666   2.792   0.551  0.1571  0.3332  0.9650
  111MOL   H17022390   3.966   2.809   0.613 -1.1001  2.4901 -0.7014
  111MOL   H17122391   3.876   2.680   0.524 -0.0436 -1.0630  0.7083
  111MOL   C17222392   3.911   2.844   0.409 -0.5277  0.8305  0.4735
  111MOL   C17322393   4.054   2.804   0.365 -0.5878 -0.4675 -0.0767
  111MOL  Cl17422394   4.073   2.632   0.319  0.1792 -0.1351 -0.1150
  111MOL   C17522395   4.164   2.887   0.355  0.3185 -0.1465 -0.1889
  111MOL   C17622396   4.304   2.847   0.307 -0.0598  0.8856  0.0424
  111MOL   H17722397   3.892   2.951   0.403  0.1276  0.8689 -1.3495
  111MOL   H17822398   3.850   2.792   0.335  1.2692 -1.5717  0.6092
  111MOL   H17922399   4.141   2.988   0.387 -1.4349 -0.5072 -0.2118
  111MOL   H18022400   4.302   2.747   0.265  0.1470  1.6691 -1.8801
  111MOL   H18122401   4.380   2.836   0.385  0.1406 -1.4163 -0.4555
  111MOL   C18222402   4.368   2.917   0.192 -0.3077  0.0332  0.2243
  111MOL   C18322403   4.490   2.847   0.131 -0.1886 -0.5903  0.8863
  111MOL  Cl18422404   4.636   2.864   0.217 -0.1000 -0.0683  0.4401
  111MOL   C18522405   4.481   2.760   0.028  0.1845 -0.0771 -0.0607
  111MOL   C18622406   4.586   2.666   8.391 -0.2127  0.4500 -0.3516
  111MOL   H18722407   4.286   2.917   0.121  0.0291  1.1418 -0.1836
  111MOL   H18822408   4.392   3.020   0.221  1.6902 -0.2583 -0.3045
  111MOL   H18922409   4.391   2.751   8.389  0.6591 -1.0759 -0.6397
  111MOL   H19022410   4.680   2.682   0.022 -0.7058  0.9421  0.4064
  111MOL   H19122411   4.542   2.570   8.417 -2.0185  1.4885  0.5054
  111MOL   C19222412   4.599   2.702   8.244 -0.1556  0.2581  0.2178
  111MOL   C19322413   4.504   2.636   8.150  0.8201  0.4012 -0.2890
  111MOL  Cl19422414   4.405   2.756   8.059  0.0883  0.1389 -0.1247
  111MOL   C19522415   4.494   2.505   8.126 -0.2839  0.4322 -0.1479
  111MOL   C19622416   4.589   2.402   8.184  0.5852 -0.0345  0.4101
  111MOL   H19722417   4.699   2.665   8.221  0.3182  2.4551 -1.4660
  111MOL   H19822418   4.592   2.809   8.223  0.4173  0.1234 -0.7129
  111MOL   H19922419   4.425   2.474   8.049 -0.8931 -1.1899  1.0133
  111MOL   H20022420   4.632   2.337   8.108  1.1750  2.2796 -1.3106
  111MOL   H20122421   4.544   2.334   8.256 -0.4861  1.1639  0.9069
  111MOL   H20222422   4.665   2.459   8.238 -0.4800  1.8982 -0.0685
  112MOL     C122423   2.445   6.980   0.654 -0.3954 -0.7107 -0.9151
  112MOL     C222424   2.559   7.084   0.643 -0.1911  1.0294 -0.0020
  112MOL    Cl322425   2.677   7.038   0.526  0.0421 -0.2378 -0.4019
  112MOL     C422426   2.584   7.191   0.722  0.0750  0.9473 -0.1479
  112MOL     C522427   2.498   7.238   0.841  0.0837  0.0487  0.0749
  112MOL     H622428   2.434   6.939   0.554  1.7072  0.0794 -1.4776
  112MOL     H722429   2.352   7.022   0.693  0.0434 -0.2295 -0.3789
  112MOL     H822430   2.669   7.255   0.702  1.5197 -0.9851 -0.2599
  112MOL     H922431   2.464   7.338   0.817  0.8842  0.3526  0.1992
  112MOL    H1022432   2.398   7.199   0.862  1.4684 -2.5507  2.1445
  112MOL    H1122433   2.472   6.893   0.715  0.8399 -1.0378 -1.9059
  112MOL    C1222434   2.580   7.239   0.970 -0.2938  0.2071 -0.8060
  112MOL    C1322435   2.571   7.115   1.047 -0.1092 -0.3559  1.0100
  112MOL   Cl1422436   2.438   7.121   1.152 -0.3865 -0.3160 -0.1006
  112MOL    C1522437   2.655   7.009   1.049 -0.1886 -0.1741 -0.8061
  112MOL    C1622438   2.781   6.997   0.965 -0.3119 -0.2990  0.7346
  112MOL    H1722439   2.679   7.270   0.937  0.3822 -0.3426  0.6717
  112MOL    H1822440   2.536   7.311   1.039  1.0267  1.0031 -0.7902
  112MOL    H1922441   2.625   6.932   1.118  0.1242  2.3278  2.2497
  112MOL    H2022442   2.790   7.073   0.888 -0.8899 -2.4772 -1.5383
  112MOL    H2122443   2.863   7.010   1.036  1.4555 -2.1143 -0.9338
  112MOL    C2222444   2.789   6.865   0.881 -0.2586  0.2888 -0.6427
  112MOL    C2322445   2.905   6.835   0.786  0.8296  0.3075 -0.4783
  112MOL   Cl2422446   2.859   6.713   0.666  0.1502  0.3045 -0.1228
  112MOL    C2522447   3.023   6.902   0.784  0.1475  0.0441 -1.2089
  112MOL    C2622448   3.133   6.881   0.688  0.2604  0.0017 -0.0897
  112MOL    H2722449   2.807   6.797   0.965  2.4202  1.3787 -0.2735
  112MOL    H2822450   2.700   6.845   0.822 -0.1187 -1.4724 -0.2839
  112MOL    H2922451   3.042   6.979   0.857  0.4595 -0.7415 -0.4462
  112MOL    H3022452   3.213   6.839   0.748  0.9233 -0.9753 -1.6369
  112MOL    H3122453   3.112   6.797   0.621 -3.8442  2.8284 -2.6178
  112MOL    C3222454   3.183   7.001   0.621  0.1621 -0.9962 -0.0246
  112MOL    C3322455   3.082   7.060   0.516 -0.4690 -0.0146  0.2372
  112MOL   Cl3422456   3.021   7.221   0.559  0.0148  0.1358 -0.2588
  112MOL    C3522457   3.035   6.997   0.407  0.4188 -0.7882 -0.7296
  112MOL    C3622458   2.928   7.046   0.316  0.6073 -0.2987 -0.7926
  112MOL    H3722459   3.203   7.080   0.693 -2.0461  0.6016 -1.0946
  112MOL    H3822460   3.274   6.975   0.568 -0.6983 -1.7820 -1.1312
  112MOL    H3922461   3.064   6.897   0.378  1.1721 -0.4721 -1.0930
  112MOL    H4022462   2.846   6.974   0.314 -0.7221  1.2014 -3.0789
  112MOL    H4122463   2.882   7.138   0.352  2.0807  0.5029 -0.9281
  112MOL    C4222464   2.991   7.053   0.177  0.4285  0.3315 -0.5221
  112MOL    C4322465   2.901   7.063   0.056 -1.0982  0.1306 -0.8558
  112MOL   Cl4422466   2.894   6.920   8.381  0.3173 -0.2620  0.1004
  112MOL    C4522467   2.836   7.177   0.024  0.7586  0.4086  0.6123
  112MOL    C4622468   2.847   7.313   0.097  0.1448 -0.0786 -0.3411
  112MOL    H4722469   3.068   7.130   0.181  2.1074 -1.2256 -1.7948
  112MOL    H4822470   3.055   6.966   0.158 -1.0134 -1.4001  2.1823
  112MOL    H4922471   2.777   7.187   8.356  0.7461  1.9385  0.7899
  112MOL    H5022472   2.938   7.321   0.157 -0.1681  0.8447  0.0216
  112MOL    H5122473   2.864   7.390   0.023  1.3322 -0.0221 -0.0205
  112MOL    C5222474   2.729   7.363   0.179  0.0870 -0.4912  0.2259
  112MOL    C5322475   2.776   7.457   0.288  0.0220  0.5164 -0.2156
  112MOL   Cl5422476   2.850   7.610   0.229  0.5819  0.3307 -0.5589
  112MOL    C5522477   2.778   7.426   0.419  0.5230 -0.1548 -0.9223
  112MOL    C5622478   2.831   7.512   0.524  0.6263 -0.2433 -0.5668
  112MOL    H5722479   2.665   7.422   0.113 -2.0895 -0.4073  2.3101
  112MOL    H5822480   2.668   7.287   0.227 -2.1412  0.2118 -1.4140
  112MOL    H5922481   2.747   7.327   0.449  1.6227 -0.3300 -0.3259
  112MOL    H6022482   2.896   7.451   0.586  1.1395  0.3261 -0.5421
  112MOL    H6122483   2.898   7.590   0.490  0.0841  1.2621  1.6560
  112MOL    C6222484   2.728   7.576   0.617 -0.2334 -0.7509 -0.1634
  112MOL    C6322485   2.785   7.652   0.742  0.3345 -0.6146  0.3837
  112MOL   Cl6422486   2.891   7.788   0.720 -0.2530 -0.2109  0.0490
  112MOL    C6522487   2.748   7.617   0.865  0.3977  0.5400  0.3829
  112MOL    C6622488   2.793   7.674   0.999 -0.0525  0.6297 -0.7347
  112MOL    H6722489   2.672   7.648   0.557 -1.5332 -0.2628  1.5748
  112MOL    H6822490   2.653   7.507   0.656 -1.4130  2.3184  3.3093
  112MOL    H6922491   2.677   7.538   0.881  0.3101  0.6781  0.6884
  112MOL    H7022492   2.714   7.742   1.031 -0.3200 -0.7533  1.6322
  112MOL    H7122493   2.868   7.750   0.978  0.0137  0.7825  0.0525
  112MOL    C7222494   2.833   7.571   1.102 -0.4797 -0.0084 -0.4302
  112MOL    C7322495   2.896   7.645   1.219  0.2979  0.0795  0.2654
  112MOL   Cl7422496   3.070   7.620   1.223 -0.0301  0.1831  0.2577
  112MOL    C7522497   2.828   7.703   1.315 -0.1924  0.3905  0.3513
  112MOL    C7622498   2.883   7.789   1.430  0.2651  0.8900  0.3127
  112MOL    H7722499   2.899   7.502   1.049  0.4614 -0.4986  1.3273
  112MOL    H7822500   2.743   7.519   1.135  0.0213 -1.3136 -1.0880
  112MOL    H7922501   2.722   7.684   1.307 -0.4969  2.2983 -0.5452
  112MOL    H8022502   2.840   7.889   1.421  0.8083  1.0431 -0.5902
  112MOL    H8122503   2.991   7.802   1.423  0.4342 -0.9790 -0.8212
  112MOL    C8222504   2.844   7.727   1.565 -0.2643  0.1426  0.2036
  112MOL    C8322505   2.920   7.786   1.681  0.3634  0.4875 -0.3623
  112MOL   Cl8422506   3.087   7.728   1.673  0.1461 -0.0867 -0.2127
  112MOL    C8522507   2.866   7.860   1.782 -0.2535  0.5095 -0.6185
  112MOL    C8622508   2.932   7.900   1.905  0.3194  0.9866 -0.0280
  112MOL    H8722509   2.842   7.618   1.556 -2.1504  0.1886 -0.2995
  112MOL    H8822510   2.741   7.754   1.587 -0.7281 -0.4023 -1.2097
  112MOL    H8922511   2.764   7.894   1.764 -1.1748 -1.6035  0.5154
  112MOL    H9022512   3.037   7.878   1.889  0.3163 -0.2992  1.5868
  112MOL    H9122513   2.916   8.006   1.923  1.2708  1.1933 -0.3669
  112MOL    C9222514   2.881   7.819   2.027 -0.0460  0.1171  0.2306
  112MOL    C9322515   2.946   7.852   2.162 -0.8879 -0.2267  0.1940
  112MOL   Cl9422516   3.088   7.763   2.185  0.0509 -0.0257  0.2197
  112MOL    C9522517   2.898   7.942   2.255 -0.2701  0.3571 -0.2231
  112MOL    C9622518   2.771   8.019   2.247  0.6473  0.7613 -0.1073
  112MOL    H9722519   2.901   7.713   2.013  0.3058  0.0749  1.0568
  112MOL    H9822520   2.773   7.831   2.033  0.0726  2.4102 -1.3262
  112MOL    H9922521   2.958   7.964   2.342 -1.1593  0.8480  0.2664
  112MOL   H10022522   2.819   8.115   2.270 -0.6219  0.6459  3.2961
  112MOL   H10122523   2.722   8.020   2.150 -0.9057  0.4130  0.6718
  112MOL   C10222524   2.666   7.977   2.355  0.2333  0.4182 -0.2970
  112MOL   C10322525   2.543   8.061   2.333 -0.9346 -0.0849 -0.6369
  112MOL  Cl10422526   2.491   8.142   2.477  0.0689 -0.0840  0.0450
  112MOL   C10522527   2.469   8.062   2.220  0.1047 -0.4732 -0.0362
  112MOL   C10622528   2.346   8.149   2.187  0.5891  0.2977 -0.0901
  112MOL   H10722529   2.648   7.871   2.337  1.7365  0.2589 -0.9815
  112MOL   H10822530   2.712   7.984   2.454  1.3506 -2.6713 -0.5647
  112MOL   H10922531   2.505   8.003   2.137 -1.2831  0.5703 -1.4084
  112MOL   H11022532   2.262   8.082   2.204  1.5046 -1.1129 -1.0112
  112MOL   H11122533   2.347   8.235   2.254 -0.5915  0.4830 -0.2925
  112MOL   C11222534   2.338   8.201   2.038 -0.2905  0.5376  0.3656
  112MOL   C11322535   2.244   8.310   2.010  0.8924 -1.2043  0.2483
  112MOL  Cl11422536   2.089   8.303   2.094  0.1514 -0.5388 -0.2334
  112MOL   C11522537   2.264   8.416   1.921 -0.5158  0.4814  0.0947
  112MOL   C11622538   2.386   0.023   1.831 -0.1267  0.0980 -0.5159
  112MOL   H11722539   2.437   8.245   2.023 -1.2630  2.8656  0.5934
  112MOL   H11822540   2.312   8.121   1.968  3.6234 -1.1952  0.7462
  112MOL   H11922541   2.181   0.065   1.924 -0.5449  0.3980  1.5284
  112MOL   H12022542   2.362   8.406   1.731 -0.0131  0.0171 -0.5131
  112MOL   H12122543   2.462   8.377   1.870 -2.5241 -1.7095  1.2242
  112MOL   C12222544   2.419   0.176   1.829  0.8182  0.4442  0.2739
  112MOL   C12322545   2.536   0.211   1.732 -0.2003  0.3775 -0.2023
  112MOL  Cl12422546   2.682   0.214   1.816 -0.2463 -0.0497  0.2746
  112MOL   C12522547   2.528   0.221   1.600  0.1721  0.2906 -0.5102
  112MOL   C12622548   2.399   0.194   1.525 -0.2154  0.3437 -0.4790
  112MOL   H12722549   2.338   0.244   1.806 -0.1002 -0.4376  0.8438
  112MOL   H12822550   2.464   0.198   1.925  1.9393  2.4583 -0.6805
  112MOL   H12922551   2.617   0.244   1.543 -0.1618  0.3209 -1.0148
  112MOL   H13022552   2.331   0.130   1.582  2.2225 -0.6500  1.3848
  112MOL   H13122553   2.345   0.289   1.520 -2.6447 -1.0377 -1.2977
  112MOL   C13222554   2.414   0.144   1.384  0.0796 -0.6490 -0.0562
  112MOL   C13322555   2.280   0.127   1.304  0.1784 -0.7634  0.0734
  112MOL  Cl13422556   2.276   0.248   1.177 -0.2370 -0.2404 -0.2715
  112MOL   C13522557   2.186   0.040   1.317  0.7462  0.6291 -0.4689
  112MOL   C13622558   2.181   8.341   1.411 -0.2568  0.0688  0.4866
  112MOL   H13722559   2.462   0.223   1.328 -1.9585  2.3616  2.2701
  112MOL   H13822560   2.474   0.053   1.383 -0.2987 -0.9088  0.5922
  112MOL   H13922561   2.098   0.035   1.255 -1.0887 -0.0273  2.0943
  112MOL   H14022562   2.190   8.255   1.345  1.6059  3.0980 -3.4057
  112MOL   H14122563   2.265   8.347   1.480 -1.4954 -0.8391  2.1004
  112MOL   C14222564   2.059   8.344   1.502 -0.2707 -0.4931  0.7010
  112MOL   C14322565   2.037   8.221   1.585 -0.1539 -0.3679 -0.6236
  112MOL  Cl14422566   2.007   8.261   1.752 -0.0207  0.2643  0.3574
  112MOL   C14522567   2.050   8.090   1.551 -0.0357 -0.7898 -0.2079
  112MOL   C14622568   2.049   7.972   1.646 -0.1950 -0.8923  0.2573
  112MOL   H14722569   1.973   8.343   1.435  0.1368 -1.1472  0.1879
  112MOL   H14822570   2.050   0.012   1.565 -0.9917 -0.3234  0.3646
  112MOL   H14922571   2.073   8.063   1.449  1.2305 -0.3200 -0.0617
  112MOL   H15022572   2.061   8.003   1.750 -0.1623  2.1747 -0.5940
  112MOL   H15122573   1.956   7.917   1.640  0.1931 -1.5325  0.0858
  112MOL   C15222574   2.159   7.873   1.607 -0.3952  0.5645  0.6677
  112MOL   C15322575   2.295   7.921   1.654  0.1812  0.3011  0.3854
  112MOL  Cl15422576   2.337   7.862   1.812  0.1311  0.1258 -0.1006
  112MOL   C15522577   2.382   7.985   1.571 -0.2183  0.4788 -0.3355
  112MOL   C15622578   2.524   8.033   1.604 -0.1828 -1.1774  0.2145
  112MOL   H15722579   2.154   7.773   1.651 -0.6671 -0.3172 -1.3475
  112MOL   H15822580   2.164   7.858   1.499  0.5225 -0.9990  0.9144
  112MOL   H15922581   2.354   8.014   1.471 -0.1948  0.0358 -0.4725
  112MOL   H16022582   2.593   8.004   1.524 -1.9160 -2.2577 -0.9115
  112MOL   H16122583   2.547   7.979   1.695 -0.5643 -0.7826  0.5480
  112MOL   C16222584   2.533   8.185   1.630 -0.5873  0.1845 -0.4536
  112MOL   C16322585   2.674   8.245   1.638 -0.3800 -0.0722  0.0506
  112MOL  Cl16422586   2.774   8.174   1.765  0.2945 -0.0634 -0.1067
  112MOL   C16522587   2.734   8.324   1.542  0.0667  0.3332 -0.2030
  112MOL   C16622588   2.874   8.374   1.544 -0.2343 -1.0674  0.1991
  112MOL   H16722589   2.480   8.244   1.554 -0.1408  2.3660  0.8825
  112MOL   H16822590   2.495   8.198   1.731 -4.7712 -1.7989 -1.6675
  112MOL   H16922591   2.676   8.356   1.457  1.4231  3.8360  0.0601
  112MOL   H17022592   2.878   0.058   1.515 -1.0082 -1.0206  0.2512
  112MOL   H17122593   2.909   8.366   1.647  0.6518 -0.9929 -0.0887
  112MOL   C17222594   2.967   8.288   1.455 -0.1950  0.0133  0.2780
  112MOL   C17322595   2.936   8.300   1.305 -0.1657  0.8045  0.3082
  112MOL  Cl17422596   2.960   8.150   1.236  0.1060  0.1196  0.2396
  112MOL   C17522597   2.897   8.405   1.233 -0.6979 -0.3729  0.0973
  112MOL   C17622598   2.856   8.414   1.092 -0.1255  0.8049  0.1621
  112MOL   H17722599   2.969   8.185   1.491  1.5121  0.3141  1.0570
  112MOL   H17822600   3.070   8.319   1.473 -0.3207  0.7452 -0.2103
  112MOL   H17922601   2.893   0.082   1.279 -0.2518 -0.7575  0.9644
  112MOL   H18022602   2.850   8.313   1.051  0.6707  0.4145  1.0013
  112MOL   H18122603   2.936   0.053   1.048  0.3992 -0.6216 -0.8578
  112MOL   C18222604   2.723   0.074   1.073 -0.1996 -0.5182  0.3410
  112MOL   C18322605   2.678   0.082   0.923  0.2784 -0.6420  0.1940
  112MOL  Cl18422606   2.515   0.025   0.906 -0.1558 -0.2438 -0.2109
  112MOL   C18522607   2.755   0.127   0.823 -0.2407  0.2444  0.2746
  112MOL   C18622608   2.715   0.136   0.679  0.9238  0.3845  0.2776
  112MOL   H18722609   2.653   0.025   1.140 -0.7332  0.2631  0.3565
  112MOL   H18822610   2.720   0.174   1.116 -2.5890 -0.1243 -0.6924
  112MOL   H18922611   2.850   0.162   0.860 -0.6164  0.4995  1.0186
  112MOL   H19022612   2.614   0.174   0.661  0.9942  0.3588 -0.1938
  112MOL   H19122613   2.780   0.212   0.637  1.2936  1.3689  2.5762
  112MOL   C19222614   2.735   8.419   0.615 -0.1984  0.9212 -0.2771
  112MOL   C19322615   2.878   8.371   0.608 -0.2953 -0.2721 -0.5039
  112MOL  Cl19422616   2.973   0.052   0.517  0.0818  0.1011 -0.0594
  112MOL   C19522617   2.932   8.271   0.673  0.1496  0.2504  0.5574
  112MOL   C19622618   2.864   8.175   0.769 -0.2439 -0.1282  0.3638
  112MOL   H19722619   2.694   0.006   0.514 -0.7139  2.3491  0.0317
  112MOL   H19822620   2.668   8.353   0.670  1.0995 -0.2687 -0.0987
  112MOL   H19922621   3.039   8.266   0.663  0.3967  1.3835  2.4445
  112MOL   H20022622   2.769   8.213   0.807 -0.1276 -0.6513  1.1919
  112MOL   H20122623   2.928   8.168   0.856  0.8474 -0.2254 -0.4292
  112MOL   H20222624   2.865   8.072   0.732 -0.1761  0.6459 -1.8726
  113MOL     C122625   3.200   5.070   7.999  0.0488 -0.1329  0.4240
  113MOL     C222626   3.185   4.981   8.129 -0.4524  0.0679  0.2826
  113MOL    Cl322627   3.065   4.857   8.112 -0.1453  0.5497  0.3893
  113MOL     C422628   3.238   5.005   8.249 -0.9176  0.5512  0.5600
  113MOL     C522629   3.338   5.117   8.289  0.5094  0.1938  0.1946
  113MOL     H622630   3.153   5.167   8.017  1.5873  1.1602 -2.1419
  113MOL     H722631   3.166   5.026   7.905  0.8273  2.0948 -0.9402
  113MOL     H822632   3.208   4.935   8.327  0.4788  0.3683  0.9410
  113MOL     H922633   3.369   5.175   8.202 -1.2090  0.2077 -0.4155
  113MOL    H1022634   3.288   5.194   8.347  1.9484 -0.0391  1.7949
  113MOL    H1122635   3.306   5.087   7.979 -0.4621  1.8695 -0.8037
  113MOL    C1222636   3.448   5.075   8.383 -0.1889  0.0168 -0.7357
  113MOL    C1322637   3.536   4.961   8.335  0.0705 -0.1163 -0.0246
  113MOL   Cl1422638   3.500   4.830   0.018  0.4725 -0.4978 -0.0786
  113MOL    C1522639   3.615   4.954   8.236 -0.9408 -0.1861  0.1041
  113MOL    C1622640   3.636   5.077   8.140  0.0670 -0.4247  0.4587
  113MOL    H1722641   3.502   5.169   8.396 -0.6789 -0.0024  1.6355
  113MOL    H1822642   3.409   5.056   0.062 -1.0499 -2.2440 -1.4678
  113MOL    H1922643   3.677   4.868   8.214  0.1230  0.7000 -0.4209
  113MOL    H2022644   3.578   5.072   8.048 -1.7133 -0.2990  1.5426
  113MOL    H2122645   3.603   5.166   8.194 -2.3205 -0.2662 -1.1714
  113MOL    C2222646   3.782   5.093   8.111  0.2582 -0.4745  0.2345
  113MOL    C2322647   3.824   5.227   8.047 -0.9098 -0.0301 -0.0403
  113MOL   Cl2422648   3.698   5.333   8.010  0.0518  0.0944  0.1151
  113MOL    C2522649   3.954   5.254   8.016  0.0304  0.3599  0.1234
  113MOL    C2622650   4.012   5.379   7.962 -0.0669 -0.5094 -0.1487
  113MOL    H2722651   3.830   5.097   8.208  0.4679 -0.0755  0.1193
  113MOL    H2822652   3.807   5.008   8.048 -3.1818 -2.1500  1.0015
  113MOL    H2922653   4.023   5.173   8.034 -0.4343  0.4121  2.3275
  113MOL    H3022654   3.950   5.436   7.892  0.5796  1.1869  0.6348
  113MOL    H3122655   4.053   5.436   8.046 -0.5176  1.9250 -1.5161
  113MOL    C3222656   4.129   5.342   7.862 -0.1920 -0.3110  0.0714
  113MOL    C3322657   4.191   5.460   7.790 -0.2900  0.5224  0.4884
  113MOL   Cl3422658   4.147   5.472   7.621  0.1128 -0.2501 -0.0228
  113MOL    C3522659   4.282   5.537   7.853  0.0044  0.4111  0.0119
  113MOL    C3622660   4.357   5.644   7.776 -0.0464 -0.6149 -0.3421
  113MOL    H3722661   4.206   5.292   7.922 -0.9475 -0.2668  1.0859
  113MOL    H3822662   4.093   5.265   7.793 -0.1823 -1.2872  1.1437
  113MOL    H3922663   4.307   5.520   7.956 -1.1214 -0.0454  0.2098
  113MOL    H4022664   4.454   5.599   7.760 -0.9665 -2.1072 -1.9240
  113MOL    H4122665   4.310   5.665   7.679  0.0543  1.3389  0.0200
  113MOL    C4222666   4.348   5.774   7.858 -0.4296 -0.0442 -0.3739
  113MOL    C4322667   4.420   5.903   7.807  0.1471  0.2228  0.2777
  113MOL   Cl4422668   4.549   5.962   7.900 -0.0601 -0.1355 -0.0471
  113MOL    C4522669   4.383   5.974   7.703 -0.5194 -0.6721  0.5211
  113MOL    C4622670   4.279   5.944   7.601 -0.2841  0.2108 -0.4663
  113MOL    H4722671   4.243   5.798   7.874  0.4767  3.8889  0.2722
  113MOL    H4822672   4.390   5.748   7.955 -0.6519 -0.9642 -0.5195
  113MOL    H4922673   4.436   6.065   7.679 -0.7761  0.1214  2.8260
  113MOL    H5022674   4.222   5.852   7.616 -1.0523  0.6885 -0.4554
  113MOL    H5122675   4.208   6.026   7.591 -0.2929  0.4543  1.4236
  113MOL    C5222676   4.340   5.932   7.458 -0.2234 -0.4445  0.2081
  113MOL    C5322677   4.448   5.827   7.444  0.6314  0.5603 -0.2755
  113MOL   Cl5422678   4.605   5.902   7.426 -0.1072  0.2381 -0.1411
  113MOL    C5522679   4.431   5.697   7.440  0.8825 -0.8495 -0.0972
  113MOL    C5622680   4.543   5.598   7.411 -0.2688 -0.0093 -0.4711
  113MOL    H5722681   4.258   5.907   7.391 -0.1159 -4.3290  1.4019
  113MOL    H5822682   4.381   6.027   7.423  2.2857 -0.3873  3.0405
  113MOL    H5922683   4.331   5.662   7.459 -0.2120  1.4425 -1.4175
  113MOL    H6022684   4.508   5.538   7.327 -0.5739  2.4437 -2.1517
  113MOL    H6122685   4.632   5.645   7.370 -0.0808 -1.1143 -1.3608
  113MOL    C6222686   4.565   5.507   7.530  0.1056 -0.2550  0.2446
  113MOL    C6322687   4.668   5.405   7.494 -0.2409 -0.1288  0.8220
  113MOL   Cl6422688   4.601   5.246   7.505  0.1162  0.0893  0.5326
  113MOL    C6522689   4.799   5.421   7.480 -0.2583 -0.1350  0.9454
  113MOL    C6622690   4.909   5.308   7.462  0.1141  0.3098 -0.1052
  113MOL    H6722691   4.579   5.567   7.620  1.0454 -0.3589  0.1697
  113MOL    H6822692   4.478   5.442   7.542 -0.2433 -0.2389 -1.9811
  113MOL    H6922693   4.822   5.526   7.478 -0.6595 -0.0714 -1.2500
  113MOL    H7022694   4.940   5.294   7.359 -2.3095 -2.1789 -0.5529
  113MOL    H7122695   4.875   5.212   7.499  0.9424 -0.4566 -1.3092
  113MOL    C7222696   5.034   5.341   7.548  0.5970 -0.4593 -0.4498
  113MOL    C7322697   5.125   5.223   7.552 -0.7850 -0.4706  0.6438
  113MOL   Cl7422698   5.250   5.249   7.437  0.0714 -0.1773  0.1038
  113MOL    C7522699   5.120   5.121   7.642  0.0640 -0.1428 -0.3499
  113MOL    C7622700   5.209   5.005   7.657 -0.4012  0.0247  0.0031
  113MOL    H7722701   5.013   5.358   7.654  1.0667 -2.3201 -0.0381
  113MOL    H7822702   5.074   5.434   7.509 -1.6561  0.8685  0.2943
  113MOL    H7922703   5.045   5.125   7.719  1.7384  1.3387  1.2697
  113MOL    H8022704   5.271   4.996   7.567  1.5625  0.7754  1.2448
  113MOL    H8122705   5.141   4.923   7.639 -0.9113 -0.0860  2.3483
  113MOL    C8222706   5.287   4.996   7.788  0.4123 -0.9726 -0.5409
  113MOL    C8322707   5.384   5.110   7.803  0.0143 -0.1139  0.4809
  113MOL   Cl8422708   5.488   5.115   7.663  0.2398  0.0824 -0.3425
  113MOL    C8522709   5.399   5.177   7.921 -0.8361  0.0021 -0.0508
  113MOL    C8622710   5.498   5.289   7.952  0.4310  0.3866 -1.0797
  113MOL    H8722711   5.342   4.902   7.788  1.2239 -0.5237  0.9634
  113MOL    H8822712   5.219   4.987   7.873  1.1562 -0.7906  0.0825
  113MOL    H8922713   5.339   5.138   8.002 -0.8482 -0.6073 -0.3529
  113MOL    H9022714   5.576   5.301   7.877  2.2489  1.4797  0.9283
  113MOL    H9122715   5.444   5.384   7.953 -1.0583 -0.4418 -1.6359
  113MOL    C9222716   5.561   5.288   8.095  0.7171  0.4836  0.0803
  113MOL    C9322717   5.653   5.404   8.133 -0.2163  0.1571 -0.3744
  113MOL   Cl9422718   5.565   5.537   8.194 -0.1921  0.3531  0.2381
  113MOL    C9522719   5.784   5.415   8.100 -0.4844  0.2195 -0.4119
  113MOL    C9622720   5.868   5.298   8.033  0.2692 -0.1803  0.9147
  113MOL    H9722721   5.614   5.195   8.113 -3.6253 -1.6462  2.7168
  113MOL    H9822722   5.488   5.278   8.176  1.2265  0.3011  0.5189
  113MOL    H9922723   5.831   5.508   8.127 -2.1526  1.4093 -1.5150
  113MOL   H10022724   5.805   5.209   8.032 -0.3853  0.2717 -1.1038
  113MOL   H10122725   5.881   5.337   7.932 -0.4285  0.4970  1.0816
  113MOL   C10222726   6.001   5.260   8.089 -0.0588 -0.7092  0.1551
  113MOL   C10322727   6.067   5.144   8.017  0.0118 -0.5728  0.2933
  113MOL  Cl10422728   6.095   5.001   8.111  0.1695 -0.2296  0.0400
  113MOL   C10522729   6.126   5.156   7.897  0.1141  0.4843  0.1621
  113MOL   C10622730   6.199   5.048   7.815 -0.1769 -0.5109 -0.4151
  113MOL   H10722731   6.074   5.340   8.102 -1.0084  0.1885 -0.0085
  113MOL   H10822732   5.986   5.236   8.194 -0.6703 -2.9033 -0.4105
  113MOL   H10922733   6.115   5.250   7.845 -0.8839  0.1884 -0.1777
  113MOL   H11022734   6.305   5.075   7.814  0.0463 -1.2624  1.3166
  113MOL   H11122735   6.187   4.953   7.866  0.5936 -0.2577  0.2444
  113MOL   C11222736   6.153   5.036   7.665  0.2747  0.2630 -0.5399
  113MOL   C11322737   6.239   4.941   7.589  0.1562  0.0568 -0.0539
  113MOL  Cl11422738   6.370   5.021   7.512 -0.1276  0.2106 -0.3223
  113MOL   C11522739   6.227   4.806   7.582  0.1315  0.7552  0.2293
  113MOL   C11622740   6.121   4.720   7.654  0.2693 -0.3289  0.0269
  113MOL   H11722741   6.048   5.006   7.658 -0.3752  1.7327  2.1535
  113MOL   H11822742   6.151   5.136   7.623 -1.3999  0.6519  0.4104
  113MOL   H11922743   6.297   4.751   7.522 -1.9852 -0.7211 -0.9676
  113MOL   H12022744   6.058   4.673   7.578  3.2881 -2.4679 -1.2798
  113MOL   H12122745   6.059   4.785   7.716  2.7134  1.6185  0.4739
  113MOL   C12222746   6.192   4.623   7.754 -0.0525 -0.5053  0.7978
  113MOL   C12322747   6.105   4.511   7.790  0.4255 -0.5986 -0.5073
  113MOL  Cl12422748   6.016   4.545   7.930 -0.0248  0.2573 -0.4450
  113MOL   C12522749   6.111   4.390   7.737  0.5739 -0.8050  0.6735
  113MOL   C12622750   6.190   4.339   7.615  0.0838  0.3616  0.7348
  113MOL   H12722751   6.277   4.583   7.700  0.6988  0.2598  1.4092
  113MOL   H12822752   6.235   4.684   7.834  1.3601  1.4883 -1.4110
  113MOL   H12922753   6.052   4.314   7.785 -0.0922 -0.9040 -0.2852
  113MOL   H13022754   6.119   4.275   7.563  0.1909 -0.2706  1.3648
  113MOL   H13122755   6.226   4.408   7.538 -0.7895 -0.3075 -0.2873
  113MOL   C13222756   6.307   4.245   7.658  0.2427 -0.0833 -0.2971
  113MOL   C13322757   6.371   4.172   7.541  0.4099 -0.3387 -0.1942
  113MOL  Cl13422758   6.284   4.023   7.506 -0.3655  0.1375  0.1047
  113MOL   C13522759   6.471   4.212   7.458 -0.2181  0.3040  0.1424
  113MOL   C13622760   6.563   4.332   7.471  0.5046 -0.5596 -0.4576
  113MOL   H13722761   6.381   4.315   7.698 -0.7923  0.0793  1.3482
  113MOL   H13822762   6.272   4.165   7.723 -2.2952  2.0797  1.1017
  113MOL   H13922763   6.489   4.153   7.370 -0.1881  1.4973 -0.6547
  113MOL   H14022764   6.554   4.373   7.572  2.3351 -0.8203 -0.1680
  113MOL   H14122765   6.659   4.283   7.489  0.3513 -0.5477  0.4519
  113MOL   C14222766   6.546   4.439   7.366 -0.2426 -0.2690 -1.1278
  113MOL   C14322767   6.650   4.551   7.390  0.3297 -0.7879 -0.2171
  113MOL  Cl14422768   6.604   4.655   7.515  0.1837  0.3082 -0.0649
  113MOL   C14522769   6.765   4.554   7.327 -0.2819  0.0566 -0.2201
  113MOL   C14622770   6.874   4.655   7.343 -0.8326 -0.0628 -0.3210
  113MOL   H14722771   6.447   4.484   7.378 -0.5488 -1.7004  1.9796
  113MOL   H14822772   6.557   4.391   7.268 -2.5917 -0.8219 -1.1520
  113MOL   H14922773   6.772   4.471   7.257  0.9796 -1.3263  1.5024
  113MOL   H15022774   6.863   4.740   7.276 -0.2786  2.9298  3.2020
  113MOL   H15122775   6.862   4.684   7.448 -0.7904  0.1364 -0.3721
  113MOL   C15222776   7.008   4.587   7.328  0.2233  1.2163 -0.0033
  113MOL   C15322777   7.117   4.654   7.405  0.0753  0.7638 -0.0533
  113MOL  Cl15422778   7.139   4.813   7.342 -0.5367 -0.0691 -0.0675
  113MOL   C15522779   7.191   4.604   7.508  0.0167 -0.4034  0.0241
  113MOL   C15622780   7.292   4.689   7.581  0.4917  0.7763  0.0961
  113MOL   H15722781   6.993   4.488   7.372 -1.9084  1.4073 -0.2410
  113MOL   H15822782   7.048   4.569   7.229  0.3849 -0.8099  0.4141
  113MOL   H15922783   7.174   4.504   7.545 -1.1974  0.2471  1.2817
  113MOL   H16022784   7.284   4.797   7.564  1.5732  0.6926 -1.0150
  113MOL   H16122785   7.386   4.646   7.550 -1.4467 -2.8382 -1.0159
  113MOL   C16222786   7.284   4.653   7.732  0.2271  0.1955  0.0239
  113MOL   C16322787   7.191   4.730   7.825 -0.3737  0.3658  0.1664
  113MOL  Cl16422788   7.026   4.701   7.780 -0.2296 -0.0725  0.4895
  113MOL   C16522789   7.231   4.795   7.935  0.3585  0.5258  0.4061
  113MOL   C16622790   7.138   4.859   8.033 -0.3018 -0.6788  0.1962
  113MOL   H16722791   7.258   4.547   7.741 -0.2515  0.0613 -2.4910
  113MOL   H16822792   7.383   4.651   7.777 -0.2531 -0.1980  1.0716
  113MOL   H16922793   7.336   4.812   7.952  0.5114 -0.3639  0.3932
  113MOL   H17022794   7.164   4.965   8.031 -0.4923 -0.5793  2.1205
  113MOL   H17122795   7.035   4.855   7.996 -1.0062  0.8241  1.9479
  113MOL   C17222796   7.153   4.796   8.167  0.5453  0.0896  0.2457
  113MOL   C17322797   7.072   4.875   8.271  0.3029  0.2239  0.2631
  113MOL  Cl17422798   7.174   4.996   8.338  0.1743 -0.0038  0.2453
  113MOL   C17522799   6.948   4.849   8.310 -0.0853 -0.2535 -0.2891
  113MOL   C17622800   6.874   4.915   0.007  0.1367 -0.4245  0.0119
  113MOL   H17722801   7.259   4.796   8.191  0.5635  1.2782  0.2113
  113MOL   H17822802   7.120   4.694   8.150 -0.7211  0.8296 -1.9902
  113MOL   H17922803   6.895   4.766   8.264 -3.3936  1.4002  0.4268
  113MOL   H18022804   6.946   4.979   0.059  0.9094 -0.2045 -1.3259
  113MOL   H18122805   6.850   4.836   0.079 -1.3248 -0.7848 -0.8697
  113MOL   C18222806   6.750   4.992   8.382 -0.5065 -0.2332 -0.8434
  113MOL   C18322807   6.779   5.115   8.307 -0.0858  0.2471 -0.0391
  113MOL  Cl18422808   6.744   5.112   8.141  0.2022 -0.1198  0.2228
  113MOL   C18522809   6.838   5.218   8.365 -0.7271  0.5767  0.0195
  113MOL   C18622810   6.870   5.353   8.299  0.0831 -0.1793  0.3389
  113MOL   H18722811   6.711   4.920   8.311 -1.1175  0.6264 -1.3942
  113MOL   H18822812   6.670   5.010   0.033 -0.9423  1.9211 -1.8233
  113MOL   H18922813   6.869   5.204   0.047  0.6078 -0.3348 -0.4952
  113MOL   H19022814   6.847   5.346   8.193 -1.1891  0.7441  0.5430
  113MOL   H19122815   6.817   5.435   8.347  0.3485  2.0431 -3.0257
  113MOL   C19222816   7.018   5.375   8.300 -0.0211 -0.0261 -0.0206
  113MOL   C19322817   7.079   5.437   8.176 -1.0255  0.3063 -0.1048
  113MOL  Cl19422818   7.079   5.608   8.182  0.2436 -0.0155 -0.1178
  113MOL   C19522819   7.114   5.372   8.059  0.1794  0.2064 -0.2136
  113MOL   C19622820   7.098   5.222   8.032 -0.1602  0.3653 -0.0169
  113MOL   H19722821   7.076   5.283   8.298  0.7081  0.4599 -1.6288
  113MOL   H19822822   7.033   5.422   8.397  1.5542 -1.8635  0.6534
  113MOL   H19922823   7.155   5.435   7.983 -0.3967  0.6903 -0.1280
  113MOL   H20022824   7.201   5.189   8.024  0.4614  2.2625 -0.0455
  113MOL   H20122825   7.035   5.202   7.945 -1.1357 -0.1054  0.7948
  113MOL   H20222826   7.050   5.158   8.106 -0.6764 -0.8952 -1.4218
  114MOL     C122827   0.911   6.831   4.003 -0.2135 -0.0683  0.3246
  114MOL     C222828   0.987   6.708   4.028  0.0014 -0.0653  0.4610
  114MOL    Cl322829   1.004   6.604   3.893  0.2055  0.1937 -0.3072
  114MOL     C422830   1.054   6.678   4.141  0.3534 -0.2545  0.3524
  114MOL     C522831   1.057   6.759   4.274 -0.3340 -0.2775 -0.0012
  114MOL     H622832   0.986   6.909   4.010  0.0198 -0.3865  1.3762
  114MOL     H722833   0.844   6.840   4.089 -1.8776  1.7027 -1.1046
  114MOL     H822834   1.115   6.589   4.143  0.2492 -0.3129  1.3179
  114MOL     H922835   1.154   6.808   4.287  0.0558 -1.4253  1.6791
  114MOL    H1022836   0.989   6.844   4.270  1.6777  1.4191  0.9912
  114MOL    H1122837   0.861   6.833   3.906  0.5455 -0.7691 -0.0824
  114MOL    C1222838   1.011   6.661   4.380  0.0933 -0.4997 -0.7773
  114MOL    C1322839   1.028   6.709   4.520 -0.6813  0.7693  0.1389
  114MOL   Cl1422840   0.973   6.866   4.550 -0.0343 -0.0377  0.0374
  114MOL    C1522841   1.076   6.638   4.623 -0.6479 -0.7343  0.4448
  114MOL    C1622842   1.136   6.495   4.639  0.2826 -0.4434  0.3835
  114MOL    H1722843   0.912   6.621   4.359  0.7969 -1.7947 -1.6602
  114MOL    H1822844   1.073   6.572   4.381 -1.2101 -1.4161  0.4894
  114MOL    H1922845   1.069   6.691   4.717 -0.2314 -0.7272  0.4698
  114MOL    H2022846   1.058   6.441   4.692 -2.3353  0.4661 -2.3289
  114MOL    H2122847   1.138   6.455   4.537  1.2255  0.4532  0.0318
  114MOL    C2222848   1.269   6.499   4.722 -0.7857 -0.3797 -0.2872
  114MOL    C2322849   1.317   6.358   4.761 -0.2689 -0.4341  0.0207
  114MOL   Cl2422850   1.342   6.266   4.620 -0.2937 -0.4940  0.1587
  114MOL    C2522851   1.336   6.314   4.888  0.3650  0.7800 -0.5495
  114MOL    C2622852   1.382   6.182   4.933 -0.3403 -0.2682  0.9696
  114MOL    H2722853   1.347   6.552   4.666  0.0871 -1.1244  0.2322
  114MOL    H2822854   1.259   6.558   4.813 -1.6241  0.2555 -0.7736
  114MOL    H2922855   1.319   6.391   4.963 -0.2424  0.8234 -0.7294
  114MOL    H3022856   1.377   6.105   4.856  0.8251  1.9383 -1.4126
  114MOL    H3122857   1.486   6.196   4.963 -0.5103 -0.7392  1.8043
  114MOL    C3222858   1.302   6.141   5.054  0.8462  0.3879  0.1990
  114MOL    C3322859   1.349   6.022   5.129  0.5765  0.0526  1.1163
  114MOL   Cl3422860   1.481   6.066   5.240 -0.0750  0.1080 -0.2908
  114MOL    C3522861   1.285   5.905   5.117  0.4712 -0.1696  0.3105
  114MOL    C3622862   1.330   5.783   5.195  0.2402  0.4244 -0.2359
  114MOL    H3722863   1.287   6.225   5.122 -1.8059 -0.9533  1.3107
  114MOL    H3822864   1.200   6.118   5.026  1.3455 -0.8352 -0.6265
  114MOL    H3922865   1.202   5.889   5.051 -0.6854  1.4601  1.3367
  114MOL    H4022866   1.419   5.809   5.253  0.0031  0.2753  0.1995
  114MOL    H4122867   1.258   5.743   5.267 -1.5990 -0.3118 -2.4195
  114MOL    C4222868   1.358   5.670   5.095 -0.6269  0.3702 -1.1686
  114MOL    C4322869   1.413   5.554   5.174 -0.4629 -0.2751  0.1073
  114MOL   Cl4422870   1.295   5.436   5.208  0.2173  0.0684 -0.2216
  114MOL    C4522871   1.538   5.544   5.215  0.6296  0.5755 -0.2718
  114MOL    C4622872   1.655   5.638   5.186  0.2445  1.1740  0.4454
  114MOL    H4722873   1.266   5.644   5.043 -1.3505 -3.0530  1.5929
  114MOL    H4822874   1.437   5.691   5.022  1.5007 -0.1445  0.9401
  114MOL    H4922875   1.556   5.461   5.282 -1.0978 -0.1693 -0.7062
  114MOL    H5022876   1.664   5.636   5.077  0.5991 -1.3980  0.4850
  114MOL    H5122877   1.628   5.737   5.221 -0.2888  1.5813 -1.0747
  114MOL    C5222878   1.795   5.590   5.246  0.3318 -0.2969  0.2171
  114MOL    C5322879   1.915   5.671   5.194 -0.2309 -0.6155  0.1513
  114MOL   Cl5422880   2.042   5.705   5.313 -0.0825 -0.2634 -0.6765
  114MOL    C5522881   1.927   5.708   5.066  0.0071  0.3379  0.4452
  114MOL    C5622882   2.034   5.791   5.001  0.2892 -0.4750  0.0601
  114MOL    H5722883   1.788   5.602   5.354 -4.4961  3.0364 -0.3380
  114MOL    H5822884   1.814   5.485   5.226  0.3893 -0.4983  1.2974
  114MOL    H5922885   1.849   5.667   5.003  0.6380  0.3810 -0.3654
  114MOL    H6022886   2.128   5.745   5.032 -1.6805 -2.8875  2.8370
  114MOL    H6122887   2.031   5.767   4.895  4.3567 -2.8782  0.3931
  114MOL    C6222888   2.020   5.937   5.042  0.1028  0.1031  0.2828
  114MOL    C6322889   1.909   6.014   4.968 -0.3380  0.2046 -0.1732
  114MOL   Cl6422890   1.760   5.994   5.051 -0.2759 -0.2517  0.2709
  114MOL    C6522891   1.937   6.089   4.861  0.8080 -0.1026  0.0962
  114MOL    C6622892   1.835   6.158   4.773  0.1918 -0.6499  0.6293
  114MOL    H6722893   2.016   5.941   5.150  2.2504  2.8988  0.3104
  114MOL    H6822894   2.112   5.992   5.022 -0.4298  0.2803 -1.8701
  114MOL    H6922895   2.042   6.089   4.834  1.1615 -0.0329  1.4284
  114MOL    H7022896   1.757   6.167   4.848 -0.1499  0.6080  0.1321
  114MOL    H7122897   1.802   6.090   4.695  2.6583 -1.5651  0.3299
  114MOL    C7222898   1.884   6.296   4.719 -0.4022 -0.2523  0.4881
  114MOL    C7322899   1.765   6.362   4.659  0.3859 -0.8798 -0.2297
  114MOL   Cl7422900   1.688   6.475   4.768 -0.0240  0.2584  0.2609
  114MOL    C7522901   1.740   6.362   4.529 -0.1218 -0.4450  0.6838
  114MOL    C7622902   1.623   6.443   4.461 -0.7561  0.5284 -0.0566
  114MOL    H7722903   1.964   6.275   4.648  0.2252  0.1542  1.0635
  114MOL    H7822904   1.927   6.362   4.795 -4.0254  2.3466  0.4232
  114MOL    H7922905   1.802   6.305   4.462  0.6529  1.4471 -0.2535
  114MOL    H8022906   1.679   6.531   4.430  0.0944 -0.5267 -1.5818
  114MOL    H8122907   1.557   6.474   4.542  0.4227  1.7846  0.4318
  114MOL    C8222908   1.563   6.367   4.345  0.0315 -0.2696  0.6345
  114MOL    C8322909   1.480   6.463   4.253  0.8247  0.1217  0.0777
  114MOL   Cl8422910   1.341   6.530   4.340  0.0492  0.0608 -0.2472
  114MOL    C8522911   1.512   6.488   4.123  0.2007  0.0140 -0.2885
  114MOL    C8622912   1.436   6.577   4.026  0.1938  0.1785 -0.0654
  114MOL    H8722913   1.494   6.285   4.368 -1.3725  1.1803  1.6737
  114MOL    H8822914   1.646   6.322   4.290  0.6020  0.3441  0.9859
  114MOL    H8922915   1.603   6.438   4.093  0.7570  0.5250  0.5153
  114MOL    H9022916   1.356   6.634   4.073  1.8911  1.3536  1.4948
  114MOL    H9122917   1.510   6.646   3.985 -0.5986  1.5439  0.7667
  114MOL    C9222918   1.375   6.499   3.906  0.2425 -0.6389  0.0229
  114MOL    C9322919   1.477   6.411   3.828  0.2890 -0.7782  0.2556
  114MOL   Cl9422920   1.577   6.511   3.722 -0.0137  0.3019  0.4378
  114MOL    C9522921   1.493   6.278   3.839  0.7345 -0.5956 -0.1070
  114MOL    C9622922   1.411   6.175   3.916  0.0321 -0.6478  0.3542
  114MOL    H9722923   1.332   6.570   3.835  1.9555  0.7377  0.3206
  114MOL    H9822924   1.299   6.429   3.941  0.5587 -0.2223  1.6062
  114MOL    H9922925   1.574   6.237   3.781  0.9402  0.8197 -0.8248
  114MOL   H10022926   1.355   6.232   3.990  2.1052  1.8612  0.0607
  114MOL   H10122927   1.348   6.123   3.845  0.5414 -0.4672 -0.2357
  114MOL   C10222928   1.500   6.076   3.987 -0.1589 -0.2471 -0.1610
  114MOL   C10322929   1.410   5.981   4.066  0.6318 -0.3960 -0.5314
  114MOL  Cl10422930   1.390   5.825   4.002  0.1675 -0.0405  0.8204
  114MOL   C10522931   1.368   6.016   4.191  0.7413  0.6930 -0.6047
  114MOL   C10622932   1.288   5.927   4.274  1.0076 -0.0076 -0.2578
  114MOL   H10722933   1.562   6.023   3.915  1.9920 -0.3044  1.6903
  114MOL   H10822934   1.566   6.131   4.054 -0.7518  0.3214 -0.0417
  114MOL   H10922935   1.394   6.115   4.227 -1.1859  1.8250 -2.2042
  114MOL   H11022936   1.208   5.877   4.219 -0.3564 -0.3385  1.9585
  114MOL   H11122937   1.358   5.855   4.315  1.8656  1.7667  1.4745
  114MOL   C11222938   1.215   6.000   4.388 -0.5556  0.1656 -0.1202
  114MOL   C11322939   1.094   6.083   4.348  0.1780  0.4928 -0.5397
  114MOL  Cl11422940   1.133   6.243   4.359 -0.0995 -0.3645 -0.0943
  114MOL   C11522941   0.966   6.046   4.332  0.2220  0.4718  0.0712
  114MOL   C11622942   0.914   5.905   4.326 -0.0381 -0.1773  0.3601
  114MOL   H11722943   1.183   5.923   4.457 -0.6012  0.4449  0.1753
  114MOL   H11822944   1.272   6.056   4.463 -1.1053 -1.2879  1.4039
  114MOL   H11922945   0.891   6.120   4.308 -0.7583 -0.4519  0.2622
  114MOL   H12022946   0.865   5.868   4.416 -1.0264 -1.6169 -0.7326
  114MOL   H12122947   0.999   5.837   4.314  0.1216  0.0747  0.0657
  114MOL   C12222948   0.816   5.889   4.201  0.1341 -0.5202  0.1991
  114MOL   C12322949   0.765   5.745   4.189  0.9544  0.2101  0.0207
  114MOL  Cl12422950   0.592   5.741   4.231  0.1000 -0.1909 -0.1636
  114MOL   C12522951   0.830   5.640   4.146  0.0207 -0.0395  0.6744
  114MOL   C12622952   0.974   5.638   4.107 -0.3340 -0.3115 -0.6076
  114MOL   H12722953   0.724   5.947   4.196  1.4673  1.4794 -1.9270
  114MOL   H12822954   0.879   5.912   4.116  0.3011 -1.0399  0.1771
  114MOL   H12922955   0.776   5.547   4.145 -1.1435  0.6252 -0.7679
  114MOL   H13022956   0.991   5.621   4.001  1.5535 -0.5483 -0.2911
  114MOL   H13122957   1.031   5.729   4.126  0.5264 -0.8471 -0.6179
  114MOL   C13222958   1.047   5.528   4.191 -0.4367 -0.6168 -0.7763
  114MOL   C13322959   1.195   5.549   4.183 -0.4350 -0.6934 -0.7442
  114MOL  Cl13422960   1.249   5.499   4.030  0.2737  0.1734  0.1417
  114MOL   C13522961   1.273   5.599   4.279 -0.2392  0.0267  0.3306
  114MOL   C13622962   1.226   5.625   4.423 -0.3913  0.7451 -0.0982
  114MOL   H13722963   1.001   5.524   4.289  2.5497 -0.2122  0.6982
  114MOL   H13822964   1.010   5.430   4.160  0.5971 -1.8135  1.6216
  114MOL   H13922965   1.380   5.610   4.264 -0.5421  3.3991  0.3081
  114MOL   H14022966   1.293   5.694   4.474  0.3812 -1.7918  2.4795
  114MOL   H14122967   1.139   5.690   4.414  1.3000  2.9790 -0.6910
  114MOL   C14222968   1.212   5.493   4.504  0.2179 -0.8423  0.7510
  114MOL   C14322969   1.185   5.514   4.649  0.0188  0.0101  0.1663
  114MOL  Cl14422970   1.300   5.615   4.717  0.4794 -0.1197  0.0500
  114MOL   C14522971   1.092   5.455   4.722 -0.1396 -0.3211  0.4919
  114MOL   C14622972   1.038   5.481   4.871  0.1275 -0.1751  0.6178
  114MOL   H14722973   1.307   5.440   4.497 -0.6223 -2.6537  2.7989
  114MOL   H14822974   1.137   5.431   4.455  0.0682  1.5638 -2.2169
  114MOL   H14922975   1.040   5.377   4.670  1.1071 -1.3119  0.7103
  114MOL   H15022976   1.072   5.388   4.917  0.4402 -1.4363 -2.0656
  114MOL   H15122977   1.079   5.573   4.913  1.3409 -1.1932  1.7192
  114MOL   C15222978   0.884   5.487   4.868  0.5407 -0.3286 -0.2225
  114MOL   C15322979   0.815   5.528   4.998  1.1259 -0.5576 -0.2674
  114MOL  Cl15422980   0.651   5.583   4.974  0.0106  0.1190  0.2936
  114MOL   C15522981   0.875   5.532   5.116  0.0695 -0.1652  0.1818
  114MOL   C15622982   0.802   5.578   5.239 -0.5738 -0.3405 -0.5506
  114MOL   H15722983   0.849   5.554   4.789 -0.8433  0.0820  0.7195
  114MOL   H15822984   0.841   5.389   4.848  0.4261 -0.1503 -0.8804
  114MOL   H15922985   0.975   5.491   5.117 -0.0792 -0.5612 -0.5965
  114MOL   H16022986   0.753   5.486   5.272 -0.6538  0.7696  2.5696
  114MOL   H16122987   0.732   5.658   5.217  0.5223  0.8380  0.1820
  114MOL   C16222988   0.895   5.640   5.350  0.0053  0.1787 -0.1391
  114MOL   C16322989   0.835   5.655   5.487  0.1945  0.0746  0.3386
  114MOL  Cl16422990   0.801   5.826   5.522  0.4396 -0.3343  0.0142
  114MOL   C16522991   0.802   5.546   5.560  0.7119 -0.0575  0.4286
  114MOL   C16622992   0.726   5.555   5.691  0.4327  0.5061 -0.0619
  114MOL   H16722993   0.988   5.584   5.363 -1.1203 -1.0343  3.0567
  114MOL   H16822994   0.926   5.740   5.317  0.0617 -0.0601 -0.8298
  114MOL   H16922995   0.817   5.448   5.518 -1.2554 -0.4735  0.6860
  114MOL   H17022996   0.788   5.528   5.777  1.2780  0.5021 -0.6678
  114MOL   H17122997   0.705   5.660   5.712 -1.2769 -0.0175  1.0089
  114MOL   C17222998   0.599   5.471   5.687 -0.0382  0.9978  0.2589
  114MOL   C17322999   0.517   5.457   5.809  0.4108 -0.3160 -0.0326
  114MOL  Cl17423000   0.349   5.511   5.785 -0.1762  0.2642 -0.3579
  114MOL   C17523001   0.571   5.413   5.924 -0.3441 -0.7482  0.3571
  114MOL   C17623002   0.488   5.414   6.053 -0.5133  0.4182 -0.1440
  114MOL   H17723003   0.628   5.369   5.663  1.2702  1.0590  1.4700
  114MOL   H17823004   0.541   5.506   5.603  0.1421  0.0695 -0.2556
  114MOL   H17923005   0.671   5.370   5.932 -0.5629 -1.8667 -2.4240
  114MOL   H18023006   0.528   5.336   6.117  0.0221 -0.9976 -2.1696
  114MOL   H18123007   0.382   5.388   6.053  0.1393 -2.6309  2.4551
  114MOL   C18223008   0.521   5.536   6.134  0.3097  0.5490 -0.0454
  114MOL   C18323009   0.445   5.663   6.077 -0.7151  0.2151  0.2297
  114MOL  Cl18423010   0.273   5.658   6.104 -0.3170  0.1061  0.1367
  114MOL   C18523011   0.507   5.766   6.013 -0.1917 -0.2328  0.8745
  114MOL   C18623012   0.445   5.888   5.942  0.5750 -0.5812 -0.0117
  114MOL   H18723013   0.502   5.529   6.241 -0.6600  0.8193 -0.1926
  114MOL   H18823014   0.627   5.558   6.124 -0.1741  1.9866 -2.4730
  114MOL   H18923015   0.613   5.749   5.999 -0.4773 -0.8706 -0.6297
  114MOL   H19023016   0.338   5.897   5.963  0.3988  1.0562 -1.4867
  114MOL   H19123017   0.492   5.973   5.992 -0.5730  1.1464 -1.7714
  114MOL   C19223018   0.477   5.885   5.795 -0.4843 -0.8924  0.9445
  114MOL   C19323019   0.398   5.975   5.711 -0.2352 -0.7986 -0.0652
  114MOL  Cl19423020   0.490   6.102   5.621 -0.2050  0.0443  0.1362
  114MOL   C19523021   0.264   5.974   5.709 -0.1000 -0.1045  0.2010
  114MOL   C19623022   0.168   5.874   5.775 -0.4671 -0.0175  0.1124
  114MOL   H19723023   0.482   5.785   5.750  0.0075 -1.0051  1.2452
  114MOL   H19823024   0.580   5.918   5.778 -0.8158 -0.9990 -1.3303
  114MOL   H19923025   0.218   6.057   5.657  1.2344 -0.9606 -2.4637
  114MOL   H20023026   0.132   5.898   5.875  1.3921  0.4351  0.6908
  114MOL   H20123027   0.211   5.775   5.789 -0.9901  0.4645  6.1178
  114MOL   H20223028   0.083   5.857   5.708  0.7250 -0.7884 -1.2292
  115MOL     C123029   1.546   7.356   4.974  0.6325 -0.1892  0.3265
  115MOL     C223030   1.477   7.462   4.898 -0.4502  0.0064 -0.0385
  115MOL    Cl323031   1.571   7.608   4.876 -0.2217  0.1789  0.0818
  115MOL     C423032   1.347   7.462   4.864  0.3587  0.2203  0.9391
  115MOL     C523033   1.240   7.348   4.885 -0.5316 -0.7978  0.1430
  115MOL     H623034   1.527   7.375   5.080 -1.3078 -0.8113  0.1069
  115MOL     H723035   1.654   7.351   4.961  0.5873  2.6890 -1.5235
  115MOL     H823036   1.301   7.543   4.808 -0.0527  0.4376  1.5814
  115MOL     H923037   1.282   7.296   4.971  0.7055  0.2815  0.2030
  115MOL    H1023038   1.140   7.382   4.913  0.1856  0.8167  0.7847
  115MOL    H1123039   1.503   7.262   4.940  2.5214 -1.0658  0.2471
  115MOL    C1223040   1.239   7.259   4.758 -0.2047  0.2358 -0.5054
  115MOL    C1323041   1.140   7.147   4.773 -0.0199 -0.1889  0.2470
  115MOL   Cl1423042   0.989   7.190   4.688 -0.1064  0.6054 -0.1867
  115MOL    C1523043   1.164   7.017   4.817  0.6254 -0.2548  0.3531
  115MOL    C1623044   1.299   6.969   4.880 -0.1754  0.5476 -0.3488
  115MOL    H1723045   1.221   7.329   4.676 -0.9687  0.5674 -0.0624
  115MOL    H1823046   1.338   7.216   4.748 -0.5016 -0.5435 -0.2249
  115MOL    H1923047   1.082   6.947   4.812 -0.0903  0.5362  0.7883
  115MOL    H2023048   1.352   6.904   4.810  3.0318  0.5244  1.9833
  115MOL    H2123049   1.360   7.058   4.896 -0.1847  0.1506  2.0542
  115MOL    C2223050   1.291   6.882   5.001 -0.0421  0.3590 -0.6694
  115MOL    C2323051   1.432   6.833   5.049 -0.1471  0.2615 -0.5341
  115MOL   Cl2423052   1.404   6.682   5.124  0.2079  0.3436  0.8110
  115MOL    C2523053   1.550   6.894   5.030 -0.0252 -0.1965 -0.7976
  115MOL    C2623054   1.687   6.852   5.086  0.1282  0.3218 -0.0971
  115MOL    H2723055   1.247   6.949   5.075 -0.1787  0.3258 -0.7192
  115MOL    H2823056   1.223   6.797   4.989 -0.3932  0.6214 -0.5392
  115MOL    H2923057   1.559   6.978   4.963  0.7080 -0.7277 -1.3838
  115MOL    H3023058   1.712   6.747   5.102  0.2019 -0.1823 -3.1888
  115MOL    H3123059   1.766   6.892   5.022  2.3479 -1.8782  1.1284
  115MOL    C3223060   1.705   6.908   5.231 -0.3855  0.1856  0.0456
  115MOL    C3323061   1.816   6.852   5.306 -0.0086  0.2002  0.6347
  115MOL   Cl3423062   1.770   6.742   5.431  0.0261 -0.0319  0.1557
  115MOL    C3523063   1.945   6.866   5.261 -0.0086  0.2071  0.2882
  115MOL    C3623064   2.066   6.806   5.330 -0.1667 -0.0907  0.0284
  115MOL    H3723065   1.716   7.016   5.226 -0.6552  0.2876  1.4219
  115MOL    H3823066   1.619   6.898   5.298 -0.8295 -1.5099 -0.7444
  115MOL    H3923067   1.962   6.926   5.173  1.1420 -1.4831 -0.6777
  115MOL    H4023068   2.064   6.850   5.430 -1.0223  2.7108 -1.1826
  115MOL    H4123069   2.058   6.702   5.361  1.1534 -0.0128  0.6711
  115MOL    C4223070   2.193   6.854   5.254 -0.4035  0.1700  0.0244
  115MOL    C4323071   2.330   6.850   5.326 -0.2327  0.4996 -0.2701
  115MOL   Cl4423072   2.423   6.728   5.262 -0.4989 -0.2951  0.0257
  115MOL    C4523073   2.376   6.937   5.414  0.5841 -0.1233 -0.2008
  115MOL    C4623074   2.296   7.062   5.464 -0.3304 -0.0087  0.1729
  115MOL    H4723075   2.210   6.807   5.157  1.5732  2.1545 -0.6525
  115MOL    H4823076   2.187   6.958   5.222 -1.1292  0.6234  1.6269
  115MOL    H4923077   2.481   6.928   5.436  1.1692  2.3930 -1.7508
  115MOL    H5023078   2.359   7.148   5.443  1.6657 -1.6807 -0.8126
  115MOL    H5123079   2.203   7.079   5.410  1.0149  1.9723 -1.6194
  115MOL    C5223080   2.269   7.056   5.613  0.0255 -0.5065 -0.0865
  115MOL    C5323081   2.208   7.182   5.669  0.0632 -0.0556  0.0077
  115MOL   Cl5423082   2.040   7.195   5.618  0.2524 -0.4517 -0.1342
  115MOL    C5523083   2.266   7.273   5.747 -0.0159 -0.0929  0.5045
  115MOL    C5623084   2.193   7.387   5.815 -0.2017  0.6826 -0.9070
  115MOL    H5723085   2.200   6.972   5.622  0.5552 -1.0767 -1.2749
  115MOL    H5823086   2.354   7.033   5.677  0.8793  0.5249 -0.8345
  115MOL    H5923087   2.371   7.265   5.771  0.3162 -1.8073 -1.4040
  115MOL    H6023088   2.270   7.460   5.794 -0.5681  1.3035 -0.1282
  115MOL    H6123089   2.101   7.415   5.764 -1.6515 -1.6372  0.3432
  115MOL    C6223090   2.187   7.381   5.974  0.1531  0.4182  1.0957
  115MOL    C6323091   2.325   7.359   6.030 -0.4509 -0.4901  0.0521
  115MOL   Cl6423092   2.442   7.465   5.960  0.1512 -0.0718 -0.1551
  115MOL    C6523093   2.364   7.259   6.118  0.5719  0.1544 -0.7218
  115MOL    C6623094   2.502   7.224   6.166  0.7090 -0.2420 -0.2515
  115MOL    H6723095   2.132   7.464   6.018 -2.8987 -2.0834  2.2034
  115MOL    H6823096   2.127   7.292   5.993  1.4911 -1.0783 -1.4254
  115MOL    H6923097   2.281   7.196   6.146  1.7602 -1.6295 -1.0849
  115MOL    H7023098   2.510   7.224   6.274 -0.4292  1.7770 -0.1442
  115MOL    H7123099   2.572   7.300   6.132 -0.9486  1.2581 -0.3921
  115MOL    C7223100   2.534   7.089   6.108 -0.4015 -0.4274  0.7518
  115MOL    C7323101   2.677   7.037   6.128 -0.0616 -0.6120 -0.3167
  115MOL   Cl7423102   2.720   7.032   6.291 -0.5253 -0.3223 -0.0115
  115MOL    C7523103   2.758   7.005   6.028 -0.0492 -0.4385 -0.5534
  115MOL    C7623104   2.906   6.979   6.039 -0.0384  0.9441 -0.3825
  115MOL    H7723105   2.518   7.080   6.001  0.2250 -1.2958  0.7298
  115MOL    H7823106   2.475   7.019   6.168  1.7339 -0.8519  2.4131
  115MOL    H7923107   2.720   7.007   5.927 -1.1119  0.4318 -0.1563
  115MOL    H8023108   2.913   6.878   5.999  1.0557  1.2101 -0.8686
  115MOL    H8123109   2.932   6.964   6.144 -1.3689  0.7120 -0.0787
  115MOL    C8223110   2.998   7.073   5.972  0.1662 -0.2860  0.4008
  115MOL    C8323111   3.003   7.217   6.037 -0.2498 -0.6789  0.2610
  115MOL   Cl8423112   3.082   7.205   6.190  0.0404  0.0389 -0.5004
  115MOL    C8523113   2.943   7.328   5.995  0.5082 -0.3579  0.9118
  115MOL    C8623114   2.938   7.454   6.063  0.2481 -0.3490 -0.2843
  115MOL    H8723115   2.975   7.077   5.865 -1.5620  1.7326  0.7941
  115MOL    H8823116   3.099   7.035   5.975 -0.0101 -0.9208 -1.2737
  115MOL    H8923117   2.884   7.309   5.906  0.6105  0.8555  0.5754
  115MOL    H9023118   3.029   7.476   6.119 -1.5380  1.8335  1.8921
  115MOL    H9123119   2.948   7.529   5.984  2.0730  1.0817  1.2686
  115MOL    C9223120   2.806   7.469   6.146 -0.8418 -0.3953  0.5266
  115MOL    C9323121   2.805   7.608   6.205 -0.2154 -0.7940  0.2214
  115MOL   Cl9423122   2.748   7.719   6.085  0.1890 -0.3784 -0.6767
  115MOL    C9523123   2.836   7.648   6.328 -0.2070  0.0168  0.5085
  115MOL    C9623124   2.903   7.576   6.446 -0.3844  0.6592  0.0564
  115MOL    H9723125   2.800   7.397   6.228  0.0038 -1.5349 -0.4096
  115MOL    H9823126   2.713   7.467   6.090 -0.1841  1.3046 -0.6692
  115MOL    H9923127   2.812   7.752   6.341 -1.0405 -0.2157  0.8129
  115MOL   H10023128   2.892   7.470   6.424  0.9138  0.6883 -0.7908
  115MOL   H10123129   3.011   7.584   6.449 -0.3901  1.6442 -1.7815
  115MOL   C10223130   2.855   7.619   6.588 -0.1376 -0.3955  0.2645
  115MOL   C10323131   2.939   7.536   6.689  0.5621 -0.1028 -0.1096
  115MOL  Cl10423132   2.879   7.374   6.715 -0.1615 -0.1376 -0.6142
  115MOL   C10523133   3.049   7.595   6.740 -0.4368 -0.8059 -0.1132
  115MOL   C10623134   3.145   7.528   6.828  0.4414 -0.0557 -0.0787
  115MOL   H10723135   2.858   7.728   6.600  1.0714 -0.3257 -0.4788
  115MOL   H10823136   2.753   7.583   6.590  0.2106 -1.3408  1.9687
  115MOL   H10923137   3.083   7.695   6.719 -1.0017 -0.7416 -0.7433
  115MOL   H11023138   3.106   7.444   6.886 -1.3916 -0.8022 -2.3466
  115MOL   H11123139   3.223   7.492   6.762 -0.9567 -0.0231 -1.7757
  115MOL   C11223140   3.226   7.622   6.920 -0.0624  0.0187 -0.8640
  115MOL   C11323141   3.288   7.543   7.035  0.5425 -0.2524 -0.0808
  115MOL  Cl11423142   3.452   7.512   6.994  0.0151  0.2654  0.4899
  115MOL   C11523143   3.230   7.502   7.153 -0.3038 -0.3631 -0.2491
  115MOL   C11623144   3.085   7.529   7.178 -0.3628  0.4979 -0.3266
  115MOL   H11723145   3.300   7.690   6.878 -1.1304  1.0295 -1.0956
  115MOL   H11823146   3.165   7.696   6.971  0.1988 -1.7634  2.1735
  115MOL   H11923147   3.283   7.456   7.235  0.7980  1.4444  0.0960
  115MOL   H12023148   3.041   7.429   7.180  1.1177 -0.2988 -3.1913
  115MOL   H12123149   3.037   7.577   7.093 -0.2759 -0.8649 -1.1754
  115MOL   C12223150   3.066   7.625   7.302  0.4650 -0.1714 -0.3058
  115MOL   C12323151   3.117   7.565   7.430 -0.2248 -0.1948 -0.1776
  115MOL  Cl12423152   3.033   7.423   7.491 -0.0308  0.3144  0.2741
  115MOL   C12523153   3.213   7.616   7.512 -0.7936  0.3678  0.1837
  115MOL   C12623154   3.302   7.736   7.484 -1.1142 -0.7373  0.1509
  115MOL   H12723155   3.103   7.723   7.273 -0.8789 -0.0371 -1.6223
  115MOL   H12823156   2.961   7.635   7.328  0.6016 -1.6797  0.8622
  115MOL   H12923157   3.236   7.563   7.603  1.2244  0.7977 -0.0480
  115MOL   H13023158   3.270   7.805   7.407  2.0136  0.4846 -0.1414
  115MOL   H13123159   3.310   7.786   7.581 -1.3297  0.8058 -0.6091
  115MOL   C13223160   3.445   7.683   7.453  1.0084  0.0733 -0.0699
  115MOL   C13323161   3.552   7.791   7.442  0.4024  0.1037  0.0640
  115MOL  Cl13423162   3.582   7.839   7.278  0.2782 -0.0000  0.0315
  115MOL   C13523163   3.622   7.838   7.542 -0.5679 -0.0853  0.2052
  115MOL   C13623164   3.595   7.806   7.690  0.9997  0.4602  0.1418
  115MOL   H13723165   3.484   7.608   7.522  1.4391  0.3032 -0.0566
  115MOL   H13823166   3.436   7.634   7.356  0.2555  0.3549 -0.1400
  115MOL   H13923167   3.702   7.905   7.514 -1.5615  1.9596  2.1202
  115MOL   H14023168   3.493   7.770   7.701  1.0234 -0.0351 -1.1098
  115MOL   H14123169   3.656   7.718   7.710  0.4767 -0.6982 -2.9978
  115MOL   C14223170   3.632   7.914   7.789  0.6397 -0.2094 -0.1453
  115MOL   C14323171   3.540   8.037   7.798  0.0652  0.2085 -0.2498
  115MOL  Cl14423172   3.373   7.998   7.784  0.3882 -0.1958 -0.0422
  115MOL   C14523173   3.581   8.164   7.809  0.1596  0.0353  0.3772
  115MOL   C14623174   3.499   8.285   7.840  0.1739 -0.4472  0.3869
  115MOL   H14723175   3.735   7.950   7.791  0.6958 -0.4182  2.1887
  115MOL   H14823176   3.639   7.859   7.883  0.8217 -2.1026 -1.2326
  115MOL   H14923177   3.685   8.192   7.812  0.1254 -0.0677  3.0269
  115MOL   H15023178   3.516   8.368   7.772 -2.3604  1.1128  1.5656
  115MOL   H15123179   3.396   8.255   7.820  0.3237  0.5405 -1.9836
  115MOL   C15223180   3.506   8.339   7.985 -0.3448  0.1397  0.1813
  115MOL   C15323181   3.424   0.044   8.019  0.7435 -0.8097 -0.0307
  115MOL  Cl15423182   3.384   0.058   8.193 -0.5035  0.3699 -0.4399
  115MOL   C15523183   3.380   0.134   7.920 -0.1013  0.1148  0.1045
  115MOL   C15623184   3.302   0.259   7.952 -0.2904  0.5015  0.5707
  115MOL   H15723185   3.480   8.254   8.048  1.0685 -1.5737 -1.4625
  115MOL   H15823186   3.608   8.364   8.012 -1.0110  1.3462  1.6554
  115MOL   H15923187   3.404   0.116   7.816  1.0399  1.8795  0.0403
  115MOL   H16023188   3.279   0.278   8.057  2.3298 -0.8197  1.4345
  115MOL   H16123189   3.209   0.237   7.901  0.2783 -0.2319 -0.1744
  115MOL   C16223190   3.367   0.380   7.888 -0.4801  0.4228 -0.1556
  115MOL   C16323191   3.279   0.507   7.889  0.5146  0.1029 -1.2606
  115MOL  Cl16423192   3.281   0.577   8.047  0.0220 -0.6269  0.1764
  115MOL   C16523193   3.212   0.554   7.786 -0.3963  0.6259  0.7958
  115MOL   C16623194   3.146   0.692   7.782 -0.2082 -0.0606  0.3217
  115MOL   H16723195   3.462   0.392   7.940 -0.3128 -1.5832  0.0268
  115MOL   H16823196   3.397   0.358   7.785 -0.0786 -1.5346  0.3543
  115MOL   H16923197   3.218   0.502   7.692  1.4710  1.8756  0.1959
  115MOL   H17023198   3.038   0.673   7.785 -0.6334  2.2354  0.8680
  115MOL   H17123199   3.177   0.758   7.863 -1.3655  1.1621 -0.2068
  115MOL   C17223200   3.180   0.762   7.640 -0.1964  0.0990 -0.4341
  115MOL   C17323201   3.333   0.787   7.626 -0.0299  0.5968 -0.3456
  115MOL  Cl17423202   3.386   0.741   7.467 -0.1856  0.5554  0.5143
  115MOL   C17523203   3.416   0.838   7.715 -0.3590 -0.4331  0.0643
  115MOL   C17623204   3.571   0.861   7.695  0.6404  0.4889 -0.0325
  115MOL   H17723205   3.129   0.858   7.642  0.2856  0.3469  0.0672
  115MOL   H17823206   3.130   0.708   7.560  0.4803 -2.1208  0.6118
  115MOL   H17923207   3.374   0.877   7.806 -0.8515  2.5781 -1.3934
  115MOL   H18023208   3.596   0.962   7.664  0.4027  1.3169  2.3512
  115MOL   H18123209   3.596   0.794   7.613 -1.6639 -0.5080  0.0289
  115MOL   C18223210   3.658   0.819   7.821 -0.3920 -0.5727  0.6946
  115MOL   C18323211   3.807   0.818   7.797 -0.4558 -0.1847  0.0123
  115MOL  Cl18423212   3.897   0.789   7.945  0.3866  0.1323 -0.1083
  115MOL   C18523213   3.871   0.861   7.683  0.4996 -0.3483 -0.3083
  115MOL   C18623214   4.021   0.874   7.676 -0.3116  0.7798  0.2517
  115MOL   H18723215   3.632   0.876   7.910  0.3632  0.4458  0.2713
  115MOL   H18823216   3.638   0.717   7.853  1.4178 -0.6075  1.7686
  115MOL   H18923217   3.820   0.890   7.591  1.2846  1.0623 -0.3122
  115MOL   H19023218   4.052   0.968   7.722  0.2400  0.5928  0.2530
  115MOL   H19123219   4.067   0.789   7.725  1.3723 -0.0845 -2.6997
  115MOL   C19223220   4.074   0.858   7.530  0.6731  0.0010  0.4486
  115MOL   C19323221   4.220   0.886   7.520  0.4817  0.0218 -0.8721
  115MOL  Cl19423222   4.310   0.740   7.526 -0.0217 -0.4625 -0.2721
  115MOL   C19523223   4.281   1.005   7.500  0.1689  0.8146  0.3828
  115MOL   C19623224   4.209   1.142   7.482 -0.3962 -0.7213  0.1808
  115MOL   H19723225   4.018   0.922   7.462  0.0396 -0.5221  0.4696
  115MOL   H19823226   4.052   0.758   7.495 -0.2634  0.0053  1.0077
  115MOL   H19923227   4.389   1.002   7.494  0.2241  1.0314  1.2231
  115MOL   H20023228   4.102   1.126   7.471 -0.6447 -0.2410  1.8064
  115MOL   H20123229   4.237   1.196   7.392  0.9619  0.2063  1.1428
  115MOL   H20223230   4.220   1.205   7.570 -0.0777  0.1225 -0.4626
  116MOL     C123231   1.810   2.024   1.881 -0.4527  0.8723  0.5788
  116MOL     C223232   1.922   2.015   1.973 -0.4115  0.2723  0.4322
  116MOL    Cl323233   1.880   1.948   2.124 -0.2444 -0.2889  0.1342
  116MOL     C423234   2.055   2.029   1.949 -0.2434  0.7432  0.7616
  116MOL     C523235   2.126   2.078   1.820  0.2842 -0.0117  0.0638
  116MOL     H623236   1.760   1.927   1.891  2.3361 -0.9188 -2.0699
  116MOL     H723237   1.826   2.036   1.774  2.0996 -2.4646  0.5041
  116MOL     H823238   2.120   1.992   2.027  1.6440  0.2637 -0.9989
  116MOL     H923239   2.154   1.990   1.762 -3.3601 -0.7362 -0.7391
  116MOL    H1023240   2.060   2.134   1.755 -0.9667 -1.0050  0.4470
  116MOL    H1123241   1.748   2.110   1.906  0.8819  1.9387  0.2582
  116MOL    C1223242   2.242   2.171   1.856  0.0791  0.8915  0.4494
  116MOL    C1323243   2.338   2.205   1.741  0.1919 -0.0284 -0.3136
  116MOL   Cl1423244   2.446   2.075   1.694 -0.4369  0.0445  0.2495
  116MOL    C1523245   2.347   2.326   1.685 -0.4029  0.9451 -0.0852
  116MOL    C1623246   2.262   2.449   1.708  0.3181 -0.2150  0.5254
  116MOL    H1723247   2.213   2.270   1.891 -1.4157  0.9364 -0.8634
  116MOL    H1823248   2.300   2.127   1.937  0.4177  0.0590 -0.2503
  116MOL    H1923249   2.427   2.331   1.612  0.3081 -0.4186  0.5775
  116MOL    H2023250   2.247   2.509   1.618  1.2360  0.3400  0.7330
  116MOL    H2123251   2.157   2.434   1.735  0.6104 -1.9789  0.7058
  116MOL    C2223252   2.330   2.546   1.808  0.4132  0.2083 -0.0913
  116MOL    C2323253   2.250   2.682   1.823  0.1773 -0.3418 -0.3000
  116MOL   Cl2423254   2.344   2.813   1.758  0.2732 -0.2949 -0.0217
  116MOL    C2523255   2.124   2.695   1.872  0.0959  0.2191 -0.0341
  116MOL    C2623256   2.055   2.831   1.891  0.0297  0.7819  0.3234
  116MOL    H2723257   2.337   2.490   1.902 -3.7783  0.8710  0.6700
  116MOL    H2823258   2.436   2.570   1.799  0.4630  0.0762  0.1261
  116MOL    H2923259   2.071   2.607   1.905 -1.7244  1.4593  0.4036
  116MOL    H3023260   2.061   2.850   1.998 -3.2253  0.8878  0.5390
  116MOL    H3123261   2.108   2.914   1.843  0.2592  0.8263  0.6502
  116MOL    C3223262   1.907   2.817   1.844 -0.2370  0.0478 -0.4026
  116MOL    C3323263   1.825   2.939   1.883  0.1077  0.5796 -0.5746
  116MOL   Cl3423264   1.848   3.060   1.761  0.1728  0.1416  0.1034
  116MOL    C3523265   1.740   2.954   1.983 -0.7939 -0.0145  0.0133
  116MOL    C3623266   1.645   3.073   2.002  0.0331  0.4143  0.0416
  116MOL    H3723267   1.901   2.801   1.736  2.3656 -1.2817 -0.3934
  116MOL    H3823268   1.863   2.727   1.887 -0.1000  0.4893  0.6816
  116MOL    H3923269   1.732   2.879   2.061  1.7976 -1.3859 -0.9553
  116MOL    H4023270   1.676   3.158   1.940 -0.0634 -0.2356 -0.9176
  116MOL    H4123271   1.545   3.042   1.973 -0.4186 -0.0682  2.0473
  116MOL    C4223272   1.632   3.103   2.150  0.2405 -0.0367 -0.2792
  116MOL    C4323273   1.541   3.225   2.178  0.7686  0.0264  0.4534
  116MOL   Cl4423274   1.617   3.377   2.151 -0.2015  0.3077 -0.2869
  116MOL    C4523275   1.410   3.210   2.204 -0.2064 -0.5236 -0.7248
  116MOL    C4623276   1.324   3.081   2.216  0.1244 -1.1040  0.2270
  116MOL    H4723277   1.612   3.018   2.214 -0.9181  0.0969 -0.4576
  116MOL    H4823278   1.731   3.136   2.183 -0.2548  0.5013  0.6969
  116MOL    H4923279   1.344   3.293   2.222 -0.8760 -1.0399 -0.7681
  116MOL    H5023280   1.385   3.000   2.254 -0.2499 -1.5917 -0.2045
  116MOL    H5123281   1.242   3.086   2.289 -0.6955 -1.3482 -0.6677
  116MOL    C5223282   1.255   3.019   2.091 -0.9371 -0.2017  0.9235
  116MOL    C5323283   1.178   2.893   2.121  0.0048  0.3038 -0.0789
  116MOL   Cl5423284   1.230   2.750   2.039 -0.0324  0.3770 -0.0978
  116MOL    C5523285   1.071   2.901   2.197 -0.0156  0.2539  0.1947
  116MOL    C5623286   0.982   2.783   2.233 -0.6743 -0.3518  0.2962
  116MOL    H5723287   1.182   3.085   2.045 -0.6147 -0.5948 -0.1671
  116MOL    H5823288   1.331   3.000   2.016 -1.1643 -2.4700  1.2455
  116MOL    H5923289   1.037   2.997   2.232 -0.0798  1.0052 -1.9006
  116MOL    H6023290   1.023   2.683   2.217 -0.5038 -0.0670 -1.0887
  116MOL    H6123291   0.957   2.786   2.339 -0.7404 -0.6534  0.2889
  116MOL    C6223292   0.850   2.788   2.157 -0.3728 -0.1945  0.7604
  116MOL    C6323293   0.752   2.677   2.196 -0.2098 -0.1720  0.7031
  116MOL   Cl6423294   0.679   2.599   2.062 -0.1421 -0.1323  0.1134
  116MOL    C6523295   0.711   2.646   2.323  0.5778  0.1970 -0.0182
  116MOL    C6623296   0.612   2.539   2.367 -0.3375  0.0194  0.2790
  116MOL    H6723297   0.796   2.875   2.193 -1.5936 -1.4842  2.1116
  116MOL    H6823298   0.865   2.806   2.051 -5.4262  2.5581  0.3475
  116MOL    H6923299   0.767   2.696   2.400  2.2383 -0.0819 -1.0178
  116MOL    H7023300   0.531   2.523   2.295  3.1198 -1.9468 -3.3746
  116MOL    H7123301   0.561   2.581   2.454 -0.3212  0.0799  0.2599
  116MOL    C7223302   0.671   2.405   2.406 -0.0788 -0.3439  0.1439
  116MOL    C7323303   0.571   2.315   2.474  0.4111  0.3161  0.1670
  116MOL   Cl7423304   0.591   2.336   2.643 -0.3183 -0.3137  0.5723
  116MOL    C7523305   0.486   2.222   2.424 -0.6059  0.1682 -0.9116
  116MOL    C7623306   0.390   2.128   2.512  0.8022 -0.3256  0.2897
  116MOL    H7723307   0.759   2.423   2.468 -0.2324 -0.4060  0.3804
  116MOL    H7823308   0.718   2.356   2.321 -0.7130 -0.5459 -0.0918
  116MOL    H7923309   0.492   2.216   2.316 -1.2441  1.9003 -1.0575
  116MOL    H8023310   0.300   2.179   2.546  1.1096  0.6360 -0.2985
  116MOL    H8123311   0.439   2.094   2.603 -0.6383 -0.9282  0.8534
  116MOL    C8223312   0.347   2.005   2.427  0.7189  0.0750 -0.1836
  116MOL    C8323313   0.290   1.890   2.514  0.0509 -0.0768 -0.0386
  116MOL   Cl8423314   0.368   1.741   2.475  0.3210 -0.2184 -0.2978
  116MOL    C8523315   0.191   1.897   2.603 -0.1867  0.1086  0.0180
  116MOL    C8623316   0.123   1.785   2.677 -0.5002  0.1353  0.3666
  116MOL    H8723317   0.433   1.977   2.365  0.2723 -1.7744  0.0057
  116MOL    H8823318   0.267   2.034   2.358 -0.2771 -1.9662  0.0977
  116MOL    H8923319   0.141   1.992   2.616 -0.9423 -0.3504  0.4682
  116MOL    H9023320   0.066   1.726   2.606 -1.4577 -0.1957  1.3881
  116MOL    H9123321   0.195   1.723   2.731  1.1638  0.2645 -1.6668
  116MOL    C9223322   0.025   1.832   2.782  0.5167  0.1518  0.1723
  116MOL    C9323323   0.099   1.880   2.908  0.0869  1.0007 -0.7587
  116MOL   Cl9423324   0.147   2.045   2.913  0.0781  0.3222  0.1485
  116MOL    C9523325   0.123   1.799   3.014 -0.0391 -0.0281  0.5184
  116MOL    C9623326   0.085   1.656   3.026  0.3909 -0.2279  0.7986
  116MOL    H9723327   8.384   1.743   2.794 -0.3203  0.5958 -0.6893
  116MOL    H9823328   8.382   1.913   2.748  1.2374  0.5642 -0.2091
  116MOL    H9923329   0.179   1.831   3.101  1.4163 -1.2699  0.0687
  116MOL   H10023330   8.399   1.638   3.026  0.2738  0.4004 -1.1264
  116MOL   H10123331   0.132   1.598   2.947 -3.6347  0.5507 -2.2917
  116MOL   C10223332   0.128   1.592   3.158 -0.0780  0.7295  0.3816
  116MOL   C10323333   0.075   1.452   3.160 -0.8975 -0.5047 -0.0805
  116MOL  Cl10423334   8.373   1.428   3.273 -0.2441 -0.1993  0.1962
  116MOL   C10523335   0.120   1.347   3.090  0.3692 -0.6242 -0.5230
  116MOL   C10623336   0.054   1.203   3.073  0.5017 -0.0680  0.4569
  116MOL   H10723337   0.236   1.590   3.148 -0.1225  0.9204 -0.1652
  116MOL   H10823338   0.112   1.653   3.248  2.4857  1.9969  0.0195
  116MOL   H10923339   0.209   1.365   3.032  2.1203 -0.0239  2.2243
  116MOL   H11023340   8.390   1.194   3.141  0.7567 -1.0304  0.6639
  116MOL   H11123341   0.008   1.208   2.974  0.5411 -0.7970  0.3962
  116MOL   C11223342   0.139   1.088   3.086 -0.1985 -0.3768 -0.2696
  116MOL   C11323343   0.058   0.964   3.031 -0.5561 -0.1576  0.3548
  116MOL  Cl11423344   8.413   0.877   3.166  0.0030  0.1124 -0.1772
  116MOL   C11523345   0.037   0.930   2.901  0.9097  0.1290 -0.4221
  116MOL   C11623346   0.093   1.012   2.786 -0.9757  0.2764  0.0968
  116MOL   H11723347   0.229   1.097   3.025 -0.4101  1.2942 -0.3440
  116MOL   H11823348   0.168   1.075   3.190 -0.5413  2.2988  0.1922
  116MOL   H11923349   8.397   0.843   2.878  2.0108 -1.0616  1.0481
  116MOL   H12023350   0.171   1.075   2.828 -0.1805  1.1658 -2.6425
  116MOL   H12123351   0.018   1.081   2.749 -0.0237  1.3620  0.1637
  116MOL   C12223352   0.150   0.926   2.675 -0.0831  0.6538 -0.5263
  116MOL   C12323353   0.156   0.989   2.535  0.9335 -0.1134  0.7571
  116MOL  Cl12423354   0.001   1.040   2.484 -0.2354  0.2889  0.3035
  116MOL   C12523355   0.266   1.005   2.460 -0.7495 -0.5549 -0.1483
  116MOL   C12623356   0.410   0.974   2.499  0.5414  0.0015 -0.3701
  116MOL   H12723357   0.252   0.914   2.711 -0.2915  0.7097  0.0847
  116MOL   H12823358   0.107   0.826   2.678  0.9319  0.1253 -2.6158
  116MOL   H12923359   0.258   1.057   2.365  0.1104  1.8314  1.0292
  116MOL   H13023360   0.432   1.040   2.583  0.6044  0.6608 -0.9076
  116MOL   H13123361   0.390   0.872   2.534  0.3823 -0.2159 -1.0754
  116MOL   C13223362   0.515   0.971   2.381  0.4001 -0.0582  0.0294
  116MOL   C13323363   0.657   0.933   2.427  0.7244 -0.2364 -0.0682
  116MOL  Cl13423364   0.738   1.066   2.502 -0.3095 -0.0609 -0.3114
  116MOL   C13523365   0.711   0.811   2.417  0.2907  0.1079  0.8639
  116MOL   C13623366   0.661   0.691   2.337 -0.4874  0.0133  0.3075
  116MOL   H13723367   0.480   0.907   2.300  0.0274  0.9145 -0.5805
  116MOL   H13823368   0.522   1.075   2.349  0.0240 -0.2498 -0.6755
  116MOL   H13923369   0.803   0.803   2.473  0.3871  2.8079  1.1433
  116MOL   H14023370   0.684   0.600   2.392 -3.5310 -1.1962 -0.2853
  116MOL   H14123371   0.552   0.689   2.348 -0.4903 -1.9568  0.0126
  116MOL   C14223372   0.695   0.691   2.190  0.1721  0.5676  0.0143
  116MOL   C14323373   0.612   0.585   2.118 -0.0280 -0.1254  0.5985
  116MOL  Cl14423374   0.698   0.437   2.106  0.0624 -0.2387 -0.2337
  116MOL   C14523375   0.484   0.599   2.073  0.2419  0.5910  0.0924
  116MOL   C14623376   0.409   0.489   2.001  0.4116  0.1202  0.3183
  116MOL   H14723377   0.800   0.662   2.184  0.4880  1.3781  1.4430
  116MOL   H14823378   0.676   0.791   2.153 -2.7808  0.4905  1.1065
  116MOL   H14923379   0.428   0.689   2.090  0.0622  0.2426  1.4140
  116MOL   H15023380   0.486   0.427   1.956  1.3075  2.0000 -0.7835
  116MOL   H15123381   0.350   0.436   2.076  0.1312  0.3518  0.2605
  116MOL   C15223382   0.311   0.541   1.893 -0.3172 -0.0191 -0.7411
  116MOL   C15323383   0.239   0.435   1.816 -0.3761 -0.6278 -0.3615
  116MOL  Cl15423384   0.072   0.467   1.822  0.2683  0.2434 -0.4891
  116MOL   C15523385   0.296   0.327   1.767 -0.3779  0.2149  0.7714
  116MOL   C15623386   0.224   0.218   1.689  0.8782 -0.6085  0.7647
  116MOL   H15723387   0.237   0.612   1.928 -0.0928  1.0437 -2.4041
  116MOL   H15823388   0.373   0.596   1.823 -0.3573  0.1395 -0.6527
  116MOL   H15923389   0.403   0.313   1.781 -0.0424  2.1622  0.2270
  116MOL   H16023390   0.257   0.213   1.585  0.2801 -1.1055  0.5978
  116MOL   H16123391   0.121   0.252   1.682  0.7810 -1.2359 -1.2347
  116MOL   C16223392   0.224   0.076   1.755 -0.5870  0.2956  0.3671
  116MOL   C16323393   0.149   8.393   1.670  1.1921 -0.0547 -0.2364
  116MOL  Cl16423394   8.400   0.015   1.668 -0.1022  0.1752  0.2880
  116MOL   C16523395   0.194   8.278   1.625  0.1013  0.1756  0.5275
  116MOL   C16623396   0.123   8.159   1.556  0.3370 -0.5361 -0.1835
  116MOL   H16723397   0.322   0.031   1.768 -0.7280 -0.2113 -0.2920
  116MOL   H16823398   0.179   0.087   1.854  0.4665  0.4677  0.8273
  116MOL   H16923399   0.299   8.260   1.642 -0.1206 -2.2837 -0.3888
  116MOL   H17023400   0.147   8.068   1.611 -1.2709 -1.4279 -0.9370
  116MOL   H17123401   0.018   8.172   1.581  0.8658  1.6878  1.0004
  116MOL   C17223402   0.166   8.129   1.415 -1.0311  0.2553  0.2811
  116MOL   C17323403   0.083   8.032   1.331  0.4747  0.2311 -0.1934
  116MOL  Cl17423404   0.016   7.902   1.417  0.5795 -0.4058  0.1402
  116MOL   C17523405   0.076   8.044   1.200 -0.7019  0.6749  0.4132
  116MOL   C17623406   0.010   7.931   1.117  0.2588 -0.3611  0.0588
  116MOL   H17723407   0.268   8.091   1.417 -0.7592  1.0529  1.8107
  116MOL   H17823408   0.175   8.227   1.367  1.5105 -0.2081 -0.2958
  116MOL   H17923409   0.120   8.129   1.152  1.9985 -1.2822 -0.7148
  116MOL   H18023410   8.377   7.966   1.029 -1.7197  1.7123  1.9953
  116MOL   H18123411   8.346   7.887   1.170 -0.0835  0.6539  0.3820
  116MOL   C18223412   0.120   7.834   1.090 -0.5725  0.1583 -0.2032
  116MOL   C18323413   0.070   7.706   1.012 -0.3057 -0.0018 -0.0395
  116MOL  Cl18423414   0.129   7.566   1.101 -0.1232  0.3632  0.0088
  116MOL   C18523415   8.416   7.698   0.904 -0.1607 -0.2153  0.0168
  116MOL   C18623416   8.360   7.570   0.836  0.5289 -0.7927 -0.5671
  116MOL   H18723417   0.193   7.881   1.024  0.8151 -1.0226  0.4729
  116MOL   H18823418   0.167   7.806   1.184 -0.6228 -0.0267 -0.2326
  116MOL   H18923419   8.388   7.788   0.851 -0.1162  0.2012  0.6795
  116MOL   H19023420   8.340   7.495   0.913  2.0718 -1.4254 -0.7848
  116MOL   H19123421   8.261   7.603   0.803  0.8883  1.4785  0.4774
  116MOL   C19223422   0.043   7.529   0.731  0.5557  0.1540  0.1426
  116MOL   C19323423   8.400   7.430   0.629  0.2421 -0.5169  0.2368
  116MOL  Cl19423424   8.317   7.509   0.497 -0.5316 -0.0244  0.1904
  116MOL   C19523425   8.408   7.293   0.636 -0.5389  0.0854  0.0678
  116MOL   C19623426   0.059   7.210   0.745 -0.1355  0.1966 -0.7717
  116MOL   H19723427   0.120   7.468   0.778 -0.4621 -1.8847 -0.7577
  116MOL   H19823428   0.093   7.617   0.692 -0.3020  0.9490  0.8180
  116MOL   H19923429   8.367   7.223   0.565  1.2801 -0.6462 -0.2989
  116MOL   H20023430   0.098   7.265   0.830 -2.8506  2.4703 -0.9249
  116MOL   H20123431   0.122   7.138   0.691  0.7134 -0.1345  0.6397
  116MOL   H20223432   8.402   7.143   0.782 -1.4788  2.4498  0.5732
  117MOL     C123433   5.886   1.701   7.637  0.3298  0.2180 -0.0630
  117MOL     C223434   5.900   1.652   7.495  0.0554 -0.0696 -0.1605
  117MOL    Cl323435   5.992   1.762   7.401  0.0172  0.4352  0.3561
  117MOL     C423436   5.845   1.542   7.443 -0.0276 -0.6213 -0.2590
  117MOL     C523437   5.751   1.450   7.508  0.2026  0.2053 -0.1037
  117MOL     H623438   5.808   1.652   7.695  1.8425 -1.3390  0.7207
  117MOL     H723439   5.857   1.806   7.640  2.4888  0.7962  1.7667
  117MOL     H823440   5.868   1.513   7.342 -2.4333  2.7728 -1.8744
  117MOL     H923441   5.680   1.490   7.581 -0.4966  0.2375 -0.7881
  117MOL    H1023442   5.679   1.403   7.441 -0.9353  1.3006  0.3237
  117MOL    H1123443   5.980   1.701   7.692  0.4080 -0.3589 -0.1930
  117MOL    C1223444   5.823   1.327   7.567 -0.5691  0.3350  0.1505
  117MOL    C1323445   5.724   1.252   7.658  0.2110 -0.3858  0.3606
  117MOL   Cl1423446   5.651   1.120   7.581  0.0802  0.1641  0.0040
  117MOL    C1523447   5.682   1.286   7.781 -0.0531  0.8259 -0.1782
  117MOL    C1623448   5.731   1.389   7.884  0.7700 -0.1745  0.7501
  117MOL    H1723449   5.879   1.269   7.494  1.4239  1.1524  0.9672
  117MOL    H1823450   5.908   1.359   7.628 -1.2468 -1.2079  1.9407
  117MOL    H1923451   5.604   1.229   7.828 -2.3243  1.7246 -2.7215
  117MOL    H2023452   5.798   1.344   7.959  0.3664 -0.6451  0.8350
  117MOL    H2123453   5.791   1.462   7.831 -2.0075  2.0287  0.5590
  117MOL    C2223454   5.618   1.466   7.955 -0.9818  0.2294 -0.5926
  117MOL    C2323455   5.667   1.588   8.025  0.2852  0.5177  0.4747
  117MOL   Cl2423456   5.582   1.726   7.972  0.3520 -0.4901 -0.2586
  117MOL    C2523457   5.768   1.597   8.110 -0.4217  0.9729 -0.0533
  117MOL    C2623458   5.827   1.720   8.179  0.3386  0.2532 -0.5294
  117MOL    H2723459   5.534   1.486   7.889 -1.5385 -1.0629 -0.3035
  117MOL    H2823460   5.575   1.395   8.026  0.1432 -1.3992 -1.4895
  117MOL    H2923461   5.824   1.510   8.143 -0.4086  1.6299  1.7053
  117MOL    H3023462   5.822   1.792   8.098 -1.9108  0.5148 -0.2049
  117MOL    H3123463   5.754   1.762   8.248  0.5786  1.0408 -0.7479
  117MOL    C3223464   5.963   1.694   8.247 -0.9761  0.0320  0.6319
  117MOL    C3323465   6.018   1.825   8.308 -0.3164  0.0837 -0.2870
  117MOL   Cl3423466   6.054   1.802   0.056  0.0660 -0.3727 -0.0341
  117MOL    C3523467   6.024   1.940   8.241  0.0858  0.1093  0.5147
  117MOL    C3623468   6.068   2.070   8.307 -0.0818 -0.0833  0.3261
  117MOL    H3723469   5.962   1.602   8.305 -0.6566 -0.6185 -0.3833
  117MOL    H3823470   6.025   1.666   8.162 -0.5828  3.4102 -0.2753
  117MOL    H3923471   5.993   1.944   8.138  0.9402 -1.8820  0.1387
  117MOL    H4023472   5.983   2.126   8.346  0.2403  2.1942 -2.1185
  117MOL    H4123473   6.126   2.042   8.395  1.2639  0.7456 -0.2925
  117MOL    C4223474   6.158   2.151   8.213  0.1470  0.2310 -0.5822
  117MOL    C4323475   6.167   2.301   8.245  0.2284  0.3089  0.4196
  117MOL   Cl4423476   6.316   2.338   8.321  0.3189 -0.0997 -0.4689
  117MOL    C4523477   6.070   2.398   8.227 -0.7127  0.3142  0.7402
  117MOL    C4623478   5.933   2.376   8.162 -0.1660  0.5916 -0.4161
  117MOL    H4723479   6.256   2.107   8.193  0.0674 -0.4157  0.4630
  117MOL    H4823480   6.111   2.142   8.114 -0.4560  2.2483 -0.5204
  117MOL    H4923481   6.094   2.497   8.265 -1.6962  0.2604  1.5129
  117MOL    H5023482   5.906   2.270   8.168  0.8936  0.2634 -1.2604
  117MOL    H5123483   5.859   2.439   8.211 -0.5450 -0.4147  0.3237
  117MOL    C5223484   5.934   2.415   8.019 -0.2783  0.7030  0.4108
  117MOL    C5323485   5.804   2.376   7.952 -0.2671  0.5716  0.7010
  117MOL   Cl5423486   5.689   2.511   7.966 -0.0263  0.2204 -0.1675
  117MOL    C5523487   5.777   2.251   7.904  0.2300 -0.7105 -0.6546
  117MOL    C5623488   5.644   2.210   7.845 -0.2750 -0.1956  0.2352
  117MOL    H5723489   5.939   2.523   8.012  3.0105  0.5314 -0.6848
  117MOL    H5823490   6.020   2.369   7.971 -1.7044 -1.7681  0.1416
  117MOL    H5923491   5.853   2.174   7.908 -1.4547 -2.3322  1.1799
  117MOL    H6023492   5.603   2.127   7.902 -0.7110 -0.9922 -1.2130
  117MOL    H6123493   5.562   2.282   7.855 -0.8997 -1.0065  0.9931
  117MOL    C6223494   5.655   2.169   7.699 -0.5529  0.6219  0.8547
  117MOL    C6323495   5.532   2.086   7.663 -0.2315  0.1913  1.1103
  117MOL   Cl6423496   5.555   1.918   7.665 -0.0182 -0.0177 -0.0355
  117MOL    C6523497   5.410   2.142   7.655  0.4857 -0.2247  0.0717
  117MOL    C6623498   5.283   2.066   7.621 -0.6891  0.3251  0.5769
  117MOL    H6723499   5.657   2.265   7.647  3.5692 -0.6692 -1.5984
  117MOL    H6823500   5.748   2.114   7.692 -0.3502  1.0664 -0.0271
  117MOL    H6923501   5.406   2.248   7.673  1.9988  0.2885 -2.4198
  117MOL    H7023502   5.232   2.040   7.714 -1.0635  1.1030  0.5971
  117MOL    H7123503   5.314   1.973   7.574  1.2497  0.7797  0.9181
  117MOL    C7223504   5.189   2.155   7.536 -0.3423 -0.3076 -0.0634
  117MOL    C7323505   5.066   2.084   7.481 -0.4395  0.4076  0.1606
  117MOL   Cl7423506   4.932   2.194   7.485  0.5091  0.1681  0.0419
  117MOL    C7523507   5.059   1.962   7.421 -0.1118 -0.0350  0.1294
  117MOL    C7623508   4.931   1.900   7.371 -0.1267  0.0696  0.1301
  117MOL    H7723509   5.251   2.187   7.452 -0.2257  1.4347  0.6627
  117MOL    H7823510   5.152   2.245   7.584 -1.0807 -0.6512  0.0217
  117MOL    H7923511   5.150   1.904   7.419 -0.1873 -0.1474 -0.0119
  117MOL    H8023512   4.836   1.952   7.384 -1.4716 -2.2562 -0.0219
  117MOL    H8123513   4.914   1.800   7.412  0.5697 -0.0268  0.1957
  117MOL    C8223514   4.944   1.877   7.225  0.0734  0.0526 -0.2759
  117MOL    C8323515   4.820   1.804   7.177 -0.6315 -0.9393 -0.4138
  117MOL   Cl8423516   4.696   1.913   7.127  0.1792  0.1662 -0.1855
  117MOL    C8523517   4.810   1.671   7.149 -0.8576 -0.5826 -0.3510
  117MOL    C8623518   4.689   1.605   7.098 -0.8176  0.0182 -0.7322
  117MOL    H8723519   5.036   1.821   7.212  0.0354  0.3037 -1.6634
  117MOL    H8823520   4.948   1.969   7.167 -1.2670 -0.2025 -0.8029
  117MOL    H8923521   4.893   1.607   7.175 -2.6399 -2.8653 -0.1520
  117MOL    H9023522   4.603   1.672   7.100 -0.0281  1.1050 -2.2109
  117MOL    H9123523   4.711   1.580   6.994 -1.3607 -0.9089 -0.6338
  117MOL    C9223524   4.665   1.478   7.179  0.2032 -0.2806 -0.1251
  117MOL    C9323525   4.556   1.398   7.118 -0.0181 -0.3282 -0.5064
  117MOL   Cl9423526   4.420   1.391   7.224 -0.1049  0.2441 -0.2133
  117MOL    C9523527   4.556   1.325   7.005  0.0530  0.0505 -0.9587
  117MOL    C9623528   4.663   1.314   6.904 -0.6103 -0.2016  0.4968
  117MOL    H9723529   4.654   1.486   7.287  0.0771 -1.9969 -0.0020
  117MOL    H9823530   4.756   1.418   7.176  0.8910  0.7909 -0.9132
  117MOL    H9923531   4.464   1.270   6.986 -0.1839 -0.7591  2.1239
  117MOL   H10023532   4.637   1.381   6.822 -1.0688  0.8423  1.4887
  117MOL   H10123533   4.743   1.376   6.945  0.2468  0.9024 -2.7218
  117MOL   C10223534   4.707   1.168   6.873  0.3323 -0.1404  0.2365
  117MOL   C10323535   4.629   1.118   6.755 -0.3513 -0.4666  0.1506
  117MOL  Cl10423536   4.691   1.196   6.617 -0.0203  0.1740  0.1896
  117MOL   C10523537   4.539   1.015   6.760 -0.1220  0.4223  0.4173
  117MOL   C10623538   4.468   0.953   6.636  0.7956 -0.3040 -0.9525
  117MOL   H10723539   4.813   1.157   6.850  0.1565 -0.1749 -0.5971
  117MOL   H10823540   4.685   1.107   6.960  0.1749  0.0613  0.3391
  117MOL   H10923541   4.520   0.979   6.860 -1.6685  0.5841  0.1988
  117MOL   H11023542   4.360   0.962   6.642  0.7342 -1.2960 -0.5885
  117MOL   H11123543   4.495   1.011   6.547 -1.1462  1.7275 -0.2663
  117MOL   C11223544   4.504   0.805   6.609  0.2086 -0.0689  0.1073
  117MOL   C11323545   4.425   0.746   6.492 -0.0514 -0.5895  0.4546
  117MOL  Cl11423546   4.499   0.765   6.345  0.0479  0.2893 -0.3776
  117MOL   C11523547   4.306   0.684   6.494  0.3979  0.2282 -0.4894
  117MOL   C11623548   4.218   0.664   6.614  0.1552  0.0872 -0.2299
  117MOL   H11723549   4.612   0.797   6.593 -0.0884 -1.6560 -1.1951
  117MOL   H11823550   4.476   0.743   6.694  1.2614  0.4134  0.8196
  117MOL   H11923551   4.272   0.648   6.398  1.0474  1.5905 -1.2327
  117MOL   H12023552   4.251   0.723   6.699 -0.9496  0.1893  0.1418
  117MOL   H12123553   4.228   0.563   6.652  0.6588  0.9775  2.0731
  117MOL   C12223554   4.068   0.684   6.584  0.6790  0.5229  0.2432
  117MOL   C12323555   3.971   0.635   6.691  0.5117  0.2007 -0.2408
  117MOL  Cl12423556   3.971   0.465   6.695  0.2269  0.4536  0.3437
  117MOL   C12523557   3.906   0.714   6.778  0.5749 -0.7673  0.1639
  117MOL   C12623558   3.915   0.861   6.776  0.3965 -0.3304 -0.2632
  117MOL   H12723559   4.059   0.786   6.546 -2.1302  0.2124 -0.0131
  117MOL   H12823560   4.045   0.612   6.505 -3.3584  2.1566 -0.1749
  117MOL   H12923561   3.841   0.673   6.854  1.4785  0.9129  1.8758
  117MOL   H13023562   3.918   0.876   6.884  0.9988  0.0924 -0.3345
  117MOL   H13123563   4.010   0.898   6.736 -0.4896  1.1189 -1.0535
  117MOL   C13223564   3.795   0.929   6.714  0.1945  1.3819 -0.0780
  117MOL   C13323565   3.777   1.085   6.729 -0.0620  0.0633 -0.1375
  117MOL  Cl13423566   3.919   1.177   6.712 -0.1416  0.1479 -0.1841
  117MOL   C13523567   3.662   1.148   6.759 -0.1090  0.0398 -0.6865
  117MOL   C13623568   3.526   1.078   6.759  0.5895 -0.2205 -0.7287
  117MOL   H13723569   3.782   0.898   6.611 -0.0670 -0.4059  0.4723
  117MOL   H13823570   3.710   0.882   6.762  2.5882 -1.5742  1.4612
  117MOL   H13923571   3.670   1.254   6.774  1.0110 -0.0748 -0.4169
  117MOL   H14023572   3.459   1.121   6.685 -0.3439 -0.6434 -0.1391
  117MOL   H14123573   3.525   0.972   6.733  1.1859  0.0805 -2.0061
  117MOL   C14223574   3.463   1.085   6.899  0.5026 -0.2612 -0.3706
  117MOL   C14323575   3.484   0.965   6.984  0.3855  0.3933  0.3470
  117MOL  Cl14423576   3.616   0.981   7.093  0.1103  0.1362  0.0451
  117MOL   C14523577   3.419   0.851   6.964  0.5233  0.0353  0.7254
  117MOL   C14623578   3.437   0.723   7.034 -0.2732  0.4724  0.0477
  117MOL   H14723579   3.355   1.104   6.896  0.7256  1.7461  2.5087
  117MOL   H14823580   3.504   1.176   6.941 -1.7868  1.1510 -1.0602
  117MOL   H14923581   3.346   0.852   6.884  1.5302 -0.6309 -0.2189
  117MOL   H15023582   3.492   0.667   6.959  0.4172  1.4745 -0.1877
  117MOL   H15123583   3.514   0.738   7.109  0.5733 -2.6440 -0.1328
  117MOL   C15223584   3.307   0.658   7.076  0.3250 -0.9015 -0.0246
  117MOL   C15323585   3.312   0.539   7.171  0.2124 -0.6725 -0.3336
  117MOL  Cl15423586   3.152   0.496   7.231 -0.4088 -0.1885 -0.1687
  117MOL   C15523587   3.422   0.472   7.206 -0.3457  0.3299 -0.4473
  117MOL   C15623588   3.428   0.357   7.315  0.5472  0.6876  0.3253
  117MOL   H15723589   3.242   0.734   7.119 -0.8000 -2.0988  0.4162
  117MOL   H15823590   3.257   0.622   6.986 -0.6961 -1.8658  0.9168
  117MOL   H15923591   3.513   0.484   7.150  0.3084 -0.7407  0.3503
  117MOL   H16023592   3.450   0.259   7.272  1.1352  0.5739  0.8787
  117MOL   H16123593   3.330   0.348   7.360  0.1274 -0.4425 -0.7884
  117MOL   C16223594   3.538   0.393   7.420 -0.6725 -1.0064  0.2830
  117MOL   C16323595   3.674   0.428   7.363  0.6014 -0.6096 -0.8207
  117MOL  Cl16423596   3.771   0.285   7.310 -0.0510  0.0585 -0.0491
  117MOL   C16523597   3.719   0.557   7.352  0.4744  0.0807  0.2023
  117MOL   C16623598   3.858   0.597   7.311  0.1954  0.2285 -0.3870
  117MOL   H16723599   3.495   0.479   7.471 -2.6792 -1.8193  0.0519
  117MOL   H16823600   3.544   0.323   7.503  0.2568  0.9062  1.8555
  117MOL   H16923601   3.649   0.636   7.374  0.6931  0.1587  0.6233
  117MOL   H17023602   3.909   0.639   7.398  2.5300 -2.4758 -0.4103
  117MOL   H17123603   3.908   0.507   7.278 -0.3380 -0.1442 -0.1849
  117MOL   C17223604   3.861   0.695   7.197 -0.4666  0.0061  0.0433
  117MOL   C17323605   3.996   0.751   7.151  0.3432  0.0371  0.0933
  117MOL  Cl17423606   4.006   0.925   7.131 -0.1653 -0.2484 -0.9551
  117MOL   C17523607   4.107   0.674   7.127  0.2715  0.2020 -1.0742
  117MOL   C17623608   4.246   0.715   7.069  0.2054  0.1093  0.1761
  117MOL   H17723609   3.798   0.778   7.230  0.2178  1.5451 -2.3923
  117MOL   H17823610   3.818   0.646   7.110  1.2247 -0.9569 -0.2747
  117MOL   H17923611   4.090   0.569   7.147  1.5809  0.1494 -0.1880
  117MOL   H18023612   4.266   0.821   7.074 -1.8129  0.5274  0.0871
  117MOL   H18123613   4.241   0.686   6.964 -3.7942  3.4004 -0.6941
  117MOL   C18223614   4.357   0.641   7.134 -0.0641 -0.6408 -0.3963
  117MOL   C18323615   4.499   0.691   7.107 -0.6051 -0.1223  0.3772
  117MOL  Cl18423616   4.538   0.839   7.172 -0.0601 -0.5799 -0.0051
  117MOL   C18523617   4.585   0.615   7.026  0.3287 -0.8325 -0.1079
  117MOL   C18623618   4.726   0.654   6.986 -0.7419  0.0906  0.4352
  117MOL   H18723619   4.348   0.651   7.243  1.1512 -0.5789 -0.2964
  117MOL   H18823620   4.346   0.536   7.108  0.7839 -0.2912 -2.1971
  117MOL   H18923621   4.543   0.522   6.993  2.4793 -1.0979 -2.2162
  117MOL   H19023622   4.735   0.646   6.877 -2.2874  1.1654  0.2106
  117MOL   H19123623   4.729   0.762   7.002  0.7192  0.2308 -0.6305
  117MOL   C19223624   4.838   0.574   7.056  0.8883  0.2584  0.4612
  117MOL   C19323625   4.978   0.625   7.034 -0.1318 -0.6203 -0.3076
  117MOL  Cl19423626   4.987   0.768   6.927 -0.0022  0.1097  0.4740
  117MOL   C19523627   5.087   0.573   7.091 -0.5064  0.1504  0.1027
  117MOL   C19623628   5.080   0.444   7.176 -0.2791 -0.1740 -0.2255
  117MOL   H19723629   4.837   0.473   7.016  0.2735  0.2282  0.5435
  117MOL   H19823630   4.811   0.584   7.162 -1.2181 -0.4011  0.0143
  117MOL   H19923631   5.183   0.618   7.073  0.2902 -0.7278  1.9874
  117MOL   H20023632   5.105   0.353   7.122  1.6554  1.8455 -2.8758
  117MOL   H20123633   4.992   0.419   7.234  0.5281 -0.2571  0.9913
  117MOL   H20223634   5.161   0.449   7.250 -1.7680  0.2308  1.4088
  118MOL     C123635   1.460   3.566   3.825  0.1269 -0.2262 -0.0111
  118MOL     C223636   1.600   3.549   3.779  0.3498  0.0470  0.2019
  118MOL    Cl323637   1.682   3.686   3.720 -0.3243  0.1526  0.1734
  118MOL     C423638   1.669   3.438   3.793  0.6306  0.3830 -0.5044
  118MOL     C523639   1.612   3.306   3.846 -0.6097 -0.0597 -0.0416
  118MOL     H623640   1.430   3.671   3.822 -1.0552 -0.5110  1.3773
  118MOL     H723641   1.443   3.522   3.924 -2.3855  0.1077 -0.2773
  118MOL     H823642   1.770   3.439   3.757  0.7504  3.5539 -0.1465
  118MOL     H923643   1.628   3.298   3.953 -1.4713  1.0575  0.1793
  118MOL    H1023644   1.505   3.292   3.838 -0.6519 -0.8488  1.6784
  118MOL    H1123645   1.397   3.509   3.757  2.5461 -2.3420 -0.5568
  118MOL    C1223646   1.685   3.190   3.790  0.0163  0.1593 -0.4956
  118MOL    C1323647   1.626   3.059   3.828  0.5075 -0.6698  0.3386
  118MOL   Cl1423648   1.503   3.002   3.714  0.4478  0.0025 -0.6358
  118MOL    C1523649   1.664   2.985   3.931 -0.5898  0.1998  0.2705
  118MOL    C1623650   1.774   3.016   4.035  0.5355  0.8516 -0.8822
  118MOL    H1723651   1.700   3.182   3.682  1.8928 -1.2123 -0.1619
  118MOL    H1823652   1.788   3.193   3.827  0.0998 -1.6497 -0.5345
  118MOL    H1923653   1.606   2.894   3.943 -1.9769  0.7605 -1.7730
  118MOL    H2023654   1.840   3.095   3.999  0.6352  0.8545 -0.6954
  118MOL    H2123655   1.723   3.081   4.106 -1.1014 -0.7977 -0.5358
  118MOL    C2223656   1.841   2.902   4.114 -0.2772  0.0810  0.3014
  118MOL    C2323657   1.750   2.780   4.139  0.1710 -0.2310  0.1316
  118MOL   Cl2423658   1.816   2.627   4.077 -0.3715 -0.0819 -0.0696
  118MOL    C2523659   1.630   2.789   4.196 -0.1190 -0.1576 -0.0140
  118MOL    C2623660   1.533   2.671   4.210 -0.3325 -0.0325  0.3131
  118MOL    H2723661   1.935   2.875   4.067 -0.3511 -0.5548  0.5093
  118MOL    H2823662   1.876   2.942   4.209  0.5800  2.4387 -0.9663
  118MOL    H2923663   1.580   2.877   4.233  1.8161  0.9967 -0.0696
  118MOL    H3023664   1.594   2.583   4.233 -0.4210 -0.0574  0.4532
  118MOL    H3123665   1.461   2.687   4.290 -0.5159 -1.8492  0.5496
  118MOL    C3223666   1.439   2.659   4.085 -0.0322 -1.4518 -0.1724
  118MOL    C3323667   1.354   2.531   4.101  0.1281  0.0007  0.1050
  118MOL   Cl3423668   1.439   2.397   4.047  0.1713 -0.7197 -0.2292
  118MOL    C3523669   1.222   2.534   4.126  0.1088  0.8645  0.0451
  118MOL    C3623670   1.129   2.408   4.123 -0.0726 -0.2345 -0.6402
  118MOL    H3723671   1.362   2.736   4.077 -1.0508 -2.4207  0.1039
  118MOL    H3823672   1.496   2.650   3.993 -1.4188 -3.1729 -0.8903
  118MOL    H3923673   1.165   2.624   4.145 -3.7860 -1.4820  0.0506
  118MOL    H4023674   1.057   2.423   4.043  0.6561  1.2920 -1.0218
  118MOL    H4123675   1.191   2.318   4.114  0.3008 -0.1953  1.2887
  118MOL    C4223676   1.046   2.381   4.250  0.1218  0.1937 -0.0514
  118MOL    C4323677   0.957   2.501   4.288  0.9898  0.7187  0.5964
  118MOL   Cl4423678   0.996   2.555   4.442 -0.1064 -0.0948 -0.4155
  118MOL    C4523679   0.862   2.563   4.216 -0.1659 -0.5231  0.1357
  118MOL    C4623680   0.792   2.530   4.083 -0.0251  0.0742  0.4306
  118MOL    H4723681   0.981   2.295   4.237  2.5354 -2.0700  2.2534
  118MOL    H4823682   1.112   2.356   4.333 -0.0999 -2.0800 -0.5366
  118MOL    H4923683   0.818   2.650   4.264  0.9386  0.0431  0.1277
  118MOL    H5023684   0.812   2.614   4.017  1.6846  1.5988  2.8379
  118MOL    H5123685   0.824   2.442   4.027 -0.2973  0.3204 -0.1171
  118MOL    C5223686   0.646   2.518   4.110 -0.5827 -0.0372  0.0132
  118MOL    C5323687   0.566   2.476   3.984  0.0406 -0.2555 -0.1399
  118MOL   Cl5423688   0.422   2.393   4.020  0.1433  0.0129  0.2130
  118MOL    C5523689   0.612   2.509   3.861  0.3017  0.0837 -0.1388
  118MOL    C5623690   0.520   2.477   3.738 -0.1944 -0.5672 -0.0034
  118MOL    H5723691   0.629   2.451   4.194 -0.4216 -0.4763 -0.3058
  118MOL    H5823692   0.600   2.611   4.146 -2.1928 -0.3804 -1.0942
  118MOL    H5923693   0.710   2.548   3.839 -0.0409 -0.2352 -2.3233
  118MOL    H6023694   0.418   2.456   3.770 -0.6154 -2.0749 -2.1896
  118MOL    H6123695   0.525   2.560   3.668  0.7716 -1.1676 -0.6707
  118MOL    C6223696   0.562   2.340   3.673 -0.4007  0.1821  0.6500
  118MOL    C6323697   0.452   2.272   3.599 -0.0601 -0.1390 -0.0619
  118MOL   Cl6423698   0.491   2.272   3.438  0.1368 -0.0509 -0.1335
  118MOL    C6523699   0.345   2.208   3.653  0.0479 -0.2009 -0.2159
  118MOL    C6623700   0.237   2.148   3.565  0.3417  0.4271  1.0498
  118MOL    H6723701   0.650   2.355   3.610 -1.6710 -1.9671 -1.7127
  118MOL    H6823702   0.583   2.274   3.758  1.9211 -0.3748 -0.3077
  118MOL    H6923703   0.337   2.197   3.760 -1.2914  0.2247 -0.2612
  118MOL    H7023704   0.209   2.048   3.599 -0.5562 -0.0597 -1.0530
  118MOL    H7123705   0.265   2.144   3.460 -0.9285  2.4380  0.6101
  118MOL    C7223706   0.108   2.234   3.586 -0.3110 -0.7032  0.5328
  118MOL    C7323707   8.418   2.189   3.498 -0.0203 -0.1271 -0.1180
  118MOL   Cl7423708   0.043   2.227   3.334  0.0150 -0.3242  0.0803
  118MOL    C7523709   8.294   2.142   3.539  0.5148  0.3110 -0.2902
  118MOL    C7623710   8.169   2.112   3.457 -0.0109 -0.0976 -0.0571
  118MOL    H7723711   0.124   2.340   3.565 -1.4036 -0.8966 -1.4064
  118MOL    H7823712   0.082   2.222   3.691 -0.3472 -1.1149  0.4778
  118MOL    H7923713   8.286   2.121   3.644  0.1737  0.2803 -0.3235
  118MOL    H8023714   8.158   2.005   3.440  1.7625 -0.5321  1.3765
  118MOL    H8123715   8.179   2.151   3.355 -1.9875  1.6562  0.4004
  118MOL    C8223716   8.047   2.167   3.523  0.7507 -0.5302  0.4607
  118MOL    C8323717   7.924   2.171   3.430  0.1482  0.2465 -0.7059
  118MOL   Cl8423718   7.837   2.018   3.434 -0.3792  0.2917 -0.2983
  118MOL    C8523719   7.896   2.272   3.345 -0.6702  0.3499  0.2468
  118MOL    C8623720   7.777   2.281   3.255  0.0664  0.3772  0.1193
  118MOL    H8723721   8.067   2.268   3.559  0.3873  0.0215 -0.8563
  118MOL    H8823722   8.015   2.119   3.616  1.1171  0.4683  1.1054
  118MOL    H8923723   7.964   2.355   3.337 -2.6914  1.7949 -3.0041
  118MOL    H9023724   7.714   2.193   3.268 -0.7196  1.2061  2.0371
  118MOL    H9123725   7.721   2.362   3.301 -2.6791 -2.0279  1.2282
  118MOL    C9223726   7.805   2.312   3.102  0.6892  0.3805 -0.0593
  118MOL    C9323727   7.691   2.390   3.031  0.2323  0.1156  0.2338
  118MOL   Cl9423728   7.594   2.284   2.936 -0.1898  0.2104  0.5047
  118MOL    C9523729   7.656   2.519   3.040  0.1835  0.4751 -0.5214
  118MOL    C9623730   7.727   2.625   3.126 -0.0407  0.8626  0.5070
  118MOL    H9723731   7.838   2.226   3.043  1.5352 -0.8459  2.1351
  118MOL    H9823732   7.890   2.376   3.082 -0.8764  2.1880 -1.1383
  118MOL    H9923733   7.568   2.550   2.986  1.7784  4.4059 -1.0299
  118MOL   H10023734   7.646   2.672   3.183  0.7227  0.3302  2.0825
  118MOL   H10123735   7.794   2.570   3.193 -0.6585  1.2605  1.4706
  118MOL   C10223736   7.805   2.721   3.036  0.6495  0.5143 -0.4401
  118MOL   C10323737   7.884   2.828   3.108 -0.2740  0.6953 -0.1896
  118MOL  Cl10423738   8.035   2.854   3.037 -0.0756 -0.1356 -0.3099
  118MOL   C10523739   7.843   2.913   3.205  0.8918 -0.4968  0.6328
  118MOL   C10623740   7.933   3.011   3.273  0.3434 -0.2187  0.1102
  118MOL   H10723741   7.877   2.666   2.974  0.5903  1.3373 -1.2583
  118MOL   H10823742   7.739   2.784   2.977 -1.0162  1.1506  2.0402
  118MOL   H10923743   7.745   2.907   3.249  0.4095  2.3371  0.0131
  118MOL   H11023744   7.922   2.997   3.380  0.3480 -2.2831 -0.1550
  118MOL   H11123745   8.038   2.988   3.255 -0.2057 -0.4293 -3.0976
  118MOL   C11223746   7.908   3.151   3.244 -0.5347 -0.6978 -0.1118
  118MOL   C11323747   8.008   3.248   3.312 -0.4676  0.1079  0.3619
  118MOL  Cl11423748   7.982   3.263   3.483  0.0817  0.1135 -0.0751
  118MOL   C11523749   8.093   3.332   3.249 -0.9434  0.0890 -0.1320
  118MOL   C11623750   8.113   3.333   3.101 -0.4837 -0.0551  0.5461
  118MOL   H11723751   7.904   3.177   3.139 -1.1036  1.2370  0.3607
  118MOL   H11823752   7.810   3.182   3.280 -0.4044  2.4872 -2.2233
  118MOL   H11923753   8.148   3.402   3.312 -0.7690 -1.9921  2.1135
  118MOL   H12023754   8.022   3.341   3.040  1.2417  3.2417 -1.7654
  118MOL   H12123755   8.158   3.240   3.066 -1.8020  0.1483 -1.8407
  118MOL   C12223756   8.211   3.447   3.069  0.1694 -0.0541 -0.8413
  118MOL   C12323757   8.224   3.476   2.920  0.3380 -0.2991 -0.8635
  118MOL  Cl12423758   8.130   3.612   2.873 -0.3055  0.0019 -0.2744
  118MOL   C12523759   8.290   3.406   2.826 -0.7796 -0.5123 -1.0049
  118MOL   C12623760   8.385   3.289   2.853  0.3853 -0.3164  0.2461
  118MOL   H12723761   8.187   3.541   3.120  3.1443  1.2384 -1.7237
  118MOL   H12823762   8.310   3.418   3.105 -0.9087 -0.5752  1.7976
  118MOL   H12923763   8.286   3.436   2.722 -0.2900  3.6746  0.0739
  118MOL   H13023764   8.356   3.225   2.936  0.3699 -1.4110 -0.5860
  118MOL   H13123765   8.381   3.226   2.765 -2.1156 -0.6204  0.5386
  118MOL   C13223766   0.110   3.328   2.865 -0.2837 -0.4008 -0.4132
  118MOL   C13323767   0.205   3.218   2.912  0.2044  1.0486 -0.0158
  118MOL  Cl13423768   0.287   3.169   2.763  0.2409 -0.2686  0.1803
  118MOL   C13523769   0.246   3.178   3.036  0.4762  0.2279 -0.3067
  118MOL   C13623770   0.178   3.229   3.165  0.1639  0.2731  0.5052
  118MOL   H13723771   0.142   3.377   2.773 -0.7317  1.4458  0.3948
  118MOL   H13823772   0.116   3.411   2.935  3.1597 -2.6976  2.1713
  118MOL   H13923773   0.332   3.113   3.039 -0.0578 -0.4349  0.9275
  118MOL   H14023774   0.251   3.242   3.245 -1.3442 -0.0593  1.9407
  118MOL   H14123775   0.125   3.324   3.164 -0.9880 -0.3562  0.4998
  118MOL   C14223776   0.087   3.125   3.225 -0.3346 -0.2649  0.0740
  118MOL   C14323777   0.028   3.173   3.360  0.0093 -0.4573 -0.5820
  118MOL  Cl14423778   8.293   3.111   3.390 -0.1641  0.1347 -0.4208
  118MOL   C14523779   0.085   3.254   3.458  0.0734  0.2102  0.2691
  118MOL   C14623780   0.011   3.301   3.578 -0.1893  0.2216 -0.0976
  118MOL   H14723781   0.146   3.036   3.245 -0.8656  0.0863  3.5430
  118MOL   H14823782   0.008   3.098   3.155 -1.1472  0.6659  0.6200
  118MOL   H14923783   0.187   3.287   3.448  0.1405  0.2719  1.1279
  118MOL   H15023784   8.326   3.276   3.573 -0.4870  1.7221 -1.4736
  118MOL   H15123785   0.056   3.259   3.668 -0.7614  0.4626  0.3067
  118MOL   C15223786   0.014   3.455   3.599 -0.1084  0.4795  0.1793
  118MOL   C15323787   8.333   3.516   3.692  0.0106 -0.1108  0.0282
  118MOL  Cl15423788   8.194   3.552   3.603 -0.0193  0.2830  0.1391
  118MOL   C15523789   8.349   3.544   3.822 -0.4463  0.1967 -0.1297
  118MOL   C15623790   8.247   3.599   3.917 -0.3609 -0.0512 -0.1508
  118MOL   H15723791   0.112   3.475   3.642 -2.1109  2.5128  4.1274
  118MOL   H15823792   0.022   3.515   3.508  1.3366  0.4238  0.2597
  118MOL   H15923793   0.018   3.524   3.878 -1.3778 -2.3324  0.5592
  118MOL   H16023794   8.170   3.655   3.864  0.3500 -1.6478 -2.9605
  118MOL   H16123795   8.303   3.675   3.972 -0.8915  0.3730 -0.1891
  118MOL   C16223796   8.170   3.497   4.006  0.4089  0.5991 -0.3316
  118MOL   C16323797   8.057   3.575   4.079 -0.0581  0.1443  0.0455
  118MOL  Cl16423798   8.114   3.654   4.222 -0.2643 -0.7071  0.1726
  118MOL   C16523799   7.930   3.561   4.046  0.7202  0.0595 -0.5145
  118MOL   C16623800   7.815   3.623   4.126 -0.0238 -0.5921 -0.1816
  118MOL   H16723801   8.113   3.418   3.956 -1.7715  1.0947  1.3112
  118MOL   H16823802   8.239   3.452   4.078  0.4072 -0.7847 -1.1657
  118MOL   H16923803   7.910   3.505   3.956  2.0481  0.0506 -0.8126
  118MOL   H17023804   7.752   3.547   4.173  3.2557 -2.7945  0.8580
  118MOL   H17123805   7.857   3.677   4.211  2.2799 -1.5867 -0.6362
  118MOL   C17223806   7.736   3.732   4.048 -0.1950 -0.2300 -0.2781
  118MOL   C17323807   7.674   3.692   3.918  0.0664  0.1490  0.5884
  118MOL  Cl17423808   7.517   3.625   3.940 -0.3154  0.1439  0.3905
  118MOL   C17523809   7.743   3.695   3.809 -0.8461  0.3772  0.2772
  118MOL   C17623810   7.699   3.643   3.676 -0.9710  0.2577 -0.3418
  118MOL   H17723811   7.795   3.821   4.027 -1.0210  0.0723 -1.3502
  118MOL   H17823812   7.655   3.777   4.105 -1.8941 -2.4605 -0.8443
  118MOL   H17923813   7.843   3.737   3.810 -1.2546  1.3206  1.4220
  118MOL   H18023814   7.722   3.729   3.613  1.3547  0.3365  0.5462
  118MOL   H18123815   7.592   3.622   3.677 -0.9403 -0.1633 -2.7132
  118MOL   C18223816   7.796   3.543   3.609  0.7379  0.1333  0.3089
  118MOL   C18323817   7.736   3.492   3.476 -0.5053 -0.2006  0.6140
  118MOL  Cl18423818   7.596   3.399   3.503  0.0355  0.3627 -0.1485
  118MOL   C18523819   7.777   3.532   3.351  0.0861  0.1168 -0.2271
  118MOL   C18623820   7.710   3.486   3.217 -0.2974 -0.2187 -0.1444
  118MOL   H18723821   7.894   3.591   3.606  0.2138  1.1796 -0.6275
  118MOL   H18823822   7.807   3.454   3.671  1.2433 -1.1498 -1.5592
  118MOL   H18923823   7.857   3.605   3.347 -0.5901  0.8813 -0.1320
  118MOL   H19023824   7.794   3.449   3.158  0.8811  0.2360  1.2123
  118MOL   H19123825   7.646   3.401   3.242 -1.1741  0.8512  1.3258
  118MOL   C19223826   7.622   3.593   3.163 -0.8155 -0.1175 -0.2487
  118MOL   C19323827   7.560   3.538   3.039  0.1671  0.2412 -0.0024
  118MOL  Cl19423828   7.634   3.606   2.902 -0.0372 -0.0267 -0.0111
  118MOL   C19523829   7.456   3.461   3.030  0.4030  0.3081  0.5335
  118MOL   C19623830   7.357   3.404   3.133 -0.1466  0.3733 -0.3429
  118MOL   H19723831   7.692   3.675   3.146  1.3949 -1.5022  1.9046
  118MOL   H19823832   7.543   3.623   3.232 -0.7135 -2.6275  1.0197
  118MOL   H19923833   7.424   3.431   2.932  2.2978  1.0832 -0.3310
  118MOL   H20023834   7.268   3.467   3.126 -1.2014 -1.1596 -0.9493
  118MOL   H20123835   7.401   3.429   3.229 -0.2385 -0.0339 -0.1967
  118MOL   H20223836   7.341   3.298   3.148  1.6729  0.3572  1.8478
  119MOL     C123837   1.730   0.423   3.163  0.0921  0.2939 -0.1213
  119MOL     C223838   1.620   0.418   3.277  0.4504  0.0226  1.1870
  119MOL    Cl323839   1.519   0.557   3.281  0.1221 -0.0635  0.0039
  119MOL     C423840   1.617   0.312   3.358  0.3920  0.5458  0.2903
  119MOL     C523841   1.710   0.194   3.356  0.3994 -0.1963  0.3293
  119MOL     H623842   1.718   0.515   3.107  0.1807  1.2516  1.4131
  119MOL     H723843   1.745   0.329   3.109 -0.8068  0.4334 -0.6177
  119MOL     H823844   1.540   0.307   3.434 -0.9006 -0.6344 -1.0642
  119MOL     H923845   1.797   0.209   3.292 -0.0178  1.3437  0.1146
  119MOL    H1023846   1.744   0.184   3.459  2.9133 -1.0815 -0.5537
  119MOL    H1123847   1.824   0.444   3.214  0.6384 -0.9886 -0.5744
  119MOL    C1223848   1.636   0.065   3.335  0.0008  0.7635 -0.0752
  119MOL    C1323849   1.718   8.370   3.279 -0.7656 -0.4843  0.1384
  119MOL   Cl1423850   1.720   8.381   3.102 -0.0764  0.0623  0.5183
  119MOL    C1523851   1.797   8.280   3.345  0.4183 -0.4596  0.0654
  119MOL    C1623852   1.808   8.261   3.499  0.5200  0.0918  0.5680
  119MOL    H1723853   1.595   0.036   3.432 -0.3773  0.6901 -0.2548
  119MOL    H1823854   1.553   0.086   3.267 -0.4067  1.8430  0.7466
  119MOL    H1923855   1.845   8.208   3.280  2.4572  0.7447  0.1985
  119MOL    H2023856   1.799   8.362   3.540 -1.0795 -0.6312  2.0782
  119MOL    H2123857   1.723   8.207   3.541  0.2400  1.6688  2.0958
  119MOL    C2223858   1.942   8.198   3.539 -0.3719  0.1778  0.2475
  119MOL    C2323859   1.945   8.146   3.685 -0.1528  0.2838 -0.0779
  119MOL   Cl2423860   2.050   8.242   3.782  0.2882  0.0488  0.1833
  119MOL    C2523861   1.884   8.035   3.728 -0.0449 -0.2313 -0.0589
  119MOL    C2623862   1.907   7.978   3.865  0.1277  0.2996 -0.0880
  119MOL    H2723863   1.960   8.119   3.467  1.8275  0.7468  0.1371
  119MOL    H2823864   2.026   8.267   3.532  0.0402 -0.3919 -0.4708
  119MOL    H2923865   1.819   7.985   3.658  0.5770  1.0157 -1.5563
  119MOL    H3023866   1.957   8.037   3.942  0.4323 -0.7830  0.5555
  119MOL    H3123867   1.809   7.961   3.910  0.5405 -0.9783  0.3756
  119MOL    C3223868   1.982   7.844   3.859 -0.2640 -0.0114  0.3597
  119MOL    C3323869   1.981   7.757   3.977 -0.5043 -0.4506 -0.3964
  119MOL   Cl3423870   1.859   7.633   3.964  0.1046 -0.0307  0.0588
  119MOL    C3523871   2.064   7.780   4.081  0.4501  0.0263  0.1560
  119MOL    C3623872   2.085   7.699   4.201  0.4131 -0.2665  0.3106
  119MOL    H3723873   1.937   7.781   3.782 -2.4294 -0.0466  1.6244
  119MOL    H3823874   2.086   7.865   3.832 -0.1920  0.9654  1.3639
  119MOL    H3923875   2.132   7.863   4.076  2.3052 -1.4155  0.9430
  119MOL    H4023876   2.036   7.603   4.188  1.6000 -0.6325 -1.6986
  119MOL    H4123877   2.192   7.678   4.199  0.6135  0.7979 -2.4499
  119MOL    C4223878   2.042   7.770   4.327  0.0193 -0.2475  0.6411
  119MOL    C4323879   2.068   7.691   4.455 -0.4007  0.1833 -0.3459
  119MOL   Cl4423880   2.223   7.697   4.517 -0.3818  0.3803  0.2985
  119MOL    C4523881   1.973   7.634   4.532  0.6275 -0.1593  0.2661
  119MOL    C4623882   1.829   7.628   4.509  0.6513 -0.5138  0.3868
  119MOL    H4723883   2.111   7.853   4.341  1.1343 -0.7378 -1.7812
  119MOL    H4823884   1.936   7.798   4.320 -0.3665 -1.7486  0.3299
  119MOL    H4923885   2.001   7.580   4.621 -0.4717  1.5842  1.7042
  119MOL    H5023886   1.810   7.724   4.557  1.6545  0.1104 -0.4280
  119MOL    H5123887   1.793   7.639   4.406 -0.2567  2.3382  0.9656
  119MOL    C5223888   1.752   7.501   4.563  0.4789 -1.0566 -0.0712
  119MOL    C5323889   1.603   7.486   4.538 -0.4800  0.3947  0.1875
  119MOL   Cl5423890   1.551   7.321   4.566 -0.1197  0.0034  0.1222
  119MOL    C5523891   1.517   7.582   4.508 -0.4017  0.3003 -0.1374
  119MOL    C5623892   1.371   7.572   4.499  0.3080 -0.4815  0.4659
  119MOL    H5723893   1.786   7.424   4.494 -1.6826  0.8582 -3.4085
  119MOL    H5823894   1.775   7.480   4.667 -0.7900  0.9830  0.6565
  119MOL    H5923895   1.561   7.678   4.488  0.5800  0.1687  1.2530
  119MOL    H6023896   1.337   7.563   4.396  0.3634  0.7010  0.3314
  119MOL    H6123897   1.328   7.487   4.553 -0.0008 -1.3127 -1.0761
  119MOL    C6223898   1.304   7.701   4.562  0.3584 -0.2099  0.1553
  119MOL    C6323899   1.153   7.701   4.568  0.1815  0.2162 -0.7328
  119MOL   Cl6423900   1.087   7.839   4.489 -0.3470  0.0902  0.1596
  119MOL    C6523901   1.081   7.609   4.628  0.7899 -0.6781 -0.2456
  119MOL    C6623902   0.930   7.611   4.628 -0.3475 -0.0353  0.2068
  119MOL    H6723903   1.343   7.713   4.663  2.1666 -0.0266 -0.5471
  119MOL    H6823904   1.334   7.789   4.504  0.6540 -0.2581  0.2341
  119MOL    H6923905   1.125   7.519   4.668 -1.2573 -1.2625  0.7874
  119MOL    H7023906   0.893   7.551   4.545  0.6297 -1.9183  1.0951
  119MOL    H7123907   0.892   7.713   4.619 -0.4950 -0.1715 -0.8237
  119MOL    C7223908   0.875   7.547   4.760 -0.6573  0.0814  0.0538
  119MOL    C7323909   0.724   7.555   4.779 -0.3981  0.2048 -0.1055
  119MOL   Cl7423910   0.638   7.423   4.714 -0.0420  0.0288  0.2875
  119MOL    C7523911   0.668   7.665   4.832  0.0385  0.0258 -0.5207
  119MOL    C7623912   0.519   7.701   4.849 -0.6285  0.1750  0.7442
  119MOL    H7723913   0.917   7.608   4.839 -0.5943  0.9891 -0.6682
  119MOL    H7823914   0.912   7.446   4.780  0.8337  0.8245  1.1150
  119MOL    H7923915   0.731   7.743   4.870  1.1769 -0.5582 -1.2014
  119MOL    H8023916   0.495   7.678   4.953  1.6281 -1.2276  0.9909
  119MOL    H8123917   0.459   7.622   4.803 -0.1384 -0.0452  0.4831
  119MOL    C8223918   0.467   7.844   4.816  0.0222 -0.2758  0.1481
  119MOL    C8323919   0.322   7.868   4.862  0.1980  0.0538 -0.3323
  119MOL   Cl8423920   0.204   7.831   4.743 -0.0986 -0.0951 -0.1264
  119MOL    C8523921   0.292   7.902   4.989  0.0641 -0.2506 -0.2278
  119MOL    C8623922   0.159   7.922   5.049 -0.9208 -0.3916  0.1373
  119MOL    H8723923   0.472   7.855   4.707 -0.7523  1.2532  0.2465
  119MOL    H8823924   0.525   7.924   4.862  0.6845 -1.4052  1.3009
  119MOL    H8923925   0.371   7.919   5.060 -1.1174 -1.9449  1.5334
  119MOL    H9023926   0.080   7.927   4.974  1.5533 -2.1137 -2.6516
  119MOL    H9123927   0.142   7.838   5.117  1.7251  1.1256  2.7790
  119MOL    C9223928   0.152   8.056   5.130  0.0247 -0.6188 -0.6844
  119MOL    C9323929   0.024   8.056   5.213 -0.2710  0.0388 -0.6702
  119MOL   Cl9423930   8.302   8.077   5.123 -0.3055 -0.2351  0.5554
  119MOL    C9523931   0.023   8.038   5.345  0.0883 -0.5570 -0.1832
  119MOL    C9623932   0.139   8.015   5.437  0.0352 -0.0714  0.4457
  119MOL    H9723933   0.164   8.145   5.068 -2.8020 -1.6246 -2.7974
  119MOL    H9823934   0.235   8.068   5.199 -2.4150  3.8364  1.6703
  119MOL    H9923935   8.350   8.038   5.398  0.4023 -1.2386  0.3763
  119MOL   H10023936   0.108   7.930   5.498  1.9452 -1.0176  0.1611
  119MOL   H10123937   0.216   7.967   5.376  0.6584  1.7153 -0.1891
  119MOL   C10223938   0.174   8.135   5.525 -0.3803  0.2357 -0.1652
  119MOL   C10323939   0.062   8.191   5.608 -0.0593  0.2944  0.8106
  119MOL  Cl10423940   0.005   8.085   5.728  0.0772  0.2053  0.4342
  119MOL   C10523941   0.014   8.315   5.599  0.1971  0.2181  0.8803
  119MOL   C10623942   8.327   8.376   5.687  0.8944 -0.1424  0.0716
  119MOL   H10723943   0.252   8.098   5.591 -1.4020 -0.1939  0.8112
  119MOL   H10823944   0.234   8.201   5.463 -0.2042  0.0994 -0.1377
  119MOL   H10923945   0.065   8.372   5.523 -0.3585  1.1656  1.2149
  119MOL   H11023946   8.279   8.301   5.749 -0.5491  0.8253  0.1487
  119MOL   H11123947   8.387   0.027   5.742 -0.6077 -0.4616  2.1676
  119MOL   C11223948   8.211   0.031   5.612  0.0030 -0.2906  0.4403
  119MOL   C11323949   8.083   0.050   5.688  0.2754 -0.1410  0.4694
  119MOL  Cl11423950   7.962   8.351   5.648  0.3319  0.0032  0.2905
  119MOL   C11523951   8.055   0.155   5.760  0.4437  0.0596  0.5119
  119MOL   C11623952   8.148   0.265   5.806  0.3742 -0.1026  0.3900
  119MOL   H11723953   8.245   0.113   5.548  0.9395 -0.6994  0.4048
  119MOL   H11823954   8.182   8.376   5.539 -0.6007  0.9889 -0.6731
  119MOL   H11923955   7.958   0.171   5.805 -0.2699 -3.1041  0.2198
  119MOL   H12023956   8.118   0.361   5.763 -1.3274 -0.9487 -0.3793
  119MOL   H12123957   8.246   0.235   5.767 -0.5587 -2.0594 -0.5540
  119MOL   C12223958   8.172   0.279   5.956  0.1334  0.3987  0.6531
  119MOL   C12323959   8.053   0.324   6.039 -0.0415 -0.0663 -0.3785
  119MOL  Cl12423960   8.040   0.497   6.043  0.0158  0.0107 -0.0309
  119MOL   C12523961   7.968   0.244   6.108  0.0293  0.7771 -0.1835
  119MOL   C12623962   7.980   0.098   6.129 -0.1976 -0.0764 -0.1881
  119MOL   H12723963   8.215   0.186   5.994 -0.1196  0.1603  0.3606
  119MOL   H12823964   8.249   0.352   5.979  0.4101  0.0154  0.9559
  119MOL   H12923965   7.887   0.286   6.166  1.2384  2.2748  0.4655
  119MOL   H13023966   7.891   0.041   6.104 -1.4290  0.1976  3.1807
  119MOL   H13123967   8.052   0.045   6.068  0.7786 -0.0896  0.9613
  119MOL   C13223968   7.992   0.065   6.287  0.2764 -0.3880 -0.4642
  119MOL   C13323969   8.136   0.073   6.336  0.2678  0.1621 -0.5181
  119MOL  Cl13423970   8.167   0.225   6.407  0.4721  0.3005 -0.4552
  119MOL   C13523971   8.232   8.396   6.341 -0.3835  0.2748 -0.2922
  119MOL   C13623972   8.222   8.257   6.278 -0.3508 -0.2187  0.5900
  119MOL   H13723973   7.913   0.103   6.351  0.8986  0.0120  0.0737
  119MOL   H13823974   7.975   8.379   6.292 -0.2774 -0.2807 -0.0563
  119MOL   H13923975   8.321   0.000   6.396 -2.1241  1.1030  2.2334
  119MOL   H14023976   8.277   8.186   6.340  0.2776 -1.5483 -1.4106
  119MOL   H14123977   8.119   8.229   6.296 -0.9233  1.6903  0.4376
  119MOL   C14223978   8.265   8.248   6.130  0.2636 -0.4856 -0.1563
  119MOL   C14323979   8.221   8.121   6.053 -0.2512  0.5589 -0.5072
  119MOL  Cl14423980   8.080   8.157   5.955  0.1155  0.2939  0.2366
  119MOL   C14523981   8.274   7.997   6.055 -0.4203  0.4876  0.2042
  119MOL   C14623982   8.239   7.872   5.977  0.0805 -0.2284  0.4577
  119MOL   H14723983   8.372   8.264   6.115  0.7319 -0.3469  2.9405
  119MOL   H14823984   8.212   8.333   6.088 -2.9390 -2.2627  0.1533
  119MOL   H14923985   8.355   7.997   6.127 -0.1191 -3.0272 -0.0475
  119MOL   H15023986   8.133   7.875   5.948 -0.5359 -2.6510  2.2980
  119MOL   H15123987   8.303   7.868   5.889 -0.4059 -2.5545  0.1786
  119MOL   C15223988   8.271   7.748   6.065 -0.9423  0.4661  0.4157
  119MOL   C15323989   8.220   7.618   6.006  0.1680 -0.3349 -0.6622
  119MOL  Cl15423990   8.351   7.532   5.924 -0.2325  0.0690 -0.0293
  119MOL   C15523991   8.098   7.567   6.017  0.2472  0.7997  0.2736
  119MOL   C15623992   8.043   7.433   5.963 -0.6113  0.4497 -0.4262
  119MOL   H15723993   8.378   7.739   6.082 -0.8311  1.9086  0.5211
  119MOL   H15823994   8.229   7.759   6.165 -0.7084 -0.7333  0.6489
  119MOL   H15923995   8.027   7.623   6.076 -0.0111 -0.0698  0.7922
  119MOL   H16023996   8.114   7.402   5.886  0.0316 -0.0183  0.3473
  119MOL   H16123997   7.945   7.460   5.925 -0.4314  0.3075 -0.9839
  119MOL   C16223998   8.033   7.330   6.075  0.4641  0.8348 -0.1635
  119MOL   C16323999   7.995   7.193   6.028  0.1059  0.2448 -0.1779
  119MOL  Cl16424000   7.845   7.191   5.947  0.0032 -0.1921 -0.0957
  119MOL   C16524001   8.069   7.085   6.040 -1.0310 -0.5251 -0.0536
  119MOL   C16624002   8.025   6.953   5.982 -0.4904  0.1397 -0.2739
  119MOL   H16724003   8.120   7.316   6.139 -0.2598  1.6714  1.0086
  119MOL   H16824004   7.957   7.366   6.144  0.8993  1.8261 -0.1818
  119MOL   H16924005   8.160   7.097   6.096 -1.0682  1.2586 -0.3536
  119MOL   H17024006   7.957   6.902   6.050  1.8126  0.5763  2.4842
  119MOL   H17124007   7.961   6.973   5.897  0.6780  0.0716 -1.1778
  119MOL   C17224008   8.137   6.867   5.934 -0.7604 -0.5730  0.5304
  119MOL   C17324009   8.234   6.823   6.050 -0.1676  0.1156  0.3313
  119MOL  Cl17424010   8.181   6.670   6.114 -0.1249 -0.1319  0.0459
  119MOL   C17524011   8.347   6.884   6.096 -1.4613  0.0360 -0.5433
  119MOL   C17624012   0.021   6.834   6.195 -0.6707  0.1643 -0.2107
  119MOL   H17724013   8.196   6.923   5.862 -0.6358  0.8152  1.6820
  119MOL   H17824014   8.104   6.777   5.882 -2.4852 -0.8896  2.1190
  119MOL   H17924015   8.371   6.982   6.057  3.7517 -0.7623  0.2965
  119MOL   H18024016   0.095   6.771   6.145 -1.5248 -1.0668  0.0621
  119MOL   H18124017   8.380   6.777   6.264 -1.6621 -0.7239 -1.8070
  119MOL   C18224018   0.099   6.951   6.262 -0.0502  0.0118 -0.0029
  119MOL   C18324019   0.224   6.920   6.344  0.3276  0.2369 -0.5678
  119MOL  Cl18424020   0.307   7.063   6.377  0.0037 -0.1693  0.2534
  119MOL   C18524021   0.268   6.800   6.377  0.2058  0.4704 -0.2775
  119MOL   C18624022   0.394   6.765   6.454  0.4511 -0.8591 -0.3911
  119MOL   H18724023   0.137   7.021   6.187  1.3890 -0.8893 -0.1446
  119MOL   H18824024   0.038   7.012   6.328  0.8867 -0.2851  1.1617
  119MOL   H18924025   0.215   6.709   6.354  0.7441  0.2539 -0.6538
  119MOL   H19024026   0.451   6.852   6.486 -0.8360 -0.2309  0.2248
  119MOL   H19124027   0.363   6.709   6.543 -1.6877 -0.2643 -0.7497
  119MOL   C19224028   0.488   6.668   6.378 -0.1943  0.1793  0.0976
  119MOL   C19324029   0.559   6.728   6.256  0.2264  0.3810 -0.1592
  119MOL  Cl19424030   0.457   6.727   6.122 -0.0654  0.4754 -0.4288
  119MOL   C19524031   0.679   6.774   6.253  0.2201  0.2077  0.6096
  119MOL   C19624032   0.770   6.776   6.369  0.0214 -0.2617  0.1907
  119MOL   H19724033   0.437   6.577   6.346 -2.1753  0.8744  1.1785
  119MOL   H19824034   0.563   6.631   6.448 -1.9610  1.9627  3.0256
  119MOL   H19924035   0.718   6.822   6.164 -3.0788  1.3611 -0.2706
  119MOL   H20024036   0.815   6.677   6.377 -0.7956 -0.6648 -0.1320
  119MOL   H20124037   0.729   6.797   6.468  1.1672 -0.0732  0.6412
  119MOL   H20224038   0.854   6.843   6.349 -0.7170  0.7718  0.5235
  120MOL     C124039   2.609   1.891   7.754  0.1763  0.0128  0.0332
  120MOL     C224040   2.618   1.865   7.903 -0.7938 -0.2556 -0.1182
  120MOL    Cl324041   2.549   1.713   7.956  0.0131 -0.2269  0.1678
  120MOL     C424042   2.665   1.957   7.985 -0.3852  0.0551  0.0646
  120MOL     C524043   2.730   2.089   7.949  0.2215  0.1821 -0.2460
  120MOL     H624044   2.578   1.992   7.727 -1.2592 -0.2393  0.6731
  120MOL     H724045   2.542   1.817   7.711 -0.9713  1.8268 -1.4091
  120MOL     H824046   2.649   1.934   8.089  0.0119 -3.1770 -0.5227
  120MOL     H924047   2.761   2.097   7.845 -3.7971 -0.8362 -1.6284
  120MOL    H1024048   2.650   2.163   7.959 -1.0620 -1.1181 -0.7200
  120MOL    H1124049   2.707   1.899   7.707  1.0037 -0.7622  1.5944
  120MOL    C1224050   2.846   2.116   8.043 -0.3249  0.3838 -0.2159
  120MOL    C1324051   2.903   2.258   8.020 -0.7492  0.9815 -0.2768
  120MOL   Cl1424052   2.872   2.359   8.156  0.3487  0.1214  0.1983
  120MOL    C1524053   2.977   2.293   7.913  0.1259  0.1757 -0.5623
  120MOL    C1624054   3.015   2.205   7.794 -0.0234  0.6911  0.0271
  120MOL    H1724055   2.809   2.109   8.145 -0.8598 -0.4346 -0.4571
  120MOL    H1824056   2.927   2.045   8.028  1.6403  2.6356 -0.5229
  120MOL    H1924057   3.014   2.394   7.912  2.2964 -0.5981  0.2792
  120MOL    H2024058   3.067   2.121   7.840  0.4546  0.0591 -1.6166
  120MOL    H2124059   2.923   2.169   7.748 -0.3307  3.7697 -1.9166
  120MOL    C2224060   3.097   2.271   7.678  0.4684 -0.1057 -0.7361
  120MOL    C2324061   3.248   2.238   7.691 -0.0915  0.1255  0.0918
  120MOL   Cl2424062   3.320   2.173   7.544 -0.2878  0.4398  0.3461
  120MOL    C2524063   3.323   2.254   7.804  0.3248  1.1133  1.0024
  120MOL    C2624064   3.470   2.227   7.812  0.0688 -0.4211 -0.4980
  120MOL    H2724065   3.067   2.220   7.586 -1.1313 -0.2416 -0.1599
  120MOL    H2824066   3.082   2.376   7.653 -1.7651  0.2870  2.0384
  120MOL    H2924067   3.296   2.299   7.899  1.0354  0.1644  1.6572
  120MOL    H3024068   3.511   2.211   7.712 -2.6312 -1.3256 -1.4912
  120MOL    H3124069   3.525   2.312   7.852  0.5847  0.2109 -2.4888
  120MOL    C3224070   3.499   2.106   7.902 -0.8345  0.0980  0.1140
  120MOL    C3324071   3.649   2.078   7.917 -0.6765  0.2679 -0.0878
  120MOL   Cl3424072   3.727   2.203   8.007 -0.1244 -0.1026  0.1839
  120MOL    C3524073   3.715   1.960   7.890  0.2781 -0.0646  0.0112
  120MOL    C3624074   3.864   1.927   7.914  0.9248  0.4728 -0.6588
  120MOL    H3724075   3.449   2.112   7.999 -0.1190 -1.5514  0.6040
  120MOL    H3824076   3.456   2.019   7.853 -1.1711 -1.6056  3.3351
  120MOL    H3924077   3.657   1.877   7.851 -1.5278  2.0270 -1.9544
  120MOL    H4024078   3.897   1.915   7.811  0.4443  2.2506 -1.0326
  120MOL    H4124079   3.912   2.012   7.963  1.5412 -0.6044  0.6459
  120MOL    C4224080   3.884   1.799   7.999  0.3115  0.5712  0.0169
  120MOL    C4324081   4.025   1.792   8.044  0.7083  0.6105 -0.6407
  120MOL   Cl4424082   4.109   1.662   7.966  0.0752  0.1814 -0.1851
  120MOL    C4524083   4.090   1.869   8.130 -0.0578 -0.3001 -0.0576
  120MOL    C4624084   4.028   1.974   8.211  0.7443 -0.4755 -0.6092
  120MOL    H4724085   3.824   1.801   8.090  0.3965 -2.0967  0.1643
  120MOL    H4824086   3.856   1.704   7.952  2.0907 -0.6366  1.3406
  120MOL    H4924087   4.195   1.859   8.154 -0.3339  0.9384  1.7709
  120MOL    H5024088   4.091   2.062   8.209  1.9552 -1.3486 -1.2636
  120MOL    H5124089   3.935   2.008   8.164  1.4149 -0.3763 -1.8762
  120MOL    C5224090   3.995   1.938   8.356 -0.1714 -0.0328  0.5106
  120MOL    C5324091   3.936   2.044   0.033 -0.3010 -0.0037 -0.5345
  120MOL   Cl5424092   3.954   1.987   0.197  0.4820 -0.0896  0.1530
  120MOL    C5524093   3.874   2.153   8.419  0.2134  0.2565 -0.1846
  120MOL    C5624094   3.807   2.258   0.090 -0.5697  0.1710  0.2471
  120MOL    H5724095   3.919   1.861   8.345  0.7460 -0.7005 -1.4831
  120MOL    H5824096   4.080   1.886   8.401 -0.0082  0.2378  0.5192
  120MOL    H5924097   3.866   2.175   8.314  1.1828 -1.4237 -0.6264
  120MOL    H6024098   3.810   2.237   0.197 -0.4091 -1.7049 -0.1046
  120MOL    H6124099   3.855   2.356   0.091 -0.8785  0.3182  0.8703
  120MOL    C6224100   3.665   2.282   0.051 -0.2158 -0.4833 -0.1250
  120MOL    C6324101   3.605   2.407   0.112  0.1139 -0.4413  0.3515
  120MOL   Cl6424102   3.483   2.362   0.224 -0.1878 -0.3908  0.3962
  120MOL    C6524103   3.650   2.533   0.091 -0.7211 -0.7831 -0.3050
  120MOL    C6624104   3.609   2.650   0.168 -0.2640 -0.0032  0.0999
  120MOL    H6724105   3.658   2.299   8.364  0.1768 -2.5903 -0.5009
  120MOL    H6824106   3.602   2.195   0.073 -3.5620  1.5837 -1.2151
  120MOL    H6924107   3.731   2.557   0.023  0.7869  0.4953  1.9003
  120MOL    H7024108   3.706   2.689   0.199 -0.6699  1.0752  0.0327
  120MOL    H7124109   3.558   2.630   0.262  0.0294  0.7192  0.4186
  120MOL    C7224110   3.539   2.760   0.074  0.1740  0.2752 -0.6116
  120MOL    C7324111   3.514   2.899   0.131  0.1634 -0.0406 -0.2531
  120MOL   Cl7424112   3.416   2.987   0.020 -0.1898 -0.1201  0.1561
  120MOL    C7524113   3.543   2.936   0.259 -0.4852 -0.6521  0.4619
  120MOL    C7624114   3.507   3.068   0.326 -0.2739  0.0239 -0.8714
  120MOL    H7724115   3.446   2.718   0.035  0.1110  0.0933 -0.2683
  120MOL    H7824116   3.601   2.772   8.406 -0.1226 -0.7490 -0.9693
  120MOL    H7924117   3.601   2.870   0.322  1.7733  0.1165 -0.7155
  120MOL    H8024118   3.449   3.046   0.415 -0.0010 -2.4053 -1.2610
  120MOL    H8124119   3.452   3.137   0.262 -0.6211  0.3899 -0.1831
  120MOL    C8224120   3.631   3.140   0.385 -0.1114 -0.3786  0.1184
  120MOL    C8324121   3.612   3.237   0.500 -0.4657 -0.6045  0.2129
  120MOL   Cl8424122   3.734   3.225   0.619  0.2623  0.1258  0.3169
  120MOL    C8524123   3.508   3.316   0.517 -0.1989 -0.4895  0.1208
  120MOL    C8624124   3.479   3.408   0.629 -0.4410 -0.0441 -0.2421
  120MOL    H8724125   3.696   3.188   0.311  0.4500 -1.5983 -0.1951
  120MOL    H8824126   3.699   3.067   0.429 -0.9081 -1.4054 -0.3353
  120MOL    H8924127   3.432   3.314   0.441 -2.7296  0.8538  2.5249
  120MOL    H9024128   3.534   3.379   0.719 -1.2068  0.9143  0.5442
  120MOL    H9124129   3.507   3.509   0.601 -3.1527  0.7842 -0.0733
  120MOL    C9224130   3.330   3.420   0.650  0.2418 -0.1282  0.1686
  120MOL    C9324131   3.296   3.530   0.745 -0.5154  1.0181 -0.2194
  120MOL   Cl9424132   3.328   3.685   0.671 -0.2525  0.2198 -0.2788
  120MOL    C9524133   3.229   3.526   0.860  0.0683 -0.4646 -0.1288
  120MOL    C9624134   3.180   3.402   0.928 -0.4465 -0.8896  0.9133
  120MOL    H9724135   3.296   3.318   0.669  1.3446 -0.1554  2.1091
  120MOL    H9824136   3.294   3.457   0.554  3.7115  0.2952 -1.0243
  120MOL    H9924137   3.210   3.624   0.903  0.7119 -0.6157  0.5125
  120MOL   H10024138   3.074   3.396   0.901 -0.9670  2.3030  2.0252
  120MOL   H10124139   3.230   3.316   0.883  1.1252  0.9985 -1.0861
  120MOL   C10224140   3.190   3.397   1.080  0.2641  0.4733 -0.0031
  120MOL   C10324141   3.126   3.275   1.144 -0.0220 -0.1916  0.0786
  120MOL  Cl10424142   3.058   3.321   1.295  0.3139 -0.1492  0.0075
  120MOL   C10524143   3.119   3.149   1.091 -0.8565 -0.1689 -0.0212
  120MOL   C10624144   3.062   3.027   1.157  0.1836 -0.6725 -0.2694
  120MOL   H10724145   3.296   3.385   1.103  0.5775  3.1841  0.1082
  120MOL   H10824146   3.161   3.491   1.127 -0.4543 -0.0880  0.6863
  120MOL   H10924147   3.163   3.132   0.994 -0.7080  0.4797 -0.0716
  120MOL   H11024148   3.146   2.973   1.203  0.4985  2.1561  2.6687
  120MOL   H11124149   3.002   3.053   1.244  1.1487  0.0552  0.1882
  120MOL   C11224150   2.985   2.939   1.069 -0.2913  0.1579  0.2879
  120MOL   C11324151   3.074   2.842   0.994  0.1677  0.0079 -0.3643
  120MOL  Cl11424152   3.101   2.879   0.830  0.4375 -0.0487  0.6575
  120MOL   C11524153   3.143   2.738   1.043  0.2095  0.7978  0.3964
  120MOL   C11624154   3.125   2.675   1.177  0.0577  0.0222  0.6731
  120MOL   H11724155   2.926   2.869   1.129 -1.6250 -0.8742 -2.1164
  120MOL   H11824156   2.921   2.991   0.997  0.0241  1.0883  0.6725
  120MOL   H11924157   3.213   2.694   0.973  1.2729  1.8423  0.7877
  120MOL   H12024158   3.065   2.734   1.246 -1.4199 -0.8122  0.1190
  120MOL   H12124159   3.219   2.681   1.233  1.7202 -0.1085 -2.0171
  120MOL   C12224160   3.086   2.529   1.169 -0.6887 -0.0160  0.1940
  120MOL   C12324161   2.968   2.505   1.076 -0.4003 -0.1708  0.2309
  120MOL  Cl12424162   3.018   2.401   0.944 -0.1196 -0.0895 -0.0663
  120MOL   C12524163   2.842   2.537   1.072  0.5783 -0.5969  0.6917
  120MOL   C12624164   2.773   2.625   1.179  0.1387  0.1048  0.1129
  120MOL   H12724165   3.173   2.473   1.133 -1.0882  0.0616 -0.9387
  120MOL   H12824166   3.069   2.493   1.270 -2.0027 -0.4863 -0.1711
  120MOL   H12924167   2.782   2.503   0.989  1.6969 -2.9093  0.7988
  120MOL   H13024168   2.841   2.639   1.263  1.0502 -2.2785 -0.1855
  120MOL   H13124169   2.756   2.719   1.127 -0.1285 -0.2409 -0.4274
  120MOL   C13224170   2.635   2.573   1.234 -0.2229 -0.6173  0.3694
  120MOL   C13324171   2.594   2.635   1.366 -0.3010  0.8303  0.1101
  120MOL  Cl13424172   2.609   2.511   1.489  0.0543  0.4346 -0.3445
  120MOL   C13524173   2.532   2.753   1.389  0.1261 -0.2145 -0.1226
  120MOL   C13624174   2.507   2.858   1.292 -0.5475  0.2167  0.0810
  120MOL   H13724175   2.559   2.598   1.159  0.0560  0.4192  0.4324
  120MOL   H13824176   2.639   2.465   1.247  1.1180 -0.6044  0.0791
  120MOL   H13924177   2.492   2.774   1.487 -2.2297 -0.6012 -0.9630
  120MOL   H14024178   2.552   2.948   1.334 -0.5630  0.0705  0.4188
  120MOL   H14124179   2.563   2.834   1.203 -1.0184 -0.6590  0.0214
  120MOL   C14224180   2.359   2.876   1.258 -1.0185  0.6105  0.2459
  120MOL   C14324181   2.337   2.993   1.163 -0.0503  0.4477  0.2040
  120MOL  Cl14424182   2.375   3.146   1.229 -0.0357  0.0913 -0.1291
  120MOL   C14524183   2.310   2.973   1.029  0.0832 -0.4878 -0.0362
  120MOL   C14624184   2.285   3.078   0.923 -0.1322  0.5775  0.0074
  120MOL   H14724185   2.314   2.910   1.352 -0.0452  1.1756  0.5082
  120MOL   H14824186   2.305   2.786   1.227 -0.2807 -0.8492  2.9986
  120MOL   H14924187   2.287   2.871   1.000 -2.1787 -0.1869  0.5549
  120MOL   H15024188   2.279   3.175   0.974 -0.6546  1.0953 -1.0271
  120MOL   H15124189   2.374   3.085   0.861  0.1062  0.2275  0.3058
  120MOL   C15224190   2.164   3.077   0.832 -0.4330 -0.3792  0.3650
  120MOL   C15324191   2.167   2.983   0.715  0.2550  0.4791  0.4800
  120MOL  Cl15424192   2.259   2.839   0.734 -0.0198 -0.0593 -0.1998
  120MOL   C15524193   2.128   3.019   0.591  0.3516 -0.4695  0.6483
  120MOL   C15624194   2.137   2.938   0.467 -0.0845 -0.7009 -1.3105
  120MOL   H15724195   2.074   3.081   0.894 -2.5275 -0.7790 -2.5276
  120MOL   H15824196   2.164   3.177   0.787  0.4854 -0.4057  0.2995
  120MOL   H15924197   2.086   3.118   0.581  1.5195  0.1002  1.2521
  120MOL   H16024198   2.091   2.842   0.493 -0.5702 -0.1751 -0.2469
  120MOL   H16124199   2.241   2.916   0.443  0.4854 -1.4024  1.6650
  120MOL   C16224200   2.072   3.006   0.353  0.0318  1.0261 -0.8863
  120MOL   C16324201   2.065   2.912   0.231 -0.1193  0.2575 -0.7429
  120MOL  Cl16424202   1.945   2.788   0.256  0.0988 -0.3440  0.2280
  120MOL   C16524203   2.128   2.929   0.118 -0.2025 -0.1068 -0.0889
  120MOL   C16624204   2.119   2.847   8.412  0.3176 -0.8027  0.6250
  120MOL   H16724205   1.977   3.051   0.383 -0.0682 -0.2376  0.7646
  120MOL   H16824206   2.138   3.087   0.320  1.4588  0.0131 -0.5633
  120MOL   H16924207   2.196   3.012   0.109 -0.9984  0.6017  0.3900
  120MOL   H17024208   2.221   2.821   8.385  0.6606  1.2254 -0.1223
  120MOL   H17124209   2.069   2.753   0.014 -1.0877  0.0001  0.9057
  120MOL   C17224210   2.046   2.919   8.290 -0.0425 -0.2549 -0.3635
  120MOL   C17324211   2.044   2.830   8.167 -0.0201  0.4780  0.5938
  120MOL  Cl17424212   1.958   2.681   8.204  0.3093  0.0718 -0.1228
  120MOL   C17524213   2.083   2.866   8.045 -0.0792  0.3893  0.3607
  120MOL   C17624214   2.078   2.800   7.910 -0.3020  0.4520  0.8124
  120MOL   H17724215   2.111   3.002   8.263  0.8111 -0.7652  0.1003
  120MOL   H17824216   1.949   2.961   8.316 -0.7595 -2.0853  0.0118
  120MOL   H17924217   2.126   2.965   8.039 -1.4275  0.8271 -3.2623
  120MOL   H18024218   2.032   2.865   7.836  2.1711  2.2104  0.7724
  120MOL   H18124219   2.024   2.705   7.911 -0.6698  0.5440 -2.6994
  120MOL   C18224220   2.216   2.767   7.854  0.5573 -0.2516 -0.3014
  120MOL   C18324221   2.214   2.698   7.716 -0.2543  0.0835 -0.0229
  120MOL  Cl18424222   2.102   2.769   7.601 -0.4212  0.0902  0.1662
  120MOL   C18524223   2.279   2.582   7.690  0.1549  0.7968  1.1512
  120MOL   C18624224   2.281   2.503   7.555  0.2106  0.5162 -0.1227
  120MOL   H18724225   2.268   2.862   7.852 -0.0930  0.0881 -1.5949
  120MOL   H18824226   2.267   2.698   7.921 -0.7296 -0.3185  0.6343
  120MOL   H18924227   2.326   2.537   7.776  0.7065 -0.6661  0.1108
  120MOL   H19024228   2.205   2.426   7.548  2.2351 -1.5112 -0.1503
  120MOL   H19124229   2.248   2.573   7.478 -2.2691 -0.1811  0.2887
  120MOL   C19224230   2.429   2.456   7.518  0.6324 -0.1487 -0.0244
  120MOL   C19324231   2.451   2.316   7.554 -0.4969 -0.4598 -0.7830
  120MOL  Cl19424232   2.555   2.302   7.695  0.5265 -0.0509 -0.0812
  120MOL   C19524233   2.408   2.204   7.487  0.0203 -0.2861 -0.0484
  120MOL   C19624234   2.321   2.188   7.369 -0.3777  0.8207  0.1244
  120MOL   H19724235   2.503   2.522   7.562  0.6959 -1.4773  1.8988
  120MOL   H19824236   2.439   2.462   7.409 -4.2584  1.8330 -0.4707
  120MOL   H19924237   2.450   2.116   7.535  3.7653  1.2320 -0.4060
  120MOL   H20024238   2.359   2.113   7.300 -3.7009 -1.8349  1.0387
  120MOL   H20124239   2.321   2.284   7.318 -0.4407  0.1139 -1.2284
  120MOL   H20224240   2.217   2.167   7.393 -0.0815 -1.6364 -0.5754
  121MOL     C124241   3.733   5.948   0.022 -0.1577  0.0286 -0.6456
  121MOL     C224242   3.615   5.882   8.370 -0.6764  0.5781 -0.2885
  121MOL    Cl324243   3.475   5.845   0.048 -0.1992  0.0109  0.0113
  121MOL     C424244   3.619   5.845   8.241  0.4042  0.2827 -0.7234
  121MOL     C524245   3.729   5.870   8.134  0.2636 -0.0393 -0.3143
  121MOL     H624246   3.731   6.057   0.025  1.4696  0.0813 -1.3586
  121MOL     H724247   3.828   5.935   8.392  0.1256  0.1689 -0.1537
  121MOL     H824248   3.537   5.784   8.205 -0.5455  0.8689  0.4291
  121MOL     H924249   3.787   5.946   8.185 -0.1669 -1.3167  2.1831
  121MOL    H1024250   3.790   5.784   8.107  0.2779 -1.1378  2.9865
  121MOL    H1124251   3.742   5.921   0.128  0.7230  1.7478 -0.2672
  121MOL    C1224252   3.667   5.926   7.999  0.6626 -0.1875  0.1446
  121MOL    C1324253   3.767   5.930   7.890  0.3454  1.0491 -0.6764
  121MOL   Cl1424254   3.882   6.061   7.897 -0.0614 -0.1282  0.0891
  121MOL    C1524255   3.774   5.854   7.779  1.0481 -0.1113 -0.4622
  121MOL    C1624256   3.692   5.730   7.751  0.3327 -0.0847  0.3638
  121MOL    H1724257   3.572   5.880   7.974  0.0200  1.9313 -1.3697
  121MOL    H1824258   3.642   6.029   8.023 -1.0115 -0.6232  0.2913
  121MOL    H1924259   3.853   5.868   7.706  1.0319 -1.5298 -0.7505
  121MOL    H2024260   3.758   5.643   7.744 -1.9201 -1.7749 -0.2419
  121MOL    H2124261   3.622   5.712   7.832  0.1689 -0.2528  0.1855
  121MOL    C2224262   3.617   5.737   7.616 -0.4315  0.0474  0.1337
  121MOL    C2324263   3.519   5.620   7.594  0.1872  0.2594  0.1483
  121MOL   Cl2424264   3.397   5.660   7.479  0.0105 -0.2078  0.2243
  121MOL    C2524265   3.527   5.498   7.656 -0.4725 -0.4041 -0.1704
  121MOL    C2624266   3.445   5.381   7.644 -0.1744 -0.0915  0.0937
  121MOL    H2724267   3.576   5.838   7.604 -0.3393  0.0926  0.1911
  121MOL    H2824268   3.687   5.751   7.534 -0.0551  2.8190  0.8560
  121MOL    H2924269   3.604   5.486   7.730 -1.2468  1.2402  0.9198
  121MOL    H3024270   3.360   5.402   7.708 -0.1286 -0.7848  0.3910
  121MOL    H3124271   3.423   5.383   7.537  2.1091 -0.0548 -0.4181
  121MOL    C3224272   3.515   5.252   7.695 -0.4577  0.1599 -0.0409
  121MOL    C3324273   3.438   5.126   7.679  0.1325  0.5432 -0.7434
  121MOL   Cl3424274   3.492   5.007   7.796  0.0247  0.0080  0.0383
  121MOL    C3524275   3.345   5.104   7.584  0.9128  0.1135 -0.0998
  121MOL    C3624276   3.261   4.973   7.570 -0.4770 -1.1320 -0.3527
  121MOL    H3724277   3.604   5.238   7.635  0.7486  1.7078  1.3521
  121MOL    H3824278   3.533   5.269   7.801  1.1051  3.1697 -0.7407
  121MOL    H3924279   3.313   5.179   7.513 -0.8159 -0.1192  0.3976
  121MOL    H4024280   3.228   4.947   7.671  0.1658  1.5991  0.5978
  121MOL    H4124281   3.164   4.998   7.528  0.2021  1.2991 -0.5628
  121MOL    C4224282   3.332   4.866   7.491  0.5287  0.0745  0.5547
  121MOL    C4324283   3.255   4.734   7.482 -0.2060 -0.4231  0.3808
  121MOL   Cl4424284   3.158   4.723   7.338 -0.2057 -0.1208 -0.1696
  121MOL    C4524285   3.260   4.635   7.579 -0.4309  0.0686 -0.5335
  121MOL    C4624286   3.335   4.643   7.707 -0.4386  0.0816  0.0605
  121MOL    H4724287   3.349   4.916   7.396  2.6641 -0.5493  0.5776
  121MOL    H4824288   3.429   4.852   7.538  0.2701  0.3715  1.1897
  121MOL    H4924289   3.201   4.546   7.566 -1.5450  0.5449  1.0704
  121MOL    H5024290   3.444   4.635   7.701 -0.4172 -0.7373  1.2936
  121MOL    H5124291   3.303   4.732   7.762  2.2778  1.6140 -0.7115
  121MOL    C5224292   3.292   4.522   7.800 -0.9290  0.2551 -0.0934
  121MOL    C5324293   3.364   4.541   7.931  0.1915  0.4225  0.4783
  121MOL   Cl5424294   3.531   4.494   7.925  0.2319 -0.0092  0.3180
  121MOL    C5524295   3.308   4.597   8.039 -0.0468  0.4004 -0.0374
  121MOL    C5624296   3.365   4.627   8.182  0.0767 -0.3963  0.6538
  121MOL    H5724297   3.185   4.524   7.820 -0.9492  2.7710 -0.3459
  121MOL    H5824298   3.305   4.423   7.757 -0.0764  1.0583 -1.7382
  121MOL    H5924299   3.202   4.617   8.036 -0.0364  0.2546 -1.7904
  121MOL    H6024300   3.470   4.658   8.182 -0.1486  0.3724  0.8945
  121MOL    H6124301   3.322   4.720   8.217  1.1515  0.0397  0.8516
  121MOL    C6224302   3.336   4.517   8.288 -0.3396  1.0966 -0.7333
  121MOL    C6324303   3.201   4.528   8.342  0.0309  0.6609 -0.0403
  121MOL   Cl6424304   3.084   4.429   8.264 -0.4547  0.3375  0.2848
  121MOL    C6524305   3.167   4.629   0.013 -0.2845  1.1168  0.3063
  121MOL    C6624306   3.026   4.654   0.068  0.3362  0.9637 -0.4250
  121MOL    H6724307   3.363   4.420   8.247  1.6264  0.7852  1.1596
  121MOL    H6824308   3.402   4.535   8.374 -0.2621  0.0732 -0.5683
  121MOL    H6924309   3.247   4.692   0.046  0.1531  0.4514  0.5182
  121MOL    H7024310   2.949   4.584   0.035  1.3402 -1.4527  2.0839
  121MOL    H7124311   3.008   4.755   0.033  0.8444  2.6963  3.9563
  121MOL    C7224312   3.031   4.650   0.222  0.5147 -0.0857 -0.6563
  121MOL    C7324313   2.902   4.672   0.299  0.2285  0.1681 -0.3504
  121MOL   Cl7424314   2.946   4.695   0.461 -0.1259 -0.1249  0.0063
  121MOL    C7524315   2.776   4.684   0.249  0.6055  0.4391 -0.4987
  121MOL    C7624316   2.651   4.700   0.338 -0.6399  0.8492 -0.4767
  121MOL    H7724317   3.099   4.731   0.248  2.4865 -1.7743 -0.4066
  121MOL    H7824318   3.083   4.561   0.256 -1.0216 -1.9704 -3.1083
  121MOL    H7924319   2.772   4.680   0.142  2.7730  1.0092 -0.6189
  121MOL    H8024320   2.610   4.798   0.314  4.5614  2.9587 -1.3642
  121MOL    H8124321   2.679   4.716   0.442  2.5499  0.0237 -1.1714
  121MOL    C8224322   2.538   4.597   0.327  0.3097 -0.3207 -0.0605
  121MOL    C8324323   2.409   4.663   0.367  0.2120  0.9242 -0.2335
  121MOL   Cl8424324   2.324   4.571   0.486  0.0485  0.1509  0.3766
  121MOL    C8524325   2.348   4.770   0.311 -0.3080 -0.0200 -0.5473
  121MOL    C8624326   2.199   4.810   0.346 -0.6449  1.0462  0.5808
  121MOL    H8724327   2.571   4.522   0.399  1.6091  1.1938  0.9490
  121MOL    H8824328   2.531   4.549   0.230 -2.2628 -1.0041  0.4183
  121MOL    H8924329   2.390   4.836   0.236 -0.2250  0.1825 -0.3235
  121MOL    H9024330   2.147   4.797   0.250 -1.1612 -1.0589  1.1191
  121MOL    H9124331   2.151   4.741   0.415 -0.8076  0.2273 -0.3458
  121MOL    C9224332   2.176   4.958   0.388 -0.1675  0.8064  0.2480
  121MOL    C9324333   2.156   4.957   0.544  0.8026 -0.3733  0.0810
  121MOL   Cl9424334   2.297   5.027   0.617 -0.0468 -0.1723  0.1041
  121MOL    C9524335   2.054   4.913   0.616 -0.8115  0.4035 -0.6543
  121MOL    C9624336   1.919   4.864   0.558 -0.1042 -1.0658  0.0115
  121MOL    H9724337   2.080   4.993   0.351  0.8106  0.7896 -2.4314
  121MOL    H9824338   2.257   5.026   0.361  1.8467 -1.5184  0.1713
  121MOL    H9924339   2.052   4.909   0.724 -4.1558  2.2699 -0.5910
  121MOL   H10024340   1.843   4.942   0.569  0.1337 -0.9033  0.5224
  121MOL   H10124341   1.924   4.822   0.458 -0.3648 -0.7325 -0.1456
  121MOL   C10224342   1.864   4.742   0.644 -0.0673 -0.0385 -0.4202
  121MOL   C10324343   1.727   4.701   0.590 -0.3798  0.1849  0.0018
  121MOL  Cl10424344   1.742   4.586   0.466  0.4935  0.2758 -0.0800
  121MOL   C10524345   1.609   4.737   0.641  0.1410  0.8339 -0.6759
  121MOL   C10624346   1.473   4.690   0.601  0.4603 -0.7709 -0.6207
  121MOL   H10724347   1.929   4.655   0.628 -2.1069 -1.3130 -2.0499
  121MOL   H10824348   1.851   4.748   0.753 -0.7702 -1.0109 -0.4410
  121MOL   H10924349   1.608   4.792   0.734  0.3207 -1.1149  0.5116
  121MOL   H11024350   1.488   4.669   0.495  1.5941  0.9123 -0.8279
  121MOL   H11124351   1.457   4.597   0.655 -0.6949 -1.7587 -2.6232
  121MOL   C11224352   1.361   4.803   0.617 -0.2540 -0.0791 -0.1029
  121MOL   C11324353   1.241   4.791   0.527 -0.2964  0.0275  0.2671
  121MOL  Cl11424354   1.169   4.635   0.541 -0.2461 -0.0842  0.0025
  121MOL   C11524355   1.188   4.883   0.447 -0.0077  0.3740 -0.1664
  121MOL   C11624356   1.234   5.024   0.413  0.4689  0.6278  0.3949
  121MOL   H11724357   1.323   4.784   0.717  3.4465  2.1429  1.8150
  121MOL   H11824358   1.400   4.904   0.624 -2.2395  0.5311  3.2566
  121MOL   H11924359   1.103   4.855   0.387 -0.8792  1.9476  0.3138
  121MOL   H12024360   1.321   5.035   0.478  3.3677 -1.0737 -3.0300
  121MOL   H12124361   1.158   5.099   0.436 -0.7174  0.1274 -1.7737
  121MOL   C12224362   1.273   5.041   0.266  0.1573  0.1441 -0.0917
  121MOL   C12324363   1.166   5.110   0.191  0.5102 -0.6549 -0.1682
  121MOL  Cl12424364   1.194   5.278   0.185 -0.2569  0.0692 -0.3498
  121MOL   C12524365   1.067   5.043   0.131  0.8645  0.4414 -0.0717
  121MOL   C12624366   1.044   4.891   0.120  1.0099 -0.0299 -0.0900
  121MOL   H12724367   1.366   5.098   0.271 -0.1702  0.7425 -0.6975
  121MOL   H12824368   1.305   4.946   0.223  1.5771  0.6674 -0.2377
  121MOL   H12924369   0.998   5.105   0.076 -2.5419 -1.2599  2.1240
  121MOL   H13024370   1.039   4.864   0.015  0.2654 -1.0337  0.2051
  121MOL   H13124371   1.126   4.833   0.161  1.0104  1.5946  2.3100
  121MOL   C13224372   0.904   4.858   0.167 -0.5747  0.8902  0.5394
  121MOL   C13324373   0.866   4.716   0.118 -0.5240 -0.3868 -0.0338
  121MOL  Cl13424374   0.908   4.602   0.232 -0.0356  0.0412  0.2103
  121MOL   C13524375   0.790   4.684   0.018 -0.5204  0.0890 -0.0150
  121MOL   C13624376   0.723   4.763   8.335  1.0431 -0.7247  0.9783
  121MOL   H13724377   0.896   4.881   0.273  0.9953  2.0567  0.4207
  121MOL   H13824378   0.825   4.923   0.129 -0.5091 -0.1907 -1.5127
  121MOL   H13924379   0.778   4.577   0.004 -0.1027  0.0426 -0.0224
  121MOL   H14024380   0.616   4.742   8.330  1.3887 -2.5382  0.7568
  121MOL   H14124381   0.744   4.869   8.348 -1.3674 -0.0930  0.0604
  121MOL   C14224382   0.776   4.712   8.198 -0.4353  0.4618 -0.1259
  121MOL   C14324383   0.779   4.831   8.107 -0.6374 -0.5310 -0.3128
  121MOL  Cl14424384   0.930   4.920   8.101 -0.2812 -0.1240 -0.5979
  121MOL   C14524385   0.680   4.869   8.029 -0.4940  0.0914  0.4818
  121MOL   C14624386   0.692   4.986   7.925 -0.4556  0.4849  0.6059
  121MOL   H14724387   0.707   4.636   8.163  2.7291 -1.8235 -1.6980
  121MOL   H14824388   0.870   4.658   8.209 -0.1511  0.4406 -2.4961
  121MOL   H14924389   0.587   4.814   8.025 -1.1646  1.2039  0.5597
  121MOL   H15024390   0.793   5.025   7.911 -0.4152 -0.2302 -1.3468
  121MOL   H15124391   0.674   4.935   7.830 -0.1060 -1.4762  1.5582
  121MOL   C15224392   0.586   5.088   7.951  0.0224  0.7111  1.0513
  121MOL   C15324393   0.585   5.199   7.844  0.1362  0.4971  0.0362
  121MOL  Cl15424394   0.744   5.268   7.827  0.1433  0.1424  0.2071
  121MOL   C15524395   0.481   5.232   7.765 -0.2718 -1.2427  0.1180
  121MOL   C15624396   0.511   5.332   7.651 -0.2560  1.4582  0.4363
  121MOL   H15724397   0.488   5.039   7.946  0.1901  0.5756 -1.6832
  121MOL   H15824398   0.591   5.125   8.054 -2.8512  0.7004  1.2626
  121MOL   H15924399   0.381   5.194   7.780 -0.4656 -0.2704  1.3430
  121MOL   H16024400   0.601   5.390   7.671  0.1304 -0.0708  3.4609
  121MOL   H16124401   0.428   5.402   7.648  0.3084  2.3113  3.2794
  121MOL   C16224402   0.528   5.255   7.525 -0.9719 -0.3554  1.3766
  121MOL   C16324403   0.517   5.341   7.407 -0.1512  0.1578  0.3145
  121MOL  Cl16424404   0.639   5.459   7.396 -0.0112 -0.2211  0.4690
  121MOL   C16524405   0.415   5.332   7.321 -0.7577  0.0938 -0.1166
  121MOL   C16624406   0.413   5.412   7.194 -0.2575 -1.2007  0.7965
  121MOL   H16724407   0.625   5.207   7.523 -1.1436 -0.6886  0.1659
  121MOL   H16824408   0.447   5.182   7.520 -1.3318  0.0172  1.7471
  121MOL   H16924409   0.327   5.272   7.341  0.2820 -1.2157  0.5856
  121MOL   H17024410   0.507   5.465   7.178 -2.0678  1.0470 -3.0568
  121MOL   H17124411   0.403   5.342   7.110 -0.3799 -0.6805  0.3787
  121MOL   C17224412   0.307   5.519   7.185  0.2360 -0.6995  0.1707
  121MOL   C17324413   0.305   5.592   7.052 -0.1417  0.4404  0.2540
  121MOL  Cl17424414   0.440   5.701   7.040 -0.0091  0.0060 -0.2292
  121MOL   C17524415   0.216   5.567   6.953  1.2714 -0.1365 -0.1582
  121MOL   C17624416   0.220   5.625   6.811  0.0696  0.2146  0.2217
  121MOL   H17724417   0.304   5.593   7.264  0.6119 -0.8710  0.3469
  121MOL   H17824418   0.212   5.467   7.200  0.1201 -0.2937  0.8304
  121MOL   H17924419   0.135   5.497   6.970  2.0347 -0.7947  0.7605
  121MOL   H18024420   0.284   5.713   6.808 -0.0499  0.3164  0.6406
  121MOL   H18124421   0.121   5.664   6.791 -0.5191 -1.6775 -0.6155
  121MOL   C18224422   0.273   5.521   6.702  0.7219 -0.0620  0.6913
  121MOL   C18324423   0.223   5.545   6.561  0.1086  0.6765 -0.6367
  121MOL  Cl18424424   0.346   5.589   6.450 -0.7788  0.0130  0.5102
  121MOL   C18524425   0.093   5.530   6.536 -0.1588 -0.8559 -0.2300
  121MOL   C18624426   0.030   5.532   6.403  0.1130  0.4900 -0.3608
  121MOL   H18724427   0.382   5.517   6.695  0.7492  0.6681  0.5950
  121MOL   H18824428   0.250   5.417   6.726 -1.8175  0.5741  1.1476
  121MOL   H18924429   0.024   5.502   6.615  1.5569 -3.1394  0.5158
  121MOL   H19024430   0.084   5.572   6.317  1.1703  0.2008  0.1481
  121MOL   H19124431   0.013   5.426   6.383 -1.8360  0.4145  1.5604
  121MOL   C19224432   8.310   5.595   6.411  0.6532  0.6965 -0.1564
  121MOL   C19324433   8.214   5.518   6.493  0.1492  0.7534  0.0854
  121MOL  Cl19424434   8.175   5.358   6.437  0.1054 -0.1197 -0.0520
  121MOL   C19524435   8.167   5.560   6.612 -0.1607 -0.4555  0.5179
  121MOL   C19624436   8.192   5.682   6.687  0.4804 -0.7708 -0.3563
  121MOL   H19724437   8.279   5.599   6.306  0.4954 -1.3074 -0.2071
  121MOL   H19824438   8.320   5.697   6.448  2.4480  0.3065  0.4587
  121MOL   H19924439   8.101   5.490   6.662 -1.0482  0.1226  0.1695
  121MOL   H20024440   8.098   5.735   6.695  0.7512 -0.2612 -0.5124
  121MOL   H20124441   8.271   5.744   6.645 -0.8250  0.7269 -0.6472
  121MOL   H20224442   8.234   5.653   6.783 -0.6460 -0.6061  0.1884
  122MOL     C124443   0.647   6.311   1.869 -0.3045  0.7197 -0.2294
  122MOL     C224444   0.575   6.354   1.995 -0.2181 -0.2671 -0.4888
  122MOL    Cl324445   0.416   6.284   1.989  0.2755 -0.2111  0.4379
  122MOL     C424446   0.616   6.422   2.103  0.6822  0.0845 -0.1026
  122MOL     C524447   0.760   6.468   2.121 -0.8208  0.2727 -0.2593
  122MOL     H624448   0.603   6.226   1.816 -1.0266  0.2295  1.1322
  122MOL     H724449   0.750   6.286   1.895  0.0479  1.7752 -0.6024
  122MOL     H824450   0.551   6.448   2.185  1.9785 -0.4040  1.1099
  122MOL     H924451   0.812   6.421   2.205 -1.1462  0.2779 -0.0518
  122MOL    H1024452   0.809   6.439   2.028  0.1260  0.3986  0.1963
  122MOL    H1124453   0.637   6.403   1.811  4.2046  0.5896 -1.3831
  122MOL    C1224454   0.749   6.627   2.148 -0.1003 -0.0477  0.6070
  122MOL    C1324455   0.874   6.705   2.099  0.2487 -0.1408 -0.6089
  122MOL   Cl1424456   0.968   6.759   2.237  0.0492 -0.0158  0.3721
  122MOL    C1524457   0.908   6.743   1.973 -0.0834 -0.1291  0.2089
  122MOL    C1624458   0.825   6.716   1.855 -0.6035  0.2401 -0.8143
  122MOL    H1724459   0.668   6.672   2.090 -0.1066  0.1983  0.8078
  122MOL    H1824460   0.729   6.642   2.254 -1.1084 -3.2958  0.9538
  122MOL    H1924461   1.002   6.793   1.958  0.6754 -1.4446  0.5567
  122MOL    H2024462   0.872   6.629   1.810  1.0855 -0.7965  2.7617
  122MOL    H2124463   0.722   6.687   1.879 -0.7277  1.0567 -0.3567
  122MOL    C2224464   0.821   6.836   1.763 -0.2272  0.3305  0.6210
  122MOL    C2324465   0.715   6.817   1.652 -0.5452  0.3632  0.0036
  122MOL   Cl2424466   0.792   6.791   1.502 -0.0866 -0.4793  0.4679
  122MOL    C2524467   0.584   6.828   1.664  0.5497  0.6314  0.3294
  122MOL    C2624468   0.472   6.820   1.558 -0.0131  0.1833 -0.2650
  122MOL    H2724469   0.795   6.926   1.819 -2.2844  0.5338 -0.6367
  122MOL    H2824470   0.919   6.856   1.719 -0.3361  0.5700  0.4904
  122MOL    H2924471   0.546   6.855   1.761  1.5003  1.6631  0.4219
  122MOL    H3024472   0.433   6.921   1.545  1.4222  0.7722 -0.1309
  122MOL    H3124473   0.501   6.789   1.458 -1.7426 -1.7348 -0.1859
  122MOL    C3224474   0.352   6.736   1.607 -0.3857  0.0386 -0.2772
  122MOL    C3324475   0.229   6.779   1.538 -0.3018  0.0812  1.0674
  122MOL   Cl3424476   0.223   6.700   1.385  0.1914  0.1909 -0.3141
  122MOL    C3524477   0.133   6.858   1.577  0.2647 -0.0306 -0.4152
  122MOL    C3624478   0.010   6.883   1.495  0.1533  0.0151 -0.2990
  122MOL    H3724479   0.380   6.631   1.597 -1.8181 -0.2594 -1.3339
  122MOL    H3824480   0.332   6.754   1.712  0.5854 -0.7275  0.0492
  122MOL    H3924481   0.141   6.899   1.676  1.6774  0.6845 -0.8217
  122MOL    H4024482   0.010   6.990   1.471  2.0756  0.2524  0.6820
  122MOL    H4124483   0.010   6.824   1.404  0.9239  0.1585 -0.3953
  122MOL    C4224484   8.300   6.849   1.577  0.3704  0.5109  0.2181
  122MOL    C4324485   8.182   6.893   1.500 -0.0866 -0.4842  0.5392
  122MOL   Cl4424486   8.143   7.058   1.533  0.2454 -0.4028  0.0581
  122MOL    C4524487   8.108   6.823   1.414 -0.5237  0.1637  0.2244
  122MOL    C4624488   8.127   6.680   1.380 -0.3448  0.9464  0.6228
  122MOL    H4724489   8.295   6.744   1.603 -3.0738  0.5161 -0.2068
  122MOL    H4824490   8.290   6.896   1.675  1.5381 -1.1024  1.1192
  122MOL    H4924491   8.019   6.862   1.367 -0.6933 -0.4692  0.0125
  122MOL    H5024492   8.226   6.663   1.338 -0.7906  0.9187 -0.4202
  122MOL    H5124493   8.127   6.631   1.477 -0.0630  1.1264  0.7147
  122MOL    C5224494   8.021   6.619   1.289 -0.2140 -0.3854  0.2114
  122MOL    C5324495   8.039   6.469   1.258  0.4615  0.2086  0.1138
  122MOL   Cl5424496   8.075   6.430   1.088 -0.1497  0.1634  0.0116
  122MOL    C5524497   8.035   6.371   1.353  0.5482  0.3337  0.8674
  122MOL    C5624498   8.045   6.222   1.324 -0.2391  0.5198 -0.1912
  122MOL    H5724499   7.919   6.641   1.320  1.2383  2.0917  3.5152
  122MOL    H5824500   8.035   6.670   1.193 -1.6933 -1.6932 -0.7288
  122MOL    H5924501   8.026   6.393   1.459 -0.6328  0.8722  0.6609
  122MOL    H6024502   8.002   6.173   1.411 -1.7909  0.7979 -0.7841
  122MOL    H6124503   7.992   6.192   1.234  1.1090 -3.2358  0.2026
  122MOL    C6224504   8.191   6.185   1.321  0.0133  0.3958 -0.1335
  122MOL    C6324505   8.238   6.067   1.244  0.2378 -0.4589  0.4865
  122MOL   Cl6424506   8.141   5.924   1.262  0.0737 -0.1636 -0.2018
  122MOL    C6524507   8.347   6.073   1.160  0.6234 -0.4694 -0.0971
  122MOL    C6624508   8.400   5.980   1.056  0.4818 -0.0515 -0.3867
  122MOL    H6724509   8.239   6.269   1.271  2.8129 -1.4404 -0.6447
  122MOL    H6824510   8.245   6.172   1.415 -0.8891 -0.0095  0.3346
  122MOL    H6924511   8.406   6.163   1.150 -1.0805  1.0458  2.8792
  122MOL    H7024512   8.390   6.039   0.965 -0.7820 -1.8790 -1.4751
  122MOL    H7124513   8.335   5.893   1.050  0.0035  0.2082  0.9335
  122MOL    C7224514   0.128   5.944   1.087  0.1941 -0.0562 -0.3287
  122MOL    C7324515   0.194   5.899   0.954 -0.8144  0.0811 -0.0762
  122MOL   Cl7424516   0.223   6.029   0.852  0.0672  0.3860  0.2649
  122MOL    C7524517   0.214   5.771   0.917  0.3391 -0.0008  0.3348
  122MOL    C7624518   0.265   5.716   0.784 -0.0361 -0.1162  0.1006
  122MOL    H7724519   0.128   5.874   1.171 -0.9730  1.0499  0.6180
  122MOL    H7824520   0.181   6.030   1.125 -1.9857  0.8796  0.6654
  122MOL    H7924521   0.183   5.692   0.983  0.2624 -0.8404 -0.6936
  122MOL    H8024522   0.359   5.663   0.797  0.4136 -0.4188 -3.8682
  122MOL    H8124523   0.285   5.785   0.702  0.5389 -1.6478 -1.0718
  122MOL    C8224524   0.175   5.607   0.732 -0.1274  0.1092  0.1560
  122MOL    C8324525   0.036   5.653   0.693  0.3359  0.0997  0.0603
  122MOL   Cl8424526   8.351   5.559   0.792  0.3711 -0.0196 -0.2512
  122MOL    C8524527   0.004   5.723   0.579  0.1714  0.1777  0.1063
  122MOL    C8624528   8.281   5.755   0.526 -0.3763 -0.3694  0.5689
  122MOL    H8724529   0.158   5.522   0.798 -0.1480  0.3025  0.3978
  122MOL    H8824530   0.218   5.560   0.644  2.5466  2.1660  0.3049
  122MOL    H8924531   0.088   5.762   0.524 -0.5294 -0.4616 -1.4376
  122MOL    H9024532   8.199   5.738   0.595 -0.5816  1.7765  0.9126
  122MOL    H9124533   8.294   5.863   0.516  1.5384 -0.4630  1.8716
  122MOL    C9224534   8.262   5.683   0.392  0.3967  0.6689  0.3527
  122MOL    C9324535   8.125   5.688   0.336  0.0933  0.0300  0.8691
  122MOL   Cl9424536   8.057   5.848   0.336 -0.6799  0.1690 -0.3135
  122MOL    C9524537   8.052   5.583   0.282 -0.3631 -0.0008  0.1368
  122MOL    C9624538   8.097   5.440   0.262 -0.0108 -0.2667  0.2892
  122MOL    H9724539   8.287   5.579   0.411 -1.1866  0.3487  0.7634
  122MOL    H9824540   8.337   5.714   0.319  0.0747  3.5127  1.1626
  122MOL    H9924541   7.951   5.597   0.248 -0.9481 -0.5867  1.6076
  122MOL   H10024542   8.117   5.417   0.157  0.4900  2.0783 -0.1596
  122MOL   H10124543   8.194   5.429   0.310  0.3507 -0.5944 -0.4987
  122MOL   C10224544   8.007   5.343   0.331 -0.8300 -0.3769  0.0002
  122MOL   C10324545   7.871   5.332   0.263  0.4628 -0.3081 -0.2913
  122MOL  Cl10424546   7.891   5.273   0.099  0.0932 -0.0544 -0.5405
  122MOL   C10524547   7.752   5.347   0.316 -0.2589  0.0978 -0.7072
  122MOL   C10624548   7.625   5.327   0.243  0.5688  1.0640 -0.5029
  122MOL   H10724549   8.066   5.252   0.336 -0.0893  0.0810 -0.1825
  122MOL   H10824550   7.997   5.375   0.435 -0.8182 -1.1964  0.2577
  122MOL   H10924551   7.738   5.384   0.417  0.9692  1.5749 -1.0548
  122MOL   H11024552   7.634   5.231   0.192 -1.0272  0.4712  0.3102
  122MOL   H11124553   7.540   5.324   0.311  0.5088 -0.9972 -0.6378
  122MOL   C11224554   7.597   5.437   0.147  0.1793  0.4054 -0.2709
  122MOL   C11324555   7.458   5.437   0.079  0.6627 -0.4088  0.2454
  122MOL  Cl11424556   7.403   5.279   0.055 -0.3425  0.1020 -0.4185
  122MOL   C11524557   7.382   5.547   0.049  0.0224  1.1745  0.6866
  122MOL   C11624558   7.416   5.693   0.070  0.0859  0.0859  0.6307
  122MOL   H11724559   7.632   5.525   0.201  0.2235  0.0023  0.3579
  122MOL   H11824560   7.664   5.436   0.061  1.3461 -0.0642  0.6271
  122MOL   H11924561   7.286   5.536   0.002  0.7022 -0.2688 -0.4343
  122MOL   H12024562   7.479   5.709   0.158  1.0294  0.6301 -0.1430
  122MOL   H12124563   7.326   5.747   0.101 -1.0937 -0.7448 -1.2257
  122MOL   C12224564   7.468   5.759   8.361 -0.2737  0.2620 -0.3489
  122MOL   C12324565   7.593   5.697   8.290 -0.8491  0.6659  0.1455
  122MOL  Cl12424566   7.550   5.612   8.150  0.0650 -0.3255  0.0629
  122MOL   C12524567   7.722   5.708   8.327 -0.3248 -0.1115  0.6611
  122MOL   C12624568   7.764   5.796   0.018  0.1981 -0.5478  0.8604
  122MOL   H12724569   7.388   5.760   8.288 -0.3638  0.7646 -0.2448
  122MOL   H12824570   7.497   5.863   8.379 -2.8740  1.1291 -0.9284
  122MOL   H12924571   7.798   5.654   8.272 -0.8389 -1.4433  1.2215
  122MOL   H13024572   7.694   5.814   0.100 -2.0821  0.2590 -1.1961
  122MOL   H13124573   7.843   5.749   0.075  1.6512 -0.6024 -1.1387
  122MOL   C13224574   7.814   5.938   8.400  0.0707 -0.2924  1.5889
  122MOL   C13324575   7.939   5.935   8.314  0.2870 -0.0856  0.3514
  122MOL  Cl13424576   8.077   5.980   8.411 -0.1708  0.1570  0.0646
  122MOL   C13524577   7.948   5.929   8.171  0.6214  0.3935 -0.7512
  122MOL   C13624578   7.837   5.901   8.075  0.8880 -0.4250  0.5824
  122MOL   H13724579   7.735   5.991   8.347  0.4935 -2.1240 -1.0061
  122MOL   H13824580   7.836   6.005   0.062  0.6155  1.6856 -0.1079
  122MOL   H13924581   8.046   5.937   8.126  1.7902 -0.5886  1.5126
  122MOL   H14024582   7.865   5.799   8.053 -0.7391 -0.7481 -0.0637
  122MOL   H14124583   7.736   5.913   8.113  0.5939  0.9635 -0.5800
  122MOL   C14224584   7.854   5.981   7.941 -0.0407  0.9631  0.1358
  122MOL   C14324585   7.768   5.934   7.823  0.2343 -0.1961 -0.8702
  122MOL  Cl14424586   7.734   6.067   7.719  0.2128  0.0701 -0.0842
  122MOL   C14524587   7.716   5.809   7.805 -0.2229 -0.6991  0.4578
  122MOL   C14624588   7.618   5.764   7.696 -0.7698 -0.8394 -0.0940
  122MOL   H14724589   7.957   5.983   7.904 -0.3291 -3.1850 -1.0992
  122MOL   H14824590   7.824   6.083   7.963 -0.9608  1.0007 -1.2693
  122MOL   H14924591   7.748   5.735   7.876  0.7429 -2.1524 -1.4523
  122MOL   H15024592   7.606   5.844   7.623 -0.8924  1.1237  2.0190
  122MOL   H15124593   7.661   5.675   7.648  0.6265 -0.3559  0.2144
  122MOL   C15224594   7.483   5.732   7.755 -0.0159 -0.1237  0.1412
  122MOL   C15324595   7.371   5.700   7.662  0.1710 -0.3480 -0.3970
  122MOL  Cl15424596   7.295   5.559   7.717 -0.1347 -0.3803  0.0893
  122MOL   C15524597   7.337   5.768   7.552 -0.4196  0.5765 -0.2355
  122MOL   C15624598   7.228   5.732   7.458  0.5643  0.7336  0.0229
  122MOL   H15724599   7.488   5.662   7.839 -1.0471 -0.5089 -0.1088
  122MOL   H15824600   7.449   5.821   7.808  1.0202  1.6121 -2.0147
  122MOL   H15924601   7.385   5.863   7.531 -0.6416  1.6739  3.8010
  122MOL   H16024602   7.139   5.763   7.513 -0.2070  2.0164 -1.8888
  122MOL   H16124603   7.217   5.625   7.439 -1.1663  1.2014 -1.7463
  122MOL   C16224604   7.238   5.797   7.323 -0.0608  0.0994 -0.0325
  122MOL   C16324605   7.124   5.756   7.226  1.0186 -0.9822  1.1427
  122MOL  Cl16424606   7.176   5.649   7.105  0.0796  0.0830 -0.0894
  122MOL   C16524607   7.008   5.826   7.227  0.8881  0.1974  0.0459
  122MOL   C16624608   6.888   5.792   7.131  0.1509 -0.8729 -0.1755
  122MOL   H16724609   7.249   5.905   7.334  1.6416  0.2297 -2.5524
  122MOL   H16824610   7.336   5.779   7.278 -0.9655 -2.7802 -0.9472
  122MOL   H16924611   7.000   5.907   7.298 -0.7220  0.2216 -0.1667
  122MOL   H17024612   6.922   5.748   7.037 -0.4716 -0.3693 -0.6414
  122MOL   H17124613   6.834   5.712   7.182  0.7559 -1.1984 -0.0454
  122MOL   C17224614   6.809   5.921   7.096  0.4078  0.9898  0.1041
  122MOL   C17324615   6.665   5.889   7.044 -0.0640 -0.4727 -0.9541
  122MOL  Cl17424616   6.569   6.025   7.036 -0.1346  0.1785 -0.0425
  122MOL   C17524617   6.609   5.772   7.015  0.5031 -0.9306  0.3188
  122MOL   C17624618   6.460   5.745   6.988 -0.1528 -0.8774  0.1148
  122MOL   H17724619   6.851   5.998   7.032  0.4876  2.0434  1.3964
  122MOL   H17824620   6.795   5.973   7.190  0.5972 -1.2434  1.4174
  122MOL   H17924621   6.670   5.683   7.004 -0.8863 -2.1596  2.2007
  122MOL   H18024622   6.458   5.713   6.884 -1.2371 -2.3720  0.5714
  122MOL   H18124623   6.396   5.832   6.994 -2.0921 -2.2609 -0.2116
  122MOL   C18224624   6.396   5.634   7.069 -0.2565 -0.6245 -0.1833
  122MOL   C18324625   6.267   5.581   7.008 -0.2697  0.1945  0.1826
  122MOL  Cl18424626   6.124   5.660   7.063  0.0996  0.1165  0.0843
  122MOL   C18524627   6.260   5.482   6.916 -0.4749 -0.0365  0.5708
  122MOL   C18624628   6.135   5.422   6.848  0.2626 -0.3250 -0.2208
  122MOL   H18724629   6.470   5.554   7.068  1.3367  0.7248  3.3242
  122MOL   H18824630   6.370   5.670   7.168 -0.2431  1.8450 -1.0493
  122MOL   H18924631   6.354   5.441   6.885 -0.6559  1.1596 -1.6841
  122MOL   H19024632   6.158   5.316   6.838 -1.0854 -0.4743 -2.1203
  122MOL   H19124633   6.046   5.427   6.910  1.4372 -2.9775  1.8132
  122MOL   C19224634   6.100   5.485   6.712  0.0414  0.1303  0.1608
  122MOL   C19324635   6.203   5.475   6.610 -0.2279 -0.6613 -0.2682
  122MOL  Cl19424636   6.200   5.326   6.534 -0.0391 -0.1647  0.2980
  122MOL   C19524637   6.288   5.569   6.579 -0.3123 -0.3585  0.1211
  122MOL   C19624638   6.299   5.713   6.643 -0.1758  0.9678  1.0617
  122MOL   H19724639   6.088   5.592   6.728  1.4558  0.6145 -1.7409
  122MOL   H19824640   6.003   5.449   6.678  0.4447  0.5163 -1.4780
  122MOL   H19924641   6.352   5.552   6.494 -1.2688 -0.1984 -0.6360
  122MOL   H20024642   6.404   5.741   6.642 -0.7552  3.2197  0.1460
  122MOL   H20124643   6.270   5.724   6.748  2.4070  1.2493  1.7836
  122MOL   H20224644   6.235   5.791   6.602 -0.2794 -0.8746 -2.5141
  123MOL     C124645   1.775   4.831   1.966  0.1533  0.0636 -0.2138
  123MOL     C224646   1.779   4.898   1.825  0.6700 -0.2042 -0.2574
  123MOL    Cl324647   1.663   4.824   1.722  0.5938 -0.1561  0.0376
  123MOL     C424648   1.862   4.989   1.777 -0.1499  0.4410  0.2074
  123MOL     C524649   1.966   5.069   1.854 -0.1054  0.6472 -0.2967
  123MOL     H624650   1.787   4.916   2.033  0.6862 -0.6026  0.5402
  123MOL     H724651   1.867   4.776   1.988  0.4584  1.1270  1.2172
  123MOL     H824652   1.857   5.011   1.672  1.3404 -2.1052 -0.4293
  123MOL     H924653   1.932   5.173   1.852 -2.4582 -0.1048 -0.4558
  123MOL    H1024654   1.951   5.035   1.956  1.4715  0.1205 -0.2243
  123MOL    H1124655   1.699   4.756   1.985  0.1302  0.7094  2.3320
  123MOL    C1224656   2.112   5.053   1.815  0.2115 -0.4277 -0.9985
  123MOL    C1324657   2.214   5.105   1.912  0.9041  0.2612  0.1255
  123MOL   Cl1424658   2.190   5.267   1.955  0.0452  0.4748  0.2024
  123MOL    C1524659   2.331   5.052   1.951 -0.3710  0.1060  0.8106
  123MOL    C1624660   2.387   4.917   1.896  0.4498 -0.0364  0.1242
  123MOL    H1724661   2.128   4.946   1.801 -0.1712 -0.6328  0.0616
  123MOL    H1824662   2.129   5.091   1.714  0.2518  1.9454 -0.1278
  123MOL    H1924663   2.393   5.115   2.013  1.4340 -1.2056  0.3846
  123MOL    H2024664   2.357   4.909   1.792  0.4439  1.8177 -0.0406
  123MOL    H2124665   2.495   4.926   1.887  0.3041 -0.6643 -2.5737
  123MOL    C2224666   2.350   4.796   1.981 -0.0083 -0.7782 -0.4385
  123MOL    C2324667   2.396   4.664   1.936 -0.0543  0.0961  0.1315
  123MOL   Cl2424668   2.316   4.631   1.790 -0.2167 -0.4840  0.0242
  123MOL    C2524669   2.486   4.587   1.989  0.0981  0.1454 -0.0578
  123MOL    C2624670   2.541   4.458   1.934  0.1211 -0.8680  0.1248
  123MOL    H2724671   2.380   4.814   2.084  1.7048 -0.3166 -1.0039
  123MOL    H2824672   2.241   4.793   1.982 -0.0105 -1.2861  2.5843
  123MOL    H2924673   2.537   4.624   2.077  1.0466 -0.2094 -0.4473
  123MOL    H3024674   2.477   4.416   1.856 -0.2757 -1.3720  0.7127
  123MOL    H3124675   2.631   4.487   1.881  0.6517 -0.5157  1.2018
  123MOL    C3224676   2.568   4.363   2.049 -0.3782  0.3788 -0.7137
  123MOL    C3324677   2.628   4.226   2.005 -0.4900  0.0913 -0.4019
  123MOL   Cl3424678   2.751   4.160   2.112  0.3283  0.1340 -0.1015
  123MOL    C3524679   2.586   4.158   1.899  0.0099  0.2178  0.7797
  123MOL    C3624680   2.637   4.028   1.846 -0.3430 -0.1407 -0.2698
  123MOL    H3724681   2.642   4.402   2.119  0.1330  0.6071 -1.3740
  123MOL    H3824682   2.485   4.351   2.118  0.0552  3.0300  0.3063
  123MOL    H3924683   2.504   4.196   1.840 -0.5847 -2.5612 -0.2476
  123MOL    H4024684   2.672   4.044   1.744  0.4514 -1.5696 -0.2304
  123MOL    H4124685   2.727   4.002   1.901  0.0150 -2.1184 -1.7086
  123MOL    C4224686   2.540   3.913   1.859 -0.2819  0.2964  0.5446
  123MOL    C4324687   2.618   3.790   1.812 -0.0271  0.2823  0.0852
  123MOL   Cl4424688   2.595   3.746   1.643  0.0164 -0.2642 -0.2554
  123MOL    C4524689   2.680   3.696   1.887 -0.1064  0.4180 -0.5614
  123MOL    C4624690   2.716   3.718   2.036  0.0039  0.1944  0.9521
  123MOL    H4724691   2.513   3.911   1.965  2.1375  1.1586  1.2070
  123MOL    H4824692   2.451   3.926   1.797  1.8183 -0.5629 -2.8051
  123MOL    H4924693   2.716   3.608   1.835 -0.0715  1.1596 -1.8258
  123MOL    H5024694   2.664   3.810   2.063 -4.8347 -1.1406 -3.1850
  123MOL    H5124695   2.673   3.643   2.103 -0.8208  0.3491  0.5960
  123MOL    C5224696   2.867   3.735   2.057 -0.1938  0.0185  0.1704
  123MOL    C5324697   2.908   3.743   2.202 -0.0958 -0.0084  0.5270
  123MOL   Cl5424698   3.059   3.654   2.236 -0.2620  0.1476  0.0835
  123MOL    C5524699   2.856   3.826   2.291 -0.0452 -1.1544 -0.6894
  123MOL    C5624700   2.896   3.835   2.444 -0.2120  0.6375  0.5271
  123MOL    H5724701   2.909   3.640   2.024 -1.7819 -0.7398  0.2846
  123MOL    H5824702   2.912   3.824   2.013  1.3777 -0.9884 -0.2970
  123MOL    H5924703   2.776   3.890   2.256 -0.9475 -1.8051  0.1345
  123MOL    H6024704   2.813   3.780   2.487 -0.0590 -0.5685 -0.6961
  123MOL    H6124705   2.984   3.775   2.463 -1.6016 -2.9742 -3.5112
  123MOL    C6224706   2.903   3.982   2.489  0.1604 -0.3129  0.2349
  123MOL    C6324707   2.889   4.001   2.638 -0.0157  0.3488  0.6519
  123MOL   Cl6424708   3.026   4.093   2.690  0.0660 -0.2369 -0.4773
  123MOL    C6524709   2.783   3.951   2.713 -0.8249 -0.7046  0.1801
  123MOL    C6624710   2.773   3.966   2.865 -0.2406  0.4511  0.7939
  123MOL    H6724711   2.992   4.037   2.457  0.0314  0.5285  1.2930
  123MOL    H6824712   2.826   4.041   2.440 -0.5226 -1.4282 -0.0672
  123MOL    H6924713   2.718   3.895   2.647  0.0399  0.7261 -1.9314
  123MOL    H7024714   2.862   4.017   2.904  1.0268  0.4049 -1.9030
  123MOL    H7124715   2.781   3.862   2.896 -0.4300  0.6358  1.4536
  123MOL    C7224716   2.642   4.039   2.902  0.4554  0.1650 -0.0590
  123MOL    C7324717   2.645   4.098   3.043  0.9931  0.0900 -0.6954
  123MOL   Cl7424718   2.790   4.171   3.078 -0.2760  0.5195 -0.2408
  123MOL    C7524719   2.545   4.091   3.132  1.0202 -0.1274  0.1417
  123MOL    C7624720   2.548   4.162   3.267  0.3907 -0.2570 -0.6354
  123MOL    H7724721   2.564   3.964   2.895  1.5998 -1.0201 -0.4613
  123MOL    H7824722   2.630   4.128   2.840 -1.1238 -0.4109 -0.5871
  123MOL    H7924723   2.458   4.031   3.110  1.5001 -0.6694 -0.2713
  123MOL    H8024724   2.650   4.193   3.286 -0.3262  2.6179 -1.3352
  123MOL    H8124725   2.529   4.088   3.345  0.5860 -0.6922 -0.9991
  123MOL    C8224726   2.461   4.290   3.277  0.5709  0.7859  0.0024
  123MOL    C8324727   2.447   4.344   3.419 -0.0065 -0.3285 -0.1022
  123MOL   Cl8424728   2.287   4.312   3.474  0.3280 -0.2746  0.4010
  123MOL    C8524729   2.538   4.419   3.488  0.1539  0.6715  0.5810
  123MOL    C8624730   2.527   4.487   3.624  0.5098  0.2845  0.1568
  123MOL    H8724731   2.363   4.264   3.236  0.6293 -2.1192  1.5516
  123MOL    H8824732   2.509   4.366   3.215 -0.2515  0.0642 -1.5481
  123MOL    H8924733   2.629   4.432   3.433  0.6324 -1.9037  0.6795
  123MOL    H9024734   2.433   4.463   3.674 -0.1084  1.0651 -0.6126
  123MOL    H9124735   2.609   4.464   3.692  0.3531 -0.5882  0.0519
  123MOL    C9224736   2.541   4.639   3.608  0.0237  0.4615 -0.0941
  123MOL    C9324737   2.417   4.710   3.545 -0.2599  0.2584  0.1382
  123MOL   Cl9424738   2.412   4.706   3.378  0.0820  0.2535 -0.0026
  123MOL    C9524739   2.315   4.776   3.609 -0.4701  0.2534 -0.5073
  123MOL    C9624740   2.300   4.804   3.759  0.0664 -0.2981  0.8760
  123MOL    H9724741   2.634   4.653   3.554 -0.5833 -2.2465 -1.9668
  123MOL    H9824742   2.556   4.673   3.711 -0.6003  0.1102  0.1175
  123MOL    H9924743   2.240   4.824   3.548 -2.7756 -0.2242  1.8830
  123MOL   H10024744   2.201   4.767   3.783 -0.9779  0.3700 -2.1795
  123MOL   H10124745   2.366   4.740   3.818 -0.8749 -0.4286  1.7872
  123MOL   C10224746   2.315   4.948   3.801  0.1600  0.4162  0.2907
  123MOL   C10324747   2.284   4.978   3.948 -0.1811  0.0228 -0.5742
  123MOL  Cl10424748   2.391   4.909   4.060 -0.0137 -0.2023  0.2413
  123MOL   C10524749   2.177   5.044   3.992 -0.0662  0.2054  0.2123
  123MOL   C10624750   2.135   5.057   4.141 -0.0818  0.0160  0.0290
  123MOL   H10724751   2.419   4.978   3.788  0.2545 -0.0135  0.0372
  123MOL   H10824752   2.258   5.010   3.732  1.0964  1.4342  0.4336
  123MOL   H10924753   2.111   5.101   3.928  1.2687  1.1194 -0.3655
  123MOL   H11024754   2.028   5.075   4.147 -0.4520 -1.5263 -1.3776
  123MOL   H11124755   2.164   4.975   4.206  1.4649 -1.0393 -1.9131
  123MOL   C11224756   2.196   5.183   4.218 -0.1200  0.1718  0.5353
  123MOL   C11324757   2.180   5.163   4.365  0.0612 -0.7001  0.7497
  123MOL  Cl11424758   2.032   5.205   4.430  0.0992 -0.4497 -0.3220
  123MOL   C11524759   2.267   5.102   4.451  0.5130  0.2294  1.1013
  123MOL   C11624760   2.405   5.049   4.427  0.3842 -0.1959  0.2340
  123MOL   H11724761   2.301   5.188   4.186 -0.5495 -0.9030 -1.1202
  123MOL   H11824762   2.145   5.276   4.192 -1.0024  0.0173  1.7368
  123MOL   H11924763   2.228   5.091   4.551 -0.6897  0.8816  0.7157
  123MOL   H12024764   2.450   5.120   4.358 -1.1735  0.6490  0.0749
  123MOL   H12124765   2.403   4.951   4.379  0.7773 -0.5537  0.9381
  123MOL   C12224766   2.497   5.049   4.554 -0.0739  0.6319  0.4714
  123MOL   C12324767   2.631   4.978   4.528  0.9489  0.5618  0.1860
  123MOL  Cl12424768   2.659   4.841   4.636  0.3307  0.3235 -0.1539
  123MOL   C12524769   2.723   5.022   4.437  0.1559 -0.2577  0.5005
  123MOL   C12624770   2.726   5.146   4.352  0.4967  0.1005  0.0764
  123MOL   H12724771   2.524   5.149   4.587  1.1056  0.1157  1.1254
  123MOL   H12824772   2.457   4.980   4.629  0.9099 -0.3616  0.0999
  123MOL   H12924773   2.810   4.961   4.419  0.0508 -0.5159  0.8753
  123MOL   H13024774   2.725   5.115   4.247  0.6248  0.2334  0.0359
  123MOL   H13124775   2.640   5.209   4.376  0.0379 -1.2614  2.1044
  123MOL   C13224776   2.844   5.243   4.372  0.0267  0.1196  0.2112
  123MOL   C13324777   2.970   5.160   4.366  0.0135 -0.3468  0.1307
  123MOL  Cl13424778   2.992   5.092   4.207 -0.3373  0.2361 -0.5761
  123MOL   C13524779   3.057   5.126   4.463  0.4906 -0.1090 -0.2698
  123MOL   C13624780   3.055   5.157   4.614 -0.0957 -0.0706 -0.5103
  123MOL   H13724781   2.856   5.318   4.294  2.1617 -1.0361 -0.6373
  123MOL   H13824782   2.831   5.301   4.464 -1.1249  2.1575 -1.2115
  123MOL   H13924783   3.141   5.069   4.427  0.8515 -0.8556  1.6800
  123MOL   H14024784   3.114   5.248   4.624  2.0750 -1.3608 -1.2002
  123MOL   H14124785   2.954   5.193   4.634  0.0860  0.9692 -1.3835
  123MOL   C14224786   3.098   5.034   4.698 -0.3801  0.0566  1.2284
  123MOL   C14324787   3.104   5.074   4.847 -0.0296 -0.3719  0.3481
  123MOL  Cl14424788   3.256   5.143   4.885 -0.1343 -0.0846 -0.1250
  123MOL   C14524789   3.002   5.049   4.935 -0.0299 -0.4778 -0.5330
  123MOL   C14624790   3.007   5.098   5.085 -0.5981 -0.5651 -0.0378
  123MOL   H14724791   3.196   4.996   4.669 -0.7198 -0.9140  1.3367
  123MOL   H14824792   3.026   4.953   4.684  0.2563 -0.1138 -1.3115
  123MOL   H14924793   2.906   5.008   4.910 -0.3048 -0.5195  0.5636
  123MOL   H15024794   3.000   5.010   5.149  1.0090  1.1050  2.5205
  123MOL   H15124795   3.094   5.160   5.107 -2.4118  1.9391  0.2670
  123MOL   C15224796   2.879   5.170   5.110 -0.0535 -0.5162 -0.2625
  123MOL   C15324797   2.874   5.306   5.033  0.3207  0.3897  0.5388
  123MOL  Cl15424798   2.726   5.334   4.940  0.5269  0.5345  0.3487
  123MOL   C15524799   2.972   5.399   5.034  0.1838 -0.0181 -0.8098
  123MOL   C15624800   2.977   5.532   4.959 -0.3925  0.1301  0.2618
  123MOL   H15724801   2.798   5.101   5.086 -0.4221  0.0768 -0.7256
  123MOL   H15824802   2.879   5.188   5.218  1.0977  0.9618 -0.4846
  123MOL   H15924803   3.065   5.379   5.086 -0.3346 -0.1818  0.0671
  123MOL   H16024804   3.003   5.614   5.026  3.9105  1.5589 -2.9773
  123MOL   H16124805   2.876   5.551   4.922 -2.2327 -2.8589  3.3523
  123MOL   C16224806   3.084   5.520   4.848  0.2999  0.7212 -0.4868
  123MOL   C16324807   3.137   5.647   4.783  0.1501 -0.0014 -0.2433
  123MOL  Cl16424808   3.209   5.619   4.634  0.0680  0.2616  0.0602
  123MOL   C16524809   3.101   5.774   4.815  0.5924 -0.4461  0.3987
  123MOL   C16624810   3.137   5.899   4.734  0.1399  0.4840 -0.3921
  123MOL   H16724811   3.172   5.464   4.881 -0.4098 -0.0818  0.0390
  123MOL   H16824812   3.051   5.449   4.772 -0.4255  0.9983 -0.4332
  123MOL   H16924813   3.051   5.792   4.909 -0.2133 -0.7554  0.0348
  123MOL   H17024814   3.240   5.925   4.760  0.1671 -1.8057  2.0095
  123MOL   H17124815   3.131   5.883   4.626 -2.3557 -1.1475 -0.0429
  123MOL   C17224816   3.043   6.012   4.765  0.4789 -0.8955 -0.0673
  123MOL   C17324817   3.093   6.136   4.695 -0.0204 -0.2404 -0.0789
  123MOL  Cl17424818   2.991   6.183   4.561 -0.2930 -0.2448 -0.1809
  123MOL   C17524819   3.189   6.213   4.745  0.2024  0.5429 -0.3513
  123MOL   C17624820   3.249   6.339   4.685 -0.2095  0.6874 -0.0696
  123MOL   H17724821   3.036   6.036   4.871  0.4080 -0.4587 -0.1716
  123MOL   H17824822   2.938   5.991   4.745  0.0346  1.0600  0.1062
  123MOL   H17924823   3.238   6.188   4.838 -1.9227 -2.0744  0.1209
  123MOL   H18024824   3.246   6.428   4.749 -0.3154  0.2088  0.5960
  123MOL   H18124825   3.189   6.373   4.601 -0.9898  0.7464  0.5015
  123MOL   C18224826   3.387   6.309   4.637 -0.5259 -0.4376 -0.2171
  123MOL   C18324827   3.464   6.431   4.584  0.9516 -0.4418 -0.6606
  123MOL  Cl18424828   3.483   6.561   4.697 -0.0321  0.4431 -0.4561
  123MOL   C18524829   3.497   6.442   4.452 -0.2258  0.3919  0.4232
  123MOL   C18624830   3.552   6.564   4.384  1.0494 -0.1585 -0.0785
  123MOL   H18724831   3.435   6.279   4.730  1.9165  0.2804 -1.2136
  123MOL   H18824832   3.398   6.234   4.559 -1.5350 -0.0599 -0.7452
  123MOL   H18924833   3.486   6.354   4.389  1.0723  0.4996  0.0188
  123MOL   H19024834   3.508   6.590   4.287  0.4071  0.3957  0.3625
  123MOL   H19124835   3.509   6.648   4.438 -3.0784 -3.0107  1.3099
  123MOL   C19224836   3.705   6.548   4.363 -0.4101  0.4906  0.2937
  123MOL   C19324837   3.748   6.455   4.248 -0.2993  0.4158 -0.9478
  123MOL  Cl19424838   3.713   6.525   4.094 -0.2526 -0.0832  0.3295
  123MOL   C19524839   3.793   6.325   4.260 -0.2382  0.3772  0.4137
  123MOL   C19624840   3.815   6.244   4.391  0.2777  0.5472 -0.0370
  123MOL   H19724841   3.760   6.518   4.452  2.3971 -0.1418 -1.5699
  123MOL   H19824842   3.751   6.645   4.343 -1.0484  0.7906  0.2821
  123MOL   H19924843   3.818   6.271   4.170 -0.4319  1.2922 -0.1965
  123MOL   H20024844   3.777   6.283   4.486  0.4274 -0.3884  0.4143
  123MOL   H20124845   3.917   6.206   4.389 -0.3873 -1.3395  1.0462
  123MOL   H20224846   3.753   6.155   4.377  0.5518  0.1009  1.4748
  124MOL     C124847   6.118   5.703   0.875 -0.1841 -0.0449  0.6869
  124MOL     C224848   6.240   5.766   0.812 -0.4117 -0.9554 -0.2724
  124MOL    Cl324849   6.288   5.903   0.896  0.1978  0.3038 -0.0357
  124MOL     C424850   6.298   5.728   0.696  0.6756 -0.1111 -1.0207
  124MOL     C524851   6.250   5.620   0.604  0.1405  0.0368  0.6290
  124MOL     H624852   6.150   5.606   0.913 -2.3862 -0.6460  1.0700
  124MOL     H724853   6.045   5.698   0.794 -1.5850  0.3553  1.8910
  124MOL     H824854   6.381   5.790   0.666 -0.3116  1.7535  0.0011
  124MOL     H924855   6.210   5.546   0.672 -1.4482 -0.6970 -1.0646
  124MOL    H1024856   6.162   5.658   0.553  0.9147 -0.5939 -1.2610
  124MOL    H1124857   6.073   5.761   0.956  0.0669  0.2003  0.6506
  124MOL    C1224858   6.353   5.579   0.502 -0.0031 -0.2662  0.0731
  124MOL    C1324859   6.397   5.675   0.392 -0.4583  0.5333 -0.1263
  124MOL   Cl1424860   6.566   5.724   0.408  0.2713 -0.0370  0.1130
  124MOL    C1524861   6.333   5.712   0.284 -0.5647  0.3296  0.0190
  124MOL    C1624862   6.189   5.683   0.251 -0.2886  0.0108  0.0441
  124MOL    H1724863   6.439   5.563   0.567  0.3822  1.0339 -0.0871
  124MOL    H1824864   6.325   5.491   0.445 -0.1333  0.1873 -0.5781
  124MOL    H1924865   6.396   5.769   0.217  0.1966  0.0179  0.4592
  124MOL    H2024866   6.163   5.602   0.320  0.5613 -0.7690 -0.5446
  124MOL    H2124867   6.129   5.773   0.262  3.5948  2.9139 -1.7007
  124MOL    C2224868   6.177   5.628   0.111  0.7073 -0.2803 -0.2459
  124MOL    C2324869   6.037   5.637   0.048  0.3575 -1.0228 -0.0061
  124MOL   Cl2424870   6.061   5.610   8.297  0.3790  0.0327  0.1920
  124MOL    C2524871   5.919   5.645   0.104 -0.1807  0.2321  0.1836
  124MOL    C2624872   5.777   5.633   0.045  0.6918  0.6044  0.1676
  124MOL    H2724873   6.244   5.693   0.055  0.9700 -0.0409  0.3505
  124MOL    H2824874   6.220   5.529   0.101  2.5869  0.3771  0.9583
  124MOL    H2924875   5.917   5.655   0.212 -0.8478  0.6652  0.1296
  124MOL    H3024876   5.794   5.604   8.362  1.0084 -1.4196  0.7738
  124MOL    H3124877   5.726   5.556   0.102  0.8974  0.0788 -0.3527
  124MOL    C3224878   5.709   5.771   0.049  0.8944  0.3639 -0.1354
  124MOL    C3324879   5.780   5.888   8.416  0.3908  0.6960  0.3405
  124MOL   Cl3424880   5.830   5.995   0.119  0.3212  0.0787  0.0295
  124MOL    C3524881   5.803   5.905   8.285  0.8432 -0.8197  0.0642
  124MOL    C3624882   5.881   6.027   8.231 -0.2107  0.6141  0.0090
  124MOL    H3724883   5.615   5.750   8.418  0.5372 -0.1651  0.7081
  124MOL    H3824884   5.689   5.796   0.154  0.4450  1.0812 -0.3924
  124MOL    H3924885   5.755   5.832   8.223 -0.9592  0.4939 -0.1282
  124MOL    H4024886   5.842   6.073   8.140 -2.3162  2.8432  1.9479
  124MOL    H4124887   5.872   6.098   8.313  1.3118  1.1930 -0.3021
  124MOL    C4224888   6.028   5.996   8.210 -0.3532 -0.0974  0.2337
  124MOL    C4324889   6.120   6.110   8.172  0.2190 -0.0214 -0.3418
  124MOL   Cl4424890   6.045   6.243   8.103 -0.3422 -0.1853  0.0416
  124MOL    C4524891   6.249   6.112   8.203 -0.7465  0.2339 -0.5018
  124MOL    C4624892   6.340   5.999   8.257 -0.3352 -0.6341 -0.0488
  124MOL    H4724893   6.061   5.950   8.303 -1.5862  2.5814  2.0852
  124MOL    H4824894   6.038   5.913   8.140  0.7205 -0.2184  0.5367
  124MOL    H4924895   6.297   6.207   8.186  0.7794 -0.5140 -0.5171
  124MOL    H5024896   6.367   6.037   8.356 -0.3204  0.3416 -0.4178
  124MOL    H5124897   6.289   5.903   8.261  0.7856 -1.2722 -0.7987
  124MOL    C5224898   6.467   5.984   8.172 -0.0251  1.0795  0.0845
  124MOL    C5324899   6.587   5.907   8.235  0.6256 -0.1595 -0.1815
  124MOL   Cl5424900   6.736   5.988   8.190  0.4315  0.6740 -0.1792
  124MOL    C5524901   6.582   5.805   8.320 -0.0819  0.0420 -0.1029
  124MOL    C5624902   6.707   5.735   8.373 -0.2164 -0.0321  0.0224
  124MOL    H5724903   6.437   5.927   8.084  0.0762  0.8412  0.2047
  124MOL    H5824904   6.504   6.080   8.135 -0.1077  0.7855 -0.7778
  124MOL    H5924905   6.489   5.760   8.351  0.5355  0.5511  2.6021
  124MOL    H6024906   6.706   5.631   8.339 -2.4092  0.7539 -2.5302
  124MOL    H6124907   6.801   5.768   8.330 -0.5876 -1.7439 -2.2013
  124MOL    C6224908   6.716   5.743   0.108  0.0184  0.3631  0.2774
  124MOL    C6324909   6.861   5.724   0.159  0.1757  0.4346  0.8822
  124MOL   Cl6424910   6.950   5.871   0.191 -0.5564  0.2490 -0.1741
  124MOL    C6524911   6.916   5.607   0.175 -0.7736 -0.0679 -0.0661
  124MOL    C6624912   7.057   5.592   0.227  0.0431 -1.3304  0.0608
  124MOL    H6724913   6.689   5.844   0.137  2.1398  0.3619  2.3936
  124MOL    H6824914   6.645   5.673   0.152 -0.2678  1.3597  1.4403
  124MOL    H6924915   6.856   5.521   0.150  0.1953 -0.9819  0.6731
  124MOL    H7024916   7.111   5.685   0.242 -1.4003 -0.6629  1.3636
  124MOL    H7124917   7.116   5.529   0.161  1.0614 -0.6214  0.2922
  124MOL    C7224918   7.045   5.523   0.361 -0.1435 -0.0299 -0.4507
  124MOL    C7324919   7.182   5.509   0.420 -0.3065  0.2342  0.6714
  124MOL   Cl7424920   7.235   5.345   0.409  0.1985  0.1839  0.2935
  124MOL    C7524921   7.244   5.607   0.484  0.0858  0.0450  0.5450
  124MOL    C7624922   7.387   5.606   0.562  0.4047 -0.2126  0.2290
  124MOL    H7724923   6.981   5.435   0.367  0.6100 -0.5347  0.2172
  124MOL    H7824924   6.997   5.597   0.424  1.2784  1.8314 -1.4896
  124MOL    H7924925   7.202   5.706   0.491  2.0628  0.9537  0.0412
  124MOL    H8024926   7.396   5.499   0.582  0.1016 -0.6044 -1.6162
  124MOL    H8124927   7.374   5.648   0.662  1.3233  0.0848  0.2258
  124MOL    C8224928   7.504   5.672   0.491 -0.7594  0.6766 -0.0730
  124MOL    C8324929   7.645   5.649   0.546 -0.3247 -0.5365 -0.8455
  124MOL   Cl8424930   7.766   5.677   0.432  0.2820  0.1652 -0.0861
  124MOL    C8524931   7.670   5.598   0.667 -0.1461 -0.2921 -0.0087
  124MOL    C8624932   7.807   5.549   0.710  0.0408  0.0395  0.2304
  124MOL    H8724933   7.489   5.780   0.490 -3.5129  0.3289 -1.9745
  124MOL    H8824934   7.513   5.641   0.387  1.9778  1.7821 -0.2005
  124MOL    H8924935   7.588   5.572   0.733 -0.5525 -1.5234 -0.9608
  124MOL    H9024936   7.821   5.454   0.659  0.1911  0.5677 -0.7348
  124MOL    H9124937   7.878   5.618   0.664  0.2089 -1.6038 -2.0620
  124MOL    C9224938   7.835   5.534   0.863 -0.1014 -0.1469  0.1427
  124MOL    C9324939   7.807   5.660   0.946 -0.5984 -0.1053  0.0716
  124MOL   Cl9424940   7.661   5.657   1.038  0.0149  0.2148  0.4045
  124MOL    C9524941   7.892   5.764   0.961  0.0420 -0.2415 -0.5612
  124MOL    C9624942   8.027   5.772   0.895 -0.7449  0.4607  0.6659
  124MOL    H9724943   7.941   5.510   0.873 -0.0229  0.1447  0.0186
  124MOL    H9824944   7.778   5.447   0.895 -0.4202 -0.0401 -0.1235
  124MOL    H9924945   7.863   5.851   1.020  0.3210 -0.5814  0.0858
  124MOL   H10024946   8.106   5.733   0.960  1.0580  0.6033 -1.3920
  124MOL   H10124947   8.041   5.716   0.803 -0.1425  2.0802 -0.2590
  124MOL   C10224948   8.076   5.920   0.871 -0.2974 -0.6348 -0.2366
  124MOL   C10324949   7.982   6.009   0.798  0.1034  0.1936  0.3562
  124MOL  Cl10424950   7.965   6.154   0.894 -0.0136 -0.3312  0.0449
  124MOL   C10524951   7.912   5.978   0.684 -0.2503 -0.0056  0.1939
  124MOL   C10624952   7.815   6.072   0.618 -0.2093 -0.5406 -0.0818
  124MOL   H10724953   8.096   5.973   0.964 -2.3962  0.6809 -0.5077
  124MOL   H10824954   8.173   5.922   0.820 -0.1497 -0.1006  0.0647
  124MOL   H10924955   7.925   5.880   0.640  0.3372 -0.0430  0.4346
  124MOL   H11024956   7.777   6.141   0.694  2.3713  1.2697 -0.3800
  124MOL   H11124957   7.872   6.137   0.552  0.3642  1.0031  1.8975
  124MOL   C11224958   7.701   6.002   0.542 -0.4069 -0.2179  0.4900
  124MOL   C11324959   7.636   6.079   0.433  0.5055  0.5303  0.4686
  124MOL  Cl11424960   7.653   6.002   0.284  0.1720 -0.2966 -0.1266
  124MOL   C11524961   7.568   6.190   0.453  0.1068  0.6511 -0.2698
  124MOL   C11624962   7.541   6.262   0.582  0.3857  0.7089 -0.0741
  124MOL   H11724963   7.757   5.918   0.501 -3.5148 -1.2067 -1.9169
  124MOL   H11824964   7.637   5.948   0.611  1.2760 -1.6327  0.9799
  124MOL   H11924965   7.533   6.237   0.363 -2.7057  0.6636  0.7848
  124MOL   H12024966   7.574   6.195   0.661  0.6510 -2.5745 -2.8854
  124MOL   H12124967   7.434   6.270   0.601  0.2830 -1.3226  0.2543
  124MOL   C12224968   7.603   6.403   0.594  0.3319 -0.1223 -0.7151
  124MOL   C12324969   7.586   6.467   0.734 -0.1381  0.8318  0.1851
  124MOL  Cl12424970   7.699   6.395   0.841  0.2584 -0.1225  0.0751
  124MOL   C12524971   7.508   6.567   0.771 -0.0928 -0.2836  0.1450
  124MOL   C12624972   7.405   6.633   0.681  0.4508 -0.1722 -0.0640
  124MOL   H12724973   7.710   6.398   0.576  0.9433  1.5041  2.0642
  124MOL   H12824974   7.560   6.470   0.519  0.1169 -0.5042 -0.9309
  124MOL   H12924975   7.522   6.600   0.873 -1.0334  1.5728 -0.3008
  124MOL   H13024976   7.415   6.741   0.673  1.1539 -0.0268  2.2231
  124MOL   H13124977   7.410   6.578   0.587  1.2905 -0.6878  0.2727
  124MOL   C13224978   7.267   6.594   0.739 -0.2517  0.0057 -0.8551
  124MOL   C13324979   7.154   6.581   0.637  0.0611  0.7776  0.3781
  124MOL  Cl13424980   7.141   6.411   0.575  0.0682  0.0922  0.0110
  124MOL   C13524981   7.072   6.676   0.592 -0.1200  0.5363  0.6849
  124MOL   C13624982   7.073   6.824   0.626  0.1239 -0.3029  0.0541
  124MOL   H13724983   7.273   6.498   0.790 -0.4817 -0.1415 -1.1045
  124MOL   H13824984   7.234   6.665   0.815 -3.5510  0.8713 -2.9941
  124MOL   H13924985   6.995   6.652   0.520  1.1344 -1.8543  0.0900
  124MOL   H14024986   7.008   6.841   0.711  1.3208  0.2970  0.8608
  124MOL   H14124987   7.172   6.837   0.669  0.5228 -2.3167 -0.2199
  124MOL   C14224988   7.042   6.932   0.515 -0.2353 -0.4892 -0.5529
  124MOL   C14324989   7.070   7.079   0.558  0.1798 -0.1905 -0.9453
  124MOL  Cl14424990   7.220   7.096   0.639 -0.5445  0.4831  0.4176
  124MOL   C14524991   6.988   7.183   0.535 -0.3690  0.6700 -0.4481
  124MOL   C14624992   7.024   7.326   0.555  0.0093  0.1351 -0.5480
  124MOL   H14724993   6.946   6.902   0.473 -0.8014 -2.8703  2.3492
  124MOL   H14824994   7.096   6.908   0.424  0.0173 -1.5772 -0.1171
  124MOL   H14924995   6.891   7.156   0.497  0.1850 -0.0466 -1.3991
  124MOL   H15024996   7.129   7.335   0.582 -0.1443 -0.6296  0.3232
  124MOL   H15124997   7.013   7.386   0.465  1.5001  0.6693 -0.3797
  124MOL   C15224998   6.959   7.391   0.671  0.2010  0.1767  0.0577
  124MOL   C15324999   7.013   7.528   0.713  0.4190 -0.3977 -0.1337
  124MOL  Cl15425000   6.891   7.658   0.713 -0.1431 -0.3425 -0.4611
  124MOL   C15525001   7.140   7.545   0.751 -0.4796  0.1072 -0.3852
  124MOL   C15625002   7.204   7.673   0.801  0.1196  0.0174  0.4277
  124MOL   H15725003   6.852   7.393   0.650 -0.0908 -1.7666  1.3342
  124MOL   H15825004   6.965   7.326   0.758 -3.7636 -1.2619 -0.6289
  124MOL   H15925005   7.204   7.458   0.752  0.7388  0.9549 -2.2065
  124MOL   H16025006   7.181   7.679   0.908 -0.1558  1.8864  0.2898
  124MOL   H16125007   7.157   7.748   0.737  1.0023  0.4044  0.2371
  124MOL   C16225008   7.352   7.663   0.775 -0.0057  0.1794 -0.4663
  124MOL   C16325009   7.405   7.800   0.802  0.4377 -0.4136  0.2958
  124MOL  Cl16425010   7.436   7.839   0.966 -0.4051 -0.1921  0.3513
  124MOL   C16525011   7.427   7.885   0.700 -0.1509  0.6431  0.1706
  124MOL   C16625012   7.479   8.031   0.707 -0.2169 -0.1378 -0.3319
  124MOL   H16725013   7.385   7.587   0.846 -1.4654 -3.0111 -3.0829
  124MOL   H16825014   7.370   7.642   0.670  0.6758  0.8242 -0.4866
  124MOL   H16925015   7.410   7.855   0.598  2.2617 -0.4127  0.0657
  124MOL   H17025016   7.408   8.105   0.672 -0.2437  0.8660  1.7746
  124MOL   H17125017   7.489   8.071   0.808 -1.5780 -1.4765  0.3588
  124MOL   C17225018   7.612   8.050   0.626 -0.2227  0.1459 -0.2992
  124MOL   C17325019   7.679   8.188   0.629  0.0374  0.7103  0.3683
  124MOL  Cl17425020   7.783   8.203   0.495  0.0170  0.5479 -0.3053
  124MOL   C17525021   7.667   8.282   0.728 -0.6446 -0.3873 -0.3644
  124MOL   C17625022   7.744   8.408   0.734  0.3435 -0.5660 -0.3368
  124MOL   H17725023   7.590   8.024   0.522  1.4370 -0.1434 -0.5931
  124MOL   H17825024   7.689   7.983   0.664  2.3106  2.7537 -0.6733
  124MOL   H17925025   7.601   8.259   0.811  1.4188  0.8855  1.6838
  124MOL   H18025026   7.674   0.069   0.749  1.6006  0.4718 -0.0570
  124MOL   H18125027   7.789   0.013   0.639 -1.2862 -0.9471 -1.2217
  124MOL   C18225028   7.840   8.419   0.846  0.0323 -0.0745 -0.2060
  124MOL   C18325029   7.944   0.109   0.833  0.1979  0.2146 -0.3537
  124MOL  Cl18425030   8.103   0.050   0.837 -0.0266  0.1013 -0.1245
  124MOL   C18525031   7.928   0.236   0.802  0.4654 -0.9938  0.2447
  124MOL   C18625032   8.035   0.342   0.775  0.3047  0.2684 -0.3171
  124MOL   H18725033   7.797   8.419   0.946 -0.4587 -0.3420 -0.4201
  124MOL   H18825034   7.899   8.328   0.845  0.1085 -0.0332  0.3111
  124MOL   H18925035   7.825   0.268   0.806 -0.0275 -2.5312  0.2443
  124MOL   H19025036   8.124   0.290   0.741  1.3211  0.5466  1.8194
  124MOL   H19125037   7.997   0.404   0.693 -0.3419 -0.8010 -0.8414
  124MOL   C19225038   8.062   0.430   0.900  1.1257  0.0013 -0.1557
  124MOL   C19325039   8.204   0.498   0.899  0.7316  0.0427 -0.4076
  124MOL  Cl19425040   8.200   0.655   0.837 -0.1897 -0.2369 -0.1785
  124MOL   C19525041   8.326   0.449   0.938  0.6420 -0.5810 -0.1496
  124MOL   C19625042   8.366   0.313   1.000  0.0470  0.3293 -0.2847
  124MOL   H19725043   8.059   0.372   0.992 -0.2205 -0.0841 -0.2530
  124MOL   H19825044   7.982   0.502   0.910 -1.6975 -2.4831 -3.4977
  124MOL   H19925045   8.411   0.513   0.919  2.7035 -2.7319  1.5398
  124MOL   H20025046   0.020   0.326   1.079 -0.8550  0.7186  0.5217
  124MOL   H20125047   8.398   0.230   0.937  1.8970 -0.6585  1.8826
  124MOL   H20225048   8.274   0.285   1.052  0.9149 -2.0908  0.0053
  125MOL     C125049   6.077   2.008   6.745  0.0239 -0.6238  0.3576
  125MOL     C225050   5.961   2.002   6.845 -0.1164  1.3958 -0.2529
  125MOL    Cl325051   6.011   1.943   6.999 -0.0868 -0.0276 -0.0116
  125MOL     C425052   5.837   2.057   6.839 -0.7440 -0.4841  0.6435
  125MOL     C525053   5.783   2.120   6.714 -0.1043 -0.0195  1.0194
  125MOL     H625054   6.127   2.104   6.762 -0.8376 -0.0167 -0.5402
  125MOL     H725055   6.043   1.999   6.642  2.6912  2.7598 -0.9458
  125MOL     H825056   5.769   2.056   6.922 -2.1557 -0.1997 -0.4995
  125MOL     H925057   5.737   2.218   6.731  1.1111  0.8458 -0.4841
  125MOL    H1025058   5.854   2.129   6.631  0.5907 -1.5056  1.4337
  125MOL    H1125059   6.153   1.934   6.771  2.5547  1.4949 -0.7984
  125MOL    C1225060   5.674   2.024   6.658 -0.4212 -0.0749  0.0920
  125MOL    C1325061   5.568   1.983   6.753 -0.2266  0.2762  0.0856
  125MOL   Cl1425062   5.465   2.116   6.794 -0.4894 -0.0052 -0.1677
  125MOL    C1525063   5.550   1.858   6.806 -0.6508  0.1119 -0.0788
  125MOL    C1625064   5.641   1.735   6.793  0.0604  0.8126 -0.1678
  125MOL    H1725065   5.628   2.059   6.566 -0.5765 -3.2365 -1.1014
  125MOL    H1825066   5.731   1.937   6.628  0.6638  1.1798 -1.5315
  125MOL    H1925067   5.467   1.837   6.872  0.9127 -2.0121  1.3076
  125MOL    H2025068   5.719   1.751   6.718  2.5700  1.0706  2.4260
  125MOL    H2125069   5.683   1.705   6.889 -1.1089  0.3213  0.2021
  125MOL    C2225070   5.557   1.613   6.749 -0.2806 -0.1738  0.7870
  125MOL    C2325071   5.619   1.472   6.746  0.2490  0.4291 -0.4836
  125MOL   Cl2425072   5.498   1.343   6.763 -0.2579 -0.0414  0.0924
  125MOL    C2525073   5.751   1.448   6.751 -0.0259 -0.4227  0.3644
  125MOL    C2625074   5.808   1.305   6.767  0.3294  0.0281 -0.3479
  125MOL    H2725075   5.478   1.600   6.822  0.3107 -1.8920  1.1503
  125MOL    H2825076   5.516   1.627   6.649 -2.1447 -0.9278  1.4266
  125MOL    H2925077   5.822   1.529   6.743 -1.2815  0.9152  2.3496
  125MOL    H3025078   5.727   1.234   6.752  0.2491 -0.1551  0.9226
  125MOL    H3125079   5.876   1.297   6.683 -0.5117  2.9139 -1.3632
  125MOL    C3225080   5.887   1.281   6.899 -0.9986  0.6099  0.1772
  125MOL    C3325081   5.798   1.281   7.020  0.0274 -0.0431 -0.1414
  125MOL   Cl3425082   5.794   1.434   7.093 -0.2804 -0.2091 -0.0533
  125MOL    C3525083   5.715   1.183   7.061 -0.8782 -0.8739  0.3355
  125MOL    C3625084   5.609   1.187   7.166 -0.3027 -0.2207 -0.5830
  125MOL    H3725085   5.939   1.186   6.895 -2.0237 -0.0511  1.9614
  125MOL    H3825086   5.970   1.348   6.922 -0.1400 -0.3147 -0.1819
  125MOL    H3925087   5.723   1.097   6.997 -1.0450  0.1145 -1.0387
  125MOL    H4025088   5.625   1.106   7.237  0.8941  0.8300  0.3639
  125MOL    H4125089   5.634   1.274   7.227 -0.5516 -0.3034 -0.3632
  125MOL    C4225090   5.467   1.192   7.122  0.7979 -0.3009  0.2670
  125MOL    C4325091   5.375   1.221   7.239  0.0454  0.0377  0.0804
  125MOL   Cl4425092   5.366   1.397   7.284  0.3333 -0.1595  0.4595
  125MOL    C4525093   5.305   1.130   7.305  0.2681 -0.3230 -0.6911
  125MOL    C4625094   5.298   0.980   7.285  0.1560  0.4962  0.2994
  125MOL    H4725095   5.443   1.266   7.046 -0.8589 -1.5604 -0.4599
  125MOL    H4825096   5.440   1.100   7.069  0.5728  0.1683 -0.4285
  125MOL    H4925097   5.236   1.158   7.384 -1.0113 -0.0912 -1.8712
  125MOL    H5025098   5.215   0.949   7.221  0.2459  0.1128  0.3679
  125MOL    H5125099   5.394   0.964   7.236  0.3389  0.0349  0.8086
  125MOL    C5225100   5.292   0.899   7.412 -1.1956 -0.1175  0.3336
  125MOL    C5325101   5.371   0.771   7.415  0.1051  0.0578  0.7016
  125MOL   Cl5425102   5.544   0.792   7.399 -0.1407  0.4566 -0.0095
  125MOL    C5525103   5.310   0.651   7.433 -0.0786 -1.3640 -0.1479
  125MOL    C5625104   5.372   0.517   7.448  0.3185  0.2288 -0.0702
  125MOL    H5725105   5.314   0.975   7.487  0.5678  1.6911 -1.9583
  125MOL    H5825106   5.188   0.875   7.434 -1.2919  0.1756  0.1887
  125MOL    H5925107   5.203   0.644   7.446 -0.0619 -1.1721  0.0851
  125MOL    H6025108   5.443   0.501   7.529  0.0735  0.2811  0.1558
  125MOL    H6125109   5.290   0.459   7.490  1.7088 -1.2267  0.7079
  125MOL    C6225110   5.429   0.465   7.318 -0.4961  0.4186  0.8734
  125MOL    C6325111   5.444   0.316   7.292  0.2304  0.3265  0.1914
  125MOL   Cl6425112   5.509   0.289   7.134  0.4809  0.0635 -0.3239
  125MOL    C6525113   5.409   0.223   7.380  0.4829  0.3747 -0.0730
  125MOL    C6625114   5.404   0.070   7.352  0.0833  0.3820 -0.0802
  125MOL    H6725115   5.372   0.500   7.232 -0.6472  0.8506  1.1516
  125MOL    H6825116   5.532   0.499   7.306 -0.4749  0.2306  0.4972
  125MOL    H6925117   5.381   0.254   7.479  2.5128 -0.4323  0.7703
  125MOL    H7025118   5.470   0.045   7.268  0.5837 -1.9806  0.9694
  125MOL    H7125119   5.300   0.052   7.328 -0.2483  1.5804  0.4182
  125MOL    C7225120   5.458   8.404   7.464  0.3806 -0.3137 -0.1685
  125MOL    C7325121   5.409   8.263   7.460  0.4969 -0.1429 -0.3474
  125MOL   Cl7425122   5.255   8.232   7.545  0.0617 -0.1081 -0.2563
  125MOL    C7525123   5.469   8.164   7.394  0.8557  0.5131 -0.1545
  125MOL    C7625124   5.435   8.016   7.385  0.1840 -0.0098  0.5137
  125MOL    H7725125   5.431   0.025   7.561  0.2488 -0.3926 -0.1706
  125MOL    H7825126   5.567   8.405   7.457  0.3282 -0.2425 -1.1565
  125MOL    H7925127   5.559   8.197   7.345  1.3657 -0.1795  0.3004
  125MOL    H8025128   5.408   8.000   7.280  0.0082 -1.9282  0.8216
  125MOL    H8125129   5.344   8.001   7.443 -0.4551  1.8528  0.0193
  125MOL    C8225130   5.546   7.923   7.441  0.4691  0.7990  0.3243
  125MOL    C8325131   5.503   7.778   7.459  0.1366  0.0533 -0.4670
  125MOL   Cl8425132   5.467   7.730   7.622 -0.0546 -0.0091  0.4296
  125MOL    C8525133   5.507   7.687   7.367  0.5225 -0.1509  0.5837
  125MOL    C8625134   5.478   7.532   7.380 -0.2328  0.0205  0.0593
  125MOL    H8725135   5.587   7.964   7.533 -0.7666  2.0648  0.3245
  125MOL    H8825136   5.629   7.933   7.371  0.9459 -1.3428  0.5453
  125MOL    H8925137   5.529   7.730   7.270  1.7532  1.9454  1.7607
  125MOL    H9025138   5.402   7.511   7.455 -0.1216  0.0280  0.1740
  125MOL    H9125139   5.440   7.492   7.287  2.1602 -1.1103 -0.4858
  125MOL    C9225140   5.607   7.458   7.415 -0.0440 -0.2256  0.3037
  125MOL    C9325141   5.577   7.309   7.395  0.0593 -0.1304 -0.4591
  125MOL   Cl9425142   5.566   7.273   7.226  0.2014 -0.3337 -0.2192
  125MOL    C9525143   5.566   7.212   7.488 -0.3594  0.1066  0.0802
  125MOL    C9625144   5.568   7.223   7.637 -0.3663 -0.8194 -0.6415
  125MOL    H9725145   5.641   7.479   7.516 -0.3005  1.2581  0.0888
  125MOL    H9825146   5.692   7.499   7.361  0.4286  1.2250  2.0706
  125MOL    H9925147   5.554   7.109   7.458 -0.0643  0.3910 -1.0204
  125MOL   H10025148   5.568   7.327   7.667  0.4874 -0.5103 -1.6569
  125MOL   H10125149   5.476   7.175   7.671  0.9484 -2.2600  0.9933
  125MOL   C10225150   5.678   7.150   7.709  0.8641 -0.0627 -0.2267
  125MOL   C10325151   5.653   7.153   7.860  0.7575  0.1573  0.3359
  125MOL  Cl10425152   5.733   7.281   7.941 -0.1270 -0.1954  0.1611
  125MOL   C10525153   5.588   7.063   7.932  0.2324 -0.7924  0.5794
  125MOL   C10625154   5.566   7.073   8.080  0.0416 -0.4614  0.5062
  125MOL   H10725155   5.688   7.050   7.668  0.3549 -0.8124  1.4269
  125MOL   H10825156   5.778   7.188   7.690  1.0955 -0.9692 -0.8487
  125MOL   H10925157   5.566   6.969   7.884  0.2676 -0.0068 -1.0064
  125MOL   H11025158   5.664   7.078   8.126  0.0014  1.6752  0.4097
  125MOL   H11125159   5.530   7.175   8.097  1.7609  0.2944 -0.2870
  125MOL   C11225160   5.473   6.975   8.149  0.0979 -0.2926  0.6273
  125MOL   C11325161   5.457   7.019   8.293 -0.9583  0.2630 -0.0654
  125MOL  Cl11425162   5.589   6.973   8.394  0.1224  0.1194 -0.1038
  125MOL   C11525163   5.354   7.085   8.338  0.6582  0.0181 -0.5562
  125MOL   C11625164   5.236   7.143   8.263 -0.3526  1.0451 -0.6908
  125MOL   H11725165   5.377   6.975   8.096 -0.7085 -2.0675  2.0259
  125MOL   H11825166   5.512   6.874   8.143  0.5588 -0.0349 -0.8035
  125MOL   H11925167   5.347   7.105   0.023  0.0262 -2.4477 -0.1122
  125MOL   H12025168   5.158   7.092   8.319  1.7470 -2.1909 -0.5918
  125MOL   H12125169   5.234   7.115   8.158  0.3853 -3.0292  0.3250
  125MOL   C12225170   5.220   7.291   8.281  0.0226 -0.5233 -0.3959
  125MOL   C12325171   5.125   7.346   8.176  0.5121 -0.6466  0.0575
  125MOL  Cl12425172   4.978   7.394   8.243 -0.1450 -0.0220 -0.1175
  125MOL   C12525173   5.147   7.384   8.049  0.0514 -0.0242  0.0753
  125MOL   C12625174   5.275   7.366   7.965  0.1624  0.8235  1.1163
  125MOL   H12725175   5.190   7.307   8.384  2.0002  2.0507 -0.1709
  125MOL   H12825176   5.322   7.329   8.284  0.3613 -1.5016  1.7999
  125MOL   H12925177   5.068   7.433   7.995 -0.1294 -0.1609  0.2129
  125MOL   H13025178   5.289   7.462   7.916  1.3567  0.7358  1.2886
  125MOL   H13125179   5.354   7.344   8.037 -1.9995 -4.9541  2.0367
  125MOL   C13225180   5.246   7.250   7.866 -0.2849  1.1201  0.1787
  125MOL   C13325181   5.135   7.274   7.768 -0.4055  0.9124  0.9385
  125MOL  Cl13425182   5.204   7.336   7.615 -0.0230  0.2789  0.2693
  125MOL   C13525183   5.007   7.230   7.772 -0.4647  0.6510 -0.4760
  125MOL   C13625184   4.934   7.162   7.883  0.3722 -0.4431  0.5692
  125MOL   H13725185   5.344   7.231   7.822 -1.1996 -0.5495 -1.2238
  125MOL   H13825186   5.227   7.154   7.914 -0.3402  0.8328 -0.4087
  125MOL   H13925187   4.956   7.238   7.678  3.3196 -0.1541 -2.6994
  125MOL   H14025188   4.962   7.202   7.981  1.9371  0.7665 -0.3434
  125MOL   H14125189   4.829   7.179   7.861  0.6083  3.1616  1.7778
  125MOL   C14225190   4.962   7.019   7.884  0.1084 -0.1924 -0.2503
  125MOL   C14325191   4.885   6.959   8.003  0.5242 -0.6791  0.3589
  125MOL  Cl14425192   4.974   6.954   8.154 -0.1347 -0.3829 -0.3711
  125MOL   C14525193   4.760   6.921   7.996  0.5607  0.2538 -0.0336
  125MOL   C14625194   4.681   6.861   8.114 -0.3189  0.1210  0.2473
  125MOL   H14725195   5.068   6.993   7.889  0.2289  0.6870  2.6950
  125MOL   H14825196   4.934   6.979   7.787 -0.0827 -1.7667  0.4501
  125MOL   H14925197   4.707   6.930   7.903  1.7603 -0.6439 -0.8098
  125MOL   H15025198   4.747   6.838   8.198 -0.0002  0.4536  0.0857
  125MOL   H15125199   4.611   6.937   8.150  1.0214  2.7757 -2.5565
  125MOL   C15225200   4.604   6.733   8.078  0.5799 -0.1525  0.3691
  125MOL   C15325201   4.497   6.698   8.181  0.6346 -0.5272  0.1455
  125MOL  Cl15425202   4.352   6.647   8.102 -0.2581  0.1481 -0.0030
  125MOL   C15525203   4.512   6.696   8.316  0.0059 -0.1545  0.2952
  125MOL   C15625204   4.412   6.664   8.420  0.9331  0.1464  0.2086
  125MOL   H15725205   4.553   6.759   7.985 -0.3891  0.1400  0.9806
  125MOL   H15825206   4.671   6.650   8.052 -0.9859 -2.1334  2.5140
  125MOL   H15925207   4.603   6.724   8.366 -0.6543 -1.2302  2.1281
  125MOL   H16025208   4.466   6.598   0.066  1.6418  0.9635  0.4487
  125MOL   H16125209   4.323   6.613   8.381  0.1332  1.1256  0.7205
  125MOL   C16225210   4.355   6.796   0.065 -0.2776  0.5040 -0.0747
  125MOL   C16325211   4.297   6.774   0.204 -0.4142 -0.3230  0.7698
  125MOL  Cl16425212   4.410   6.821   0.331  0.2309 -0.0125 -0.7343
  125MOL   C16525213   4.169   6.736   0.227 -0.3694 -0.0598 -0.5114
  125MOL   C16625214   4.089   6.732   0.360 -0.3490 -0.3083 -0.2440
  125MOL   H16725215   4.435   6.870   0.063 -0.2011  0.4390  0.5917
  125MOL   H16825216   4.278   6.844   0.005 -0.0544  0.3202 -0.5096
  125MOL   H16925217   4.101   6.717   0.146 -0.1777 -2.1856 -0.1866
  125MOL   H17025218   4.028   6.641   0.358  1.3802 -1.5304  0.6204
  125MOL   H17125219   4.165   6.709   0.436  0.1992 -1.7892 -1.2061
  125MOL   C17225220   4.005   6.864   0.384 -0.3658  0.0288  0.5008
  125MOL   C17325221   3.891   6.878   0.287  0.3387  0.6838 -0.3280
  125MOL  Cl17425222   3.923   7.003   0.178  0.0029  0.2816 -0.2035
  125MOL   C17525223   3.774   6.812   0.291  0.4671 -0.4737  0.7065
  125MOL   C17625224   3.649   6.832   0.199  0.4572 -0.0663 -0.3729
  125MOL   H17725225   4.074   6.948   0.389  2.0966 -1.9284  0.3421
  125MOL   H17825226   3.968   6.863   0.487  0.9621 -0.1370  0.9836
  125MOL   H17925227   3.754   6.738   0.367 -0.9954  0.3922  1.1805
  125MOL   H18025228   3.671   6.919   0.138 -3.5940  1.5596  0.2946
  125MOL   H18125229   3.553   6.861   0.242  0.7733  1.2659 -0.5487
  125MOL   C18225230   3.623   6.710   0.104 -0.4918  0.2169 -0.9646
  125MOL   C18325231   3.752   6.647   0.053 -0.4959 -0.3209 -0.4666
  125MOL  Cl18425232   3.815   6.749   8.348 -0.4048 -0.2832 -0.2812
  125MOL   C18525233   3.807   6.536   0.101 -0.0179 -0.1052 -0.1660
  125MOL   C18625234   3.945   6.468   0.055 -0.4710 -0.0237  0.3674
  125MOL   H18725235   3.558   6.652   0.169 -1.4270  1.1183 -1.0853
  125MOL   H18825236   3.569   6.733   0.012  2.4262 -1.1583 -3.1117
  125MOL   H18925237   3.758   6.487   0.184  1.0457  0.9590  1.1189
  125MOL   H19025238   4.002   6.526   8.403  0.4346 -0.9395  0.3218
  125MOL   H19125239   4.018   6.467   0.136 -0.4510  0.0553  0.3501
  125MOL   C19225240   3.913   6.325   0.005  0.6670 -0.3442 -0.1150
  125MOL   C19325241   4.028   6.260   8.346 -0.7973  0.3988  0.3791
  125MOL  Cl19425242   4.111   6.131   0.005 -0.0233 -0.0337  0.1117
  125MOL   C19525243   4.055   6.285   8.215  0.6120 -0.0060 -0.4182
  125MOL   C19625244   3.965   6.373   8.125  0.3732  0.3593 -0.0582
  125MOL   H19725245   3.826   6.311   8.362 -0.1992  1.8419  0.5224
  125MOL   H19825246   3.882   6.264   0.090 -1.4307 -0.0875 -0.6511
  125MOL   H19925247   4.134   6.239   8.158  1.0697  2.3374 -1.7268
  125MOL   H20025248   3.910   6.319   8.048  1.4750  0.5061 -0.9616
  125MOL   H20125249   4.037   6.424   8.062 -0.2656  1.2909 -0.0309
  125MOL   H20225250   3.906   6.449   8.175  0.5911  0.1768  0.4837
  126MOL     C125251   4.335   4.320   8.044  0.0201  0.7679 -0.4980
  126MOL     C225252   4.352   4.187   8.119  0.0682 -0.4109 -0.0584
  126MOL    Cl325253   4.503   4.161   8.194 -0.1644 -0.1595  0.0079
  126MOL     C425254   4.255   4.105   8.150 -0.0472 -0.2074 -0.9289
  126MOL     C525255   4.112   4.116   8.108 -0.1416 -0.4562  0.8086
  126MOL     H625256   4.333   4.326   7.935  2.4873 -1.1282 -0.7056
  126MOL     H725257   4.427   4.375   8.066  0.4297  0.1133 -0.5692
  126MOL     H825258   4.281   4.021   8.212  1.2142  1.2211  0.5041
  126MOL     H925259   4.091   4.194   8.035 -1.6359 -1.7838 -0.2157
  126MOL    H1025260   4.087   4.022   8.059  0.4269 -0.0929 -0.1796
  126MOL    H1125261   4.252   4.381   8.079 -1.4783 -1.6827  0.3110
  126MOL    C1225262   4.029   4.147   8.234 -0.2565 -0.0931  0.6323
  126MOL    C1325263   3.890   4.161   8.200  0.3154 -0.2323  0.1144
  126MOL   Cl1425264   3.807   4.019   8.226 -0.3153 -0.2989 -0.5194
  126MOL    C1525265   3.832   4.283   8.167 -0.0834 -0.0566  0.9604
  126MOL    C1625266   3.894   4.421   8.156  0.3274  0.5208 -0.1833
  126MOL    H1725267   4.032   4.086   8.325  0.8534  0.6644  1.1147
  126MOL    H1825268   4.068   4.237   8.281  0.8094 -0.5409  0.6200
  126MOL    H1925269   3.725   4.286   8.149 -0.0225 -0.0444  0.5864
  126MOL    H2025270   3.824   4.473   8.221 -2.8851 -0.9800 -2.2832
  126MOL    H2125271   3.998   4.423   8.188  0.6319 -3.0475 -0.6919
  126MOL    C2225272   3.887   4.464   8.010  0.1901  0.1790 -0.2704
  126MOL    C2325273   3.977   4.581   7.992  0.2081  0.3745 -0.6002
  126MOL   Cl2425274   3.893   4.720   8.055  0.0594 -0.2172  0.1104
  126MOL    C2525275   4.101   4.575   7.948  0.2988  0.2149  0.4758
  126MOL    C2625276   4.185   4.701   7.934  0.3402  0.2972  0.8968
  126MOL    H2725277   3.921   4.374   7.959 -2.7708 -1.9269  1.2851
  126MOL    H2825278   3.788   4.503   7.984 -0.3411 -0.7423  0.3183
  126MOL    H2925279   4.142   4.480   7.918  0.1186  0.1555  0.4157
  126MOL    H3025280   4.144   4.784   7.993 -0.2371  0.9301 -0.3719
  126MOL    H3125281   4.285   4.681   7.970  1.5529  2.8782 -0.8465
  126MOL    C3225282   4.212   4.731   7.782 -0.6154 -0.0394  0.1332
  126MOL    C3325283   4.329   4.832   7.767  0.0007  0.0152 -0.7753
  126MOL   Cl3425284   4.471   4.744   7.711 -0.4818 -0.0843  0.1967
  126MOL    C3525285   4.324   4.962   7.792  0.0339 -0.6533  0.9309
  126MOL    C3625286   4.441   5.050   7.771  0.0063 -0.3656 -0.4351
  126MOL    H3725287   4.235   4.638   7.730 -0.7190  0.8099 -1.4772
  126MOL    H3825288   4.129   4.779   7.730  1.3024  2.4133 -0.7534
  126MOL    H3925289   4.227   5.002   7.818 -0.5439  1.1028 -3.4217
  126MOL    H4025290   4.528   4.991   7.738  0.3486 -1.2446  1.9686
  126MOL    H4125291   4.422   5.111   7.683 -3.7072  0.4392  0.8645
  126MOL    C4225292   4.478   5.125   7.894 -0.1450 -0.2845  0.4223
  126MOL    C4325293   4.623   5.186   7.882  0.2879 -0.0534 -0.3472
  126MOL   Cl4425294   4.619   5.353   7.831 -0.0810 -0.1492  0.0352
  126MOL    C4525295   4.739   5.120   7.890 -0.5526 -0.0102  0.0278
  126MOL    C4625296   4.758   4.971   7.925 -0.1430  0.8172 -0.4655
  126MOL    H4725297   4.409   5.204   7.922 -0.6066  0.8960 -3.6806
  126MOL    H4825298   4.496   5.055   7.975  4.8311 -1.7985 -1.7292
  126MOL    H4925299   4.836   5.167   7.886  0.2787 -1.7075 -0.2089
  126MOL    H5025300   4.772   4.953   8.031 -1.3703 -0.9195 -0.5750
  126MOL    H5125301   4.669   4.918   7.891 -1.0350  0.9538  1.5514
  126MOL    C5225302   4.870   4.902   7.840 -0.0326 -0.6877  0.0576
  126MOL    C5325303   4.895   4.762   7.895  0.3896 -0.4156 -0.1001
  126MOL   Cl5425304   5.002   4.754   8.033  0.4173  0.6252  0.1657
  126MOL    C5525305   4.822   4.655   7.854  0.1960  0.4864 -0.2707
  126MOL    C5625306   4.828   4.516   7.900 -0.2251  0.7193 -0.2473
  126MOL    H5725307   4.850   4.891   7.733  0.9449 -0.9013 -0.1101
  126MOL    H5825308   4.971   4.942   7.837  0.3888 -1.7382 -0.1494
  126MOL    H5925309   4.750   4.670   7.775  1.4800 -0.5746 -1.6803
  126MOL    H6025310   4.845   4.453   7.812  0.2723 -1.3336  1.2592
  126MOL    H6125311   4.908   4.497   7.972  0.4052 -1.6081 -1.4899
  126MOL    C6225312   4.698   4.477   7.967 -0.0012  0.1456  0.1821
  126MOL    C6325313   4.678   4.533   8.109  0.1248  0.4387 -0.7273
  126MOL   Cl6425314   4.563   4.664   8.112 -0.3804  0.4308 -0.1700
  126MOL    C6525315   4.735   4.472   8.214 -0.1502  0.3161 -0.6756
  126MOL    C6625316   4.711   4.516   8.358  0.4628 -0.1236 -0.0153
  126MOL    H6725317   4.616   4.519   7.909 -0.7920 -0.1630  1.0663
  126MOL    H6825318   4.687   4.368   7.965 -1.1923  0.2697 -1.4915
  126MOL    H6925319   4.798   4.385   8.200 -0.0342  0.4738 -1.1307
  126MOL    H7025320   4.654   4.609   8.362  0.1941 -0.1555 -2.6223
  126MOL    H7125321   4.807   4.538   8.405  0.2188 -2.2423  1.5519
  126MOL    C7225322   4.630   4.418   0.019 -0.2040 -0.0775  0.3932
  126MOL    C7325323   4.618   4.463   0.166 -0.0745 -0.3215  0.1317
  126MOL   Cl7425324   4.755   4.413   0.261  1.0690 -0.5699 -0.6033
  126MOL    C7525325   4.511   4.530   0.214 -0.9399  0.3954  0.2580
  126MOL    C7625326   4.504   4.579   0.363  0.0415  0.5104  0.6471
  126MOL    H7725327   4.672   4.318   0.018  0.6286  0.2477  1.8537
  126MOL    H7825328   4.533   4.412   8.389 -1.6764 -0.6658  3.1766
  126MOL    H7925329   4.429   4.550   0.147  1.0881 -0.0631 -2.4664
  126MOL    H8025330   4.555   4.509   0.429 -1.2916 -0.3656  0.7572
  126MOL    H8125331   4.400   4.598   0.389 -0.8987 -2.3779 -0.8249
  126MOL    C8225332   4.565   4.718   0.396 -0.1221  0.1511  0.4926
  126MOL    C8325333   4.539   4.761   0.538 -0.1510 -0.5438  0.6257
  126MOL   Cl8425334   4.378   4.842   0.549 -0.2203  0.1346  0.0987
  126MOL    C8525335   4.623   4.742   0.648  0.1324 -0.9765  0.1232
  126MOL    C8625336   4.603   4.788   0.791  0.3865 -0.5881  1.1719
  126MOL    H8725337   4.537   4.804   0.335 -0.3676  0.1819  0.6504
  126MOL    H8825338   4.674   4.718   0.393 -0.1403  1.3451 -0.4294
  126MOL    H8925339   4.713   4.687   0.623  0.2773 -0.8636  0.4050
  126MOL    H9025340   4.505   4.827   0.816  0.0661  0.9482 -2.2389
  126MOL    H9125341   4.616   4.699   0.853  0.4509 -1.1214  0.3949
  126MOL    C9225342   4.707   4.886   0.836  0.0031 -1.2162 -0.0756
  126MOL    C9325343   4.647   5.024   0.856 -0.4894 -0.8721  0.4522
  126MOL   Cl9425344   4.635   5.059   1.031 -0.0720 -0.3365  0.1548
  126MOL    C9525345   4.630   5.122   0.765 -0.0119  0.0629 -0.2044
  126MOL    C9625346   4.650   5.100   0.624  0.1172  0.3909  0.1427
  126MOL    H9725347   4.792   4.893   0.768 -1.3166 -1.9609 -1.8492
  126MOL    H9825348   4.753   4.856   0.930  1.1106 -2.1918 -0.9132
  126MOL    H9925349   4.599   5.220   0.799 -0.4133  0.0639 -0.5671
  126MOL   H10025350   4.699   5.007   0.597  2.8736  1.5215  1.0660
  126MOL   H10125351   4.547   5.092   0.587 -0.2525 -0.1596  1.2887
  126MOL   C10225352   4.728   5.220   0.567 -0.0879  0.3127 -0.2228
  126MOL   C10325353   4.809   5.185   0.447  0.2147 -0.0198  0.1656
  126MOL  Cl10425354   4.969   5.248   0.477  0.2055 -0.0323 -0.2882
  126MOL   C10525355   4.761   5.127   0.339 -0.1601  0.0463 -0.2980
  126MOL   C10625356   4.840   5.091   0.219 -0.5300 -0.1652  0.2100
  126MOL   H10725357   4.663   5.305   0.545 -1.2100 -0.3402  0.5218
  126MOL   H10825358   4.797   5.260   0.641  0.7414  1.6385 -1.6811
  126MOL   H10925359   4.655   5.107   0.335 -0.1266 -0.0918 -0.5187
  126MOL   H11025360   4.943   5.124   0.226 -0.4253  0.1303 -2.2540
  126MOL   H11125361   4.850   4.983   0.216  1.5993  0.0191  0.3297
  126MOL   C11225362   4.765   5.144   0.094  0.5051 -0.0822  1.0190
  126MOL   C11325363   4.786   5.060   8.391  0.1256 -0.1556  0.4225
  126MOL  Cl11425364   4.681   4.922   8.397 -0.2205  0.0621  0.0747
  126MOL   C11525365   4.882   5.072   8.298 -0.0968 -0.4637 -0.0027
  126MOL   C11625366   4.971   5.197   8.280  0.4504 -0.4662 -1.2320
  126MOL   H11725367   4.657   5.141   0.110  0.2067  0.2395 -0.8532
  126MOL   H11825368   4.795   5.246   0.072  1.0895  0.2720  3.2868
  126MOL   H11925369   4.888   4.993   8.225  1.9974 -1.5675  1.3032
  126MOL   H12025370   5.074   5.167   8.295  0.1890  0.1346  2.1967
  126MOL   H12125371   4.943   5.275   8.352 -3.0708  1.2818 -4.2838
  126MOL   C12225372   4.953   5.247   8.136  0.0176 -0.0779  0.2779
  126MOL   C12325373   5.017   5.384   8.112  0.0780 -0.3252  0.5230
  126MOL  Cl12425374   5.150   5.375   7.992 -0.0842 -0.1157 -0.2796
  126MOL   C12525375   4.988   5.505   8.169 -0.7633  0.8258 -0.4249
  126MOL   C12625376   4.879   5.534   8.267 -0.3312  0.5634 -0.2062
  126MOL   H12725377   5.006   5.176   8.073  2.7462 -0.2174  2.6460
  126MOL   H12825378   4.846   5.249   8.114  0.2012  0.2417 -0.6340
  126MOL   H12925379   5.058   5.583   8.141 -0.0973  1.6136  3.1506
  126MOL   H13025380   4.822   5.442   8.278 -0.5527  0.4866 -1.9282
  126MOL   H13125381   4.920   5.560   8.365  1.7963  0.3033 -1.0045
  126MOL   C13225382   4.787   5.657   8.226 -0.3976  0.9173 -0.4923
  126MOL   C13325383   4.690   5.635   8.110  0.3779 -0.8939 -0.0085
  126MOL  Cl13425384   4.541   5.569   8.152  0.2188  0.0157  0.0594
  126MOL   C13525385   4.713   5.668   7.985 -0.8437  0.1367 -0.4608
  126MOL   C13625386   4.843   5.726   7.930  0.4585  0.0797  0.7760
  126MOL   H13725387   4.725   5.689   8.309 -2.1642  0.2483 -1.5287
  126MOL   H13825388   4.847   5.746   8.205 -1.8126  1.9449 -0.2119
  126MOL   H13925389   4.637   5.644   7.913  0.8938 -0.5739 -2.0848
  126MOL   H14025390   4.832   5.828   7.895  4.1156  0.0669 -0.6654
  126MOL   H14125391   4.919   5.745   8.006  0.1660  3.9370  0.1635
  126MOL   C14225392   4.893   5.646   7.805  0.0779  0.3193 -0.9332
  126MOL   C14325393   5.026   5.690   7.747 -0.3300 -0.0370  0.0618
  126MOL  Cl14425394   5.011   5.738   7.583  0.0132 -0.3214  0.3620
  126MOL   C14525395   5.146   5.660   7.801 -0.8001  0.3332  0.7200
  126MOL   C14625396   5.285   5.685   7.739  0.2646  0.3054 -0.0017
  126MOL   H14725397   4.809   5.638   7.736  0.9439  2.5420 -2.2962
  126MOL   H14825398   4.925   5.546   7.834 -0.4190  0.0291 -1.3669
  126MOL   H14925399   5.152   5.616   7.899 -3.9434 -1.1459  0.3238
  126MOL   H15025400   5.278   5.755   7.656 -0.3395  0.0322 -0.1806
  126MOL   H15125401   5.350   5.720   7.820 -0.1360 -1.5440  1.1459
  126MOL   C15225402   5.349   5.558   7.680 -0.5697  0.5737  0.3587
  126MOL   C15325403   5.505   5.552   7.665 -0.1683  0.1990 -0.5272
  126MOL  Cl15425404   5.586   5.555   7.816  0.2144 -0.1166  0.1826
  126MOL   C15525405   5.572   5.553   7.546 -0.4457  0.5247 -0.2479
  126MOL   C15625406   5.717   5.555   7.543 -0.6487 -0.5500  0.2803
  126MOL   H15725407   5.335   5.471   7.744 -0.5928  0.7224  0.5558
  126MOL   H15825408   5.308   5.523   7.585  1.3125  1.7339 -0.9128
  126MOL   H15925409   5.515   5.555   7.454  0.4689  1.3639 -0.8131
  126MOL   H16025410   5.763   5.545   7.641  3.1148  0.4336 -1.2834
  126MOL   H16125411   5.755   5.652   7.511 -2.2921  0.0572  0.1297
  126MOL   C16225412   5.782   5.444   7.461  0.6059 -0.0761 -0.7027
  126MOL   C16325413   5.926   5.410   7.496 -0.0439 -0.8710  0.3906
  126MOL  Cl16425414   5.911   5.277   7.602 -0.3771 -0.4195  0.1852
  126MOL   C16525415   6.044   5.468   7.460  0.1216 -0.3521  0.0634
  126MOL   C16625416   6.188   5.416   7.513  0.1467 -0.3512 -0.3501
  126MOL   H16725417   5.719   5.356   7.473  0.3387  0.0244 -1.3542
  126MOL   H16825418   5.781   5.462   7.354 -1.4346 -3.0218 -1.2225
  126MOL   H16925419   6.053   5.554   7.395 -0.3013 -1.4089 -1.4177
  126MOL   H17025420   6.176   5.384   7.617 -1.7339 -1.4983 -0.8918
  126MOL   H17125421   6.231   5.339   7.449  3.2270 -1.3912  2.7832
  126MOL   C17225422   6.288   5.528   7.518 -0.2559  0.5834  0.1752
  126MOL   C17325423   6.428   5.471   7.508 -0.2583 -0.2712 -0.6299
  126MOL  Cl17425424   6.459   5.348   7.624  0.1626  0.3581  0.2087
  126MOL   C17525425   6.517   5.510   7.409 -0.1455 -0.0235  0.1335
  126MOL   C17625426   6.653   5.449   7.390  0.2076 -0.4862  0.1351
  126MOL   H17725427   6.277   5.584   7.611  1.3253  0.9489  0.1575
  126MOL   H17825428   6.277   5.597   7.434 -0.4980 -0.0974 -0.3584
  126MOL   H17925429   6.489   5.581   7.333  2.2891  0.3031 -0.4956
  126MOL   H18025430   6.685   5.412   7.488 -0.1035  0.5215  0.6276
  126MOL   H18125431   6.715   5.536   7.369  0.4579 -0.5484  0.5998
  126MOL   C18225432   6.657   5.356   7.266 -0.1534 -0.5472  0.1212
  126MOL   C18325433   6.792   5.301   7.232  0.0204 -0.5996  0.0564
  126MOL  Cl18425434   6.888   5.426   7.161  0.2513  0.3460 -0.0260
  126MOL   C18525435   6.826   5.173   7.240  0.1688 -0.3629  0.4636
  126MOL   C18625436   6.948   5.093   7.189  0.3046 -0.0249  0.2632
  126MOL   H18725437   6.574   5.287   7.279 -0.3664  0.1512  2.7820
  126MOL   H18825438   6.643   5.420   7.179  1.0994  0.3089  0.5340
  126MOL   H18925439   6.748   5.115   7.286  0.6170 -1.1886  0.1887
  126MOL   H19025440   7.020   5.169   7.160  0.4421  0.0945  0.9266
  126MOL   H19125441   6.984   5.041   7.278  0.6604 -1.0638 -0.4730
  126MOL   C19225442   6.901   4.999   7.073 -0.4873 -0.3717 -0.4225
  126MOL   C19325443   7.013   4.923   7.004 -0.0120  0.0304 -0.0212
  126MOL  Cl19425444   7.014   4.747   7.016  0.0372  0.1066 -0.4245
  126MOL   C19525445   7.111   4.982   6.928  0.1087  1.2083  0.6676
  126MOL   C19625446   7.122   5.128   6.891 -0.6998  0.6248 -0.3402
  126MOL   H19725447   6.840   5.040   6.993 -1.4020 -1.0488 -0.0866
  126MOL   H19825448   6.834   4.932   7.127  2.1584 -0.0287  3.5414
  126MOL   H19925449   7.188   4.924   6.878 -0.7422  0.4075  0.2715
  126MOL   H20025450   7.209   5.174   6.938  0.3630 -2.5011  0.8953
  126MOL   H20125451   7.042   5.195   6.921  0.6596  2.4190 -0.6514
  126MOL   H20225452   7.126   5.142   6.783 -1.5187  0.3685 -0.4091
  127MOL     C125453   5.049   8.094   1.599 -0.6998 -0.0364  0.4188
  127MOL     C225454   4.931   8.128   1.510 -0.2001  0.0203  0.0714
  127MOL    Cl325455   4.806   8.008   1.536 -0.2643 -0.4784  0.3045
  127MOL     C425456   4.914   8.225   1.420  0.3239  0.7572 -0.3402
  127MOL     C525457   5.016   8.329   1.389 -0.5809 -0.3238 -0.0026
  127MOL     H625458   5.140   8.151   1.579 -1.0162  0.6952  1.0222
  127MOL     H725459   5.093   7.998   1.570  0.5186  1.1311 -1.7141
  127MOL     H825460   4.820   8.224   1.367  0.5246  0.7539 -0.7002
  127MOL     H925461   5.109   8.300   1.438 -1.0242  0.5343  1.3883
  127MOL    H1025462   5.025   8.322   1.281  2.1265  1.9622 -0.0007
  127MOL    H1125463   5.033   8.074   1.705  0.4704 -0.9843  0.4250
  127MOL    C1225464   4.962   0.044   1.434  0.9137 -0.3132  0.3211
  127MOL    C1325465   5.053   0.156   1.375  0.2568 -1.1727  0.5490
  127MOL   Cl1425466   5.022   0.189   1.211  0.2439 -0.0643  0.0247
  127MOL    C1525467   5.148   0.233   1.437 -0.6246 -0.6162 -1.0649
  127MOL    C1625468   5.210   0.222   1.575 -0.2185  0.3269 -0.3022
  127MOL    H1725469   4.863   0.081   1.407  0.3435 -0.9991  1.4059
  127MOL    H1825470   4.957   0.060   1.542 -0.4710  0.0921  0.2141
  127MOL    H1925471   5.195   0.313   1.383  1.1082 -1.7791 -1.3030
  127MOL    H2025472   5.162   0.142   1.631 -0.9044 -0.5359 -2.0799
  127MOL    H2125473   5.316   0.194   1.573  0.1545  1.6957 -0.5507
  127MOL    C2225474   5.193   0.357   1.637  0.1850 -0.5845  0.6257
  127MOL    C2325475   5.232   0.352   1.781 -0.6745  0.0951 -0.3606
  127MOL   Cl2425476   5.396   0.403   1.790  0.0911 -0.2296  0.2514
  127MOL    C2525477   5.151   0.339   1.885 -0.0508 -0.3636  0.3993
  127MOL    C2625478   5.184   0.353   2.036  0.2184  1.0181 -0.6490
  127MOL    H2725479   5.259   0.428   1.589 -1.6296  0.0696 -0.9626
  127MOL    H2825480   5.093   0.400   1.635  0.9374  1.1838  0.6488
  127MOL    H2925481   5.046   0.319   1.870 -0.0399  0.5444 -0.9272
  127MOL    H3025482   5.290   0.343   2.060 -0.0499  0.8149  0.4778
  127MOL    H3125483   5.157   0.457   2.054 -0.8732  1.1546 -2.8201
  127MOL    C3225484   5.105   0.249   2.123  0.6078 -0.3988  0.1722
  127MOL    C3325485   5.112   0.284   2.269 -0.4791 -0.4522  0.1320
  127MOL   Cl3425486   5.260   0.236   2.334  0.1133  0.0241  0.0031
  127MOL    C3525487   5.018   0.358   2.343 -0.1856  0.0504 -0.0858
  127MOL    C3625488   5.042   0.407   2.490  0.1064 -0.3663 -0.0044
  127MOL    H3725489   4.998   0.248   2.106  0.6613  0.9365 -0.3362
  127MOL    H3825490   5.132   0.145   2.105  1.0715 -0.1189 -0.7764
  127MOL    H3925491   4.924   0.388   2.298  0.7761  0.5793 -1.7499
  127MOL    H4025492   4.958   0.370   2.548 -0.8574  0.7355 -0.6722
  127MOL    H4125493   5.135   0.373   2.536 -0.4306 -1.5089  0.2458
  127MOL    C4225494   5.048   0.561   2.494 -0.3061 -0.0410 -0.6307
  127MOL    C4325495   5.184   0.626   2.471 -0.1682  0.1354 -0.3714
  127MOL   Cl4425496   5.210   0.636   2.302 -0.1033  0.3775 -0.0351
  127MOL    C4525497   5.259   0.691   2.559 -0.4734  0.1118  0.5617
  127MOL    C4625498   5.244   0.713   2.704 -0.3642  0.7152  0.1496
  127MOL    H4725499   4.978   0.611   2.427 -0.7651 -0.3065 -0.3503
  127MOL    H4825500   5.035   0.597   2.596  1.4612  1.9343 -1.0760
  127MOL    H4925501   5.350   0.738   2.524 -1.4544  1.5687 -0.0959
  127MOL    H5025502   5.186   0.633   2.750  2.3768 -1.1888  0.4402
  127MOL    H5125503   5.346   0.693   2.738 -1.1382  0.6065  2.4960
  127MOL    C5225504   5.211   0.855   2.745 -0.2428 -0.0055 -0.3493
  127MOL    C5325505   5.205   0.865   2.894 -0.0777 -0.4874  0.4557
  127MOL   Cl5425506   5.062   0.789   2.951  0.1752  0.5008  0.0644
  127MOL    C5525507   5.282   0.933   2.979 -0.1656  0.6362  0.1354
  127MOL    C5625508   5.251   0.966   3.122 -0.4295  0.1042 -0.1253
  127MOL    H5725509   5.292   0.922   2.715 -0.8787  1.1248  0.3946
  127MOL    H5825510   5.117   0.889   2.702  0.6705  0.6934 -1.8466
  127MOL    H5925511   5.373   0.967   2.933 -0.9711  0.1260 -1.8799
  127MOL    H6025512   5.143   0.951   3.125 -0.4133 -0.1972 -0.7869
  127MOL    H6125513   5.313   0.894   3.175 -2.4003 -1.6907 -0.1826
  127MOL    C6225514   5.294   1.103   3.169 -0.3128 -0.5816  0.3743
  127MOL    C6325515   5.242   1.132   3.311  0.4508 -0.2225  0.2186
  127MOL   Cl6425516   5.301   1.013   3.421 -0.4404  0.1187  0.0407
  127MOL    C6525517   5.162   1.232   3.356 -0.1647 -0.3323 -0.6197
  127MOL    C6625518   5.112   1.246   3.501 -0.6492 -0.8565  0.3058
  127MOL    H6725519   5.403   1.100   3.182 -0.3098  1.4419  1.0021
  127MOL    H6825520   5.269   1.187   3.104 -3.1841 -1.4325  0.3257
  127MOL    H6925521   5.123   1.314   3.298  0.6755  1.7514  1.6409
  127MOL    H7025522   5.131   1.148   3.546  0.4456 -2.1412 -2.8113
  127MOL    H7125523   5.003   1.248   3.504 -0.6517  0.3133 -0.2976
  127MOL    C7225524   5.177   1.376   3.565 -0.0074 -0.2537 -0.3534
  127MOL    C7325525   5.121   1.404   3.702  0.0131 -0.4524  0.7035
  127MOL   Cl7425526   4.957   1.445   3.697  0.3169  0.0082 -0.1336
  127MOL    C7525527   5.198   1.393   3.814 -0.7258 -0.5671 -0.6583
  127MOL    C7625528   5.156   1.440   3.954  0.2048 -0.5938  0.0302
  127MOL    H7725529   5.167   1.455   3.490 -0.4687  0.5880  0.5874
  127MOL    H7825530   5.284   1.357   3.560 -0.3912 -2.4078 -0.4963
  127MOL    H7925531   5.300   1.357   3.810  0.1789  1.7253  0.8722
  127MOL    H8025532   5.117   1.356   4.011 -1.7886 -0.0806 -0.5395
  127MOL    H8125533   5.072   1.509   3.958 -1.0406 -2.0560 -0.1041
  127MOL    C8225534   5.281   1.497   4.025 -0.7043 -0.0519 -0.2187
  127MOL    C8325535   5.249   1.521   4.166 -0.0540 -0.7393 -0.5773
  127MOL   Cl8425536   5.292   1.386   4.263  0.3584 -0.2396  0.1273
  127MOL    C8525537   5.196   1.631   4.219  0.2478  0.4393  0.1129
  127MOL    C8625538   5.175   1.667   4.366  0.8846  0.0632  0.4700
  127MOL    H8725539   5.325   1.585   3.979 -0.1729 -0.5838 -0.7421
  127MOL    H8825540   5.350   1.412   4.021  1.8837  1.9857  0.2113
  127MOL    H8925541   5.164   1.706   4.148  1.9139  2.6607  1.6430
  127MOL    H9025542   5.213   1.590   4.433  0.3701 -0.8286 -0.2313
  127MOL    H9125543   5.235   1.756   4.383 -0.7940  1.0830  1.1440
  127MOL    C9225544   5.026   1.684   4.394  0.3972  0.1884  0.2255
  127MOL    C9325545   5.011   1.730   4.537  0.1055  0.1541 -0.1656
  127MOL   Cl9425546   4.993   1.902   4.562 -0.1621 -0.0702  0.1956
  127MOL    C9525547   4.980   1.645   4.636  0.2625 -1.0330 -0.6626
  127MOL    C9625548   4.973   1.498   4.622  0.0795 -0.3003  0.0527
  127MOL    H9725549   4.970   1.592   4.376 -0.9310  1.1897 -0.8281
  127MOL    H9825550   4.982   1.760   4.330 -0.1870  0.4623  0.9428
  127MOL    H9925551   4.957   1.694   4.729  1.4493  0.5387 -1.1817
  127MOL   H10025552   4.874   1.463   4.593 -1.2179  2.8081  0.6304
  127MOL   H10125553   5.031   1.468   4.535  0.9073 -1.4639  0.9929
  127MOL   C10225554   5.013   1.424   4.753 -0.4594  0.3294 -0.3226
  127MOL   C10325555   5.023   1.265   4.762  1.0732 -0.4004  0.2946
  127MOL  Cl10425556   5.011   1.196   4.607 -0.3928  0.1753 -0.0052
  127MOL   C10525557   5.032   1.201   4.881 -0.0708  0.2083 -0.0837
  127MOL   C10625558   5.031   1.046   4.896 -0.1808 -0.7302  0.4473
  127MOL   H10725559   5.112   1.458   4.785 -0.4585  1.2341 -1.2739
  127MOL   H10825560   4.949   1.453   4.837  2.5661  2.6778  1.2574
  127MOL   H10925561   5.047   1.263   4.969  3.5187  0.2545 -0.6448
  127MOL   H11025562   5.014   0.995   4.800 -0.9165 -0.9484  0.6926
  127MOL   H11125563   5.130   1.021   4.934  0.7591  2.0317 -0.0877
  127MOL   C11225564   4.920   0.995   4.989  0.5483  0.0212 -0.4690
  127MOL   C11325565   4.890   0.840   4.977 -0.4587 -0.6985  1.0251
  127MOL  Cl11425566   4.987   0.758   5.105 -0.1340  0.2931 -0.0731
  127MOL   C11525567   4.803   0.782   4.888 -0.0938 -0.1010 -0.4629
  127MOL   C11625568   4.719   0.864   4.791 -0.4608  0.1888 -0.5331
  127MOL   H11725569   4.936   1.026   5.092 -0.0722  1.8909 -0.9193
  127MOL   H11825570   4.831   1.049   4.957  0.2373 -1.3250 -1.9819
  127MOL   H11925571   4.786   0.675   4.895  0.7829 -0.1332  1.5671
  127MOL   H12025572   4.715   0.972   4.807 -0.6518 -0.1632  1.8988
  127MOL   H12125573   4.614   0.840   4.808 -0.4347  0.2711 -0.2608
  127MOL   C12225574   4.763   0.835   4.644  0.0402  0.3454  0.6354
  127MOL   C12325575   4.707   0.698   4.589 -0.3910 -1.0063  0.1460
  127MOL  Cl12425576   4.556   0.708   4.498  0.1598 -0.4362  0.1537
  127MOL   C12525577   4.769   0.582   4.607 -0.0404  0.3719 -0.6190
  127MOL   C12625578   4.911   0.559   4.660 -0.0834  0.2330 -0.1907
  127MOL   H12725579   4.746   0.911   4.569  2.0220 -0.1155 -0.2891
  127MOL   H12825580   4.871   0.832   4.649  0.0373  0.6198  0.9347
  127MOL   H12925581   4.719   0.493   4.574  0.0110  0.2003 -0.2381
  127MOL   H13025582   4.971   0.650   4.653  0.4789 -0.1333 -0.2338
  127MOL   H13125583   4.916   0.532   4.766  0.3947  1.0745  0.0065
  127MOL   C13225584   4.989   0.451   4.581  0.2307  0.3863  0.1812
  127MOL   C13325585   5.135   0.434   4.622  0.0267 -0.1788  0.4624
  127MOL  Cl13425586   5.157   0.310   4.736  0.0611  0.0165  0.0746
  127MOL   C13525587   5.234   0.521   4.592  0.0044 -0.2782 -0.0531
  127MOL   C13625588   5.224   0.640   4.491  0.0813 -0.0193  0.8751
  127MOL   H13725589   4.946   0.352   4.597  2.0485 -0.3254  0.8024
  127MOL   H13825590   4.983   0.477   4.475  1.4664  2.2317  0.5351
  127MOL   H13925591   5.331   0.506   4.635 -1.2893 -2.6676  2.1862
  127MOL   H14025592   5.312   0.633   4.428 -0.8597 -0.3696 -0.4300
  127MOL   H14125593   5.128   0.630   4.440 -0.0944 -0.0079  1.1940
  127MOL   C14225594   5.228   0.781   4.563 -0.2970 -0.0540 -0.3211
  127MOL   C14325595   5.202   0.892   4.462 -0.3400  0.1473  0.1627
  127MOL  Cl14425596   5.335   1.008   4.478  0.3492  0.4412  0.2251
  127MOL   C14525597   5.092   0.904   4.385  0.1508 -0.4986  0.4204
  127MOL   C14625598   5.057   1.011   4.285  0.4523 -0.0367 -0.4988
  127MOL   H14725599   5.331   0.784   4.598 -0.4004  3.1319 -0.1497
  127MOL   H14825600   5.170   0.794   4.654 -2.5125 -2.2490 -1.3609
  127MOL   H14925601   5.016   0.828   4.392  1.6114 -1.9408  0.8709
  127MOL   H15025602   5.124   1.095   4.306  0.1736  0.9974 -3.4908
  127MOL   H15125603   5.082   0.983   4.183  0.4611  1.2866 -0.8658
  127MOL   C15225604   4.909   1.038   4.295  0.2843  0.7516 -0.2751
  127MOL   C15325605   4.872   1.162   4.210 -0.2201  1.2490 -0.2470
  127MOL  Cl15425606   4.926   1.311   4.286  0.1528 -0.4430  0.1773
  127MOL   C15525607   4.791   1.171   4.097 -0.3634  0.1071 -0.2662
  127MOL   C15625608   4.761   1.307   4.028  0.8606  0.0101 -0.9338
  127MOL   H15725609   4.856   0.950   4.260  1.1038  0.2344 -0.2328
  127MOL   H15825610   4.880   1.055   4.399  1.6514 -0.9029  0.4014
  127MOL   H15925611   4.743   1.091   4.044  0.2343 -0.8859  0.6711
  127MOL   H16025612   4.841   1.325   3.956 -0.3013 -0.7155 -2.4574
  127MOL   H16125613   4.744   1.383   4.103  2.0926  1.0671 -1.7065
  127MOL   C16225614   4.634   1.291   3.952  0.2443 -0.3852  0.2036
  127MOL   C16325615   4.577   1.425   3.896  0.0900  0.7064  0.0291
  127MOL  Cl16425616   4.403   1.408   3.884  0.3849 -0.3908  0.3530
  127MOL   C16525617   4.646   1.539   3.875  0.4098  0.5248  0.3401
  127MOL   C16625618   4.593   1.672   3.827  0.3499 -0.2369  0.3930
  127MOL   H16725619   4.643   1.220   3.870  0.1274 -1.5361  1.1778
  127MOL   H16825620   4.557   1.249   4.017 -0.8774 -0.1185 -0.9281
  127MOL   H16925621   4.752   1.540   3.897 -0.0080  0.0421  2.4005
  127MOL   H17025622   4.484   1.673   3.824  0.2444 -2.2919  1.9867
  127MOL   H17125623   4.630   1.755   3.887 -0.1441  2.1195 -2.4527
  127MOL   C17225624   4.641   1.708   3.687 -0.2816 -0.0751  0.5914
  127MOL   C17325625   4.568   1.830   3.637 -0.4577 -0.1744  0.1110
  127MOL  Cl17425626   4.664   1.968   3.668  0.2121 -0.0141  0.2764
  127MOL   C17525627   4.465   1.829   3.554 -0.0394 -0.7648 -0.0996
  127MOL   C17625628   4.405   1.949   3.484  0.3628 -0.5708 -0.4092
  127MOL   H17725629   4.630   1.619   3.625 -1.8899 -0.2934  1.1721
  127MOL   H17825630   4.746   1.736   3.689  0.6112 -3.0706 -0.3984
  127MOL   H17925631   4.413   1.736   3.533  0.9103 -1.1071 -1.0504
  127MOL   H18025632   4.438   2.041   3.533 -1.2014  0.2839 -0.9403
  127MOL   H18125633   4.298   1.941   3.498  0.3973  0.7487  0.6733
  127MOL   C18225634   4.466   1.951   3.343 -0.4927 -0.2970  0.2613
  127MOL   C18325635   4.376   2.005   3.235  0.5979 -0.2255  0.2694
  127MOL  Cl18425636   4.245   1.904   3.202  0.2628  0.2688  0.0918
  127MOL   C18525637   4.410   2.106   3.158 -0.3773 -0.4556  0.1716
  127MOL   C18625638   4.324   2.169   3.045 -0.0416  0.4116 -0.5152
  127MOL   H18725639   4.567   1.989   3.334  0.7055 -3.4426 -0.0772
  127MOL   H18825640   4.479   1.848   3.309  0.4276  0.4553 -1.7053
  127MOL   H18925641   4.504   2.157   3.176 -0.0508  0.0793 -2.7522
  127MOL   H19025642   4.365   2.133   2.951 -0.8390 -2.0106  0.0342
  127MOL   H19125643   4.230   2.118   3.065  1.0392 -1.7275 -0.6967
  127MOL   C19225644   4.318   2.324   3.047 -0.1844  0.2474 -0.5355
  127MOL   C19325645   4.266   2.386   2.918 -0.4771 -0.2915  0.1914
  127MOL  Cl19425646   4.392   2.449   2.820  0.0469  0.5754 -0.0752
  127MOL   C19525647   4.144   2.375   2.868  0.0513 -0.3962 -0.2396
  127MOL   C19625648   4.018   2.327   2.937 -0.1858  0.6325  0.5245
  127MOL   H19725649   4.405   2.372   3.092 -1.2774  0.1704  1.6918
  127MOL   H19825650   4.239   2.364   3.111 -0.2900 -0.6420 -0.1143
  127MOL   H19925651   4.131   2.394   2.762 -0.4700 -0.3419 -0.1651
  127MOL   H20025652   3.943   2.405   2.924 -0.8884 -0.1831 -0.4201
  127MOL   H20125653   4.041   2.308   3.041  0.2803 -3.2483 -0.2127
  127MOL   H20225654   3.978   2.235   2.894  0.4109 -1.1612  3.6552
  128MOL     C125655   3.203   2.065   1.129  0.7420 -0.0795  0.3920
  128MOL     C225656   3.313   1.966   1.123  0.1570 -0.1920 -0.0212
  128MOL    Cl325657   3.273   1.830   1.216  0.1452  0.0346 -0.2870
  128MOL     C425658   3.424   1.977   1.050  0.7690 -0.5490  0.2995
  128MOL     C525659   3.459   2.092   0.958  0.1600  0.7920 -0.2849
  128MOL     H625660   3.163   2.083   1.029  1.5132  0.2459  0.1451
  128MOL     H725661   3.255   2.153   1.165 -0.7005  0.0591  2.2117
  128MOL     H825662   3.493   1.895   1.054 -0.0337 -1.1675  1.6444
  128MOL     H925663   3.402   2.183   0.974  0.3177  0.5981  1.4325
  128MOL    H1025664   3.557   2.128   0.990 -0.1650  1.0568  0.4183
  128MOL    H1125665   3.117   2.029   1.186  0.2494  0.3536 -0.0667
  128MOL    C1225666   3.460   2.047   0.814  0.6621  0.0938  0.2016
  128MOL    C1325667   3.518   2.147   0.714  1.1270  0.5376 -0.1525
  128MOL   Cl1425668   3.685   2.151   0.744  0.1396  0.4223  0.3934
  128MOL    C1525669   3.464   2.217   0.614 -0.4120  0.3959  0.0373
  128MOL    C1625670   3.317   2.224   0.574 -0.0309  0.6399 -0.0228
  128MOL    H1725671   3.528   1.962   0.812 -1.1321 -1.3572 -1.6941
  128MOL    H1825672   3.361   2.007   0.795  1.2880 -1.2784 -0.2373
  128MOL    H1925673   3.526   2.285   0.558 -0.4620  0.9000  0.5850
  128MOL    H2025674   3.314   2.193   0.469  1.0049  2.1955 -0.5353
  128MOL    H2125675   3.262   2.159   0.642  2.4260  0.7424  2.1722
  128MOL    C2225676   3.254   2.367   0.575 -0.4316  0.2912  0.3834
  128MOL    C2325677   3.101   2.370   0.550 -0.0252  0.0233  0.7771
  128MOL   Cl2425678   3.030   2.520   0.595  0.0222  0.1742  0.0069
  128MOL    C2525679   3.026   2.264   0.519 -0.1074  0.4265  0.1660
  128MOL    C2625680   2.873   2.246   0.512 -0.1639 -0.0336  0.5564
  128MOL    H2725681   3.282   2.415   0.669  0.9356  1.4406 -0.5866
  128MOL    H2825682   3.310   2.420   0.498 -0.8539 -1.5037 -1.1917
  128MOL    H2925683   3.083   2.177   0.490 -0.1460 -0.1909  1.8763
  128MOL    H3025684   2.828   2.339   0.547  1.6811  0.8628  0.6148
  128MOL    H3125685   2.850   2.232   0.407 -0.3814  1.0425  0.4607
  128MOL    C3225686   2.853   2.114   0.602  0.2131  0.3752  0.1227
  128MOL    C3325687   2.712   2.057   0.595 -0.2203  0.6951  0.0030
  128MOL   Cl3425688   2.636   2.095   0.445  0.2465 -0.0998 -0.0800
  128MOL    C3525689   2.656   1.983   0.688  0.0235  0.3748 -0.7049
  128MOL    C3625690   2.522   1.918   0.696  0.5428  0.1114 -0.1211
  128MOL    H3725691   2.914   2.034   0.560 -0.0674  0.1783  0.0987
  128MOL    H3825692   2.891   2.133   0.703  2.6211 -1.5523 -0.3747
  128MOL    H3925693   2.710   1.968   0.781 -0.0173  0.4503 -0.6697
  128MOL    H4025694   2.472   1.945   0.603 -1.0678  2.8301  1.4684
  128MOL    H4125695   2.544   1.812   0.701  0.7303  0.1855  0.7582
  128MOL    C4225696   2.430   1.957   0.810  0.3507  0.6517  0.2434
  128MOL    C4325697   2.304   1.877   0.839  0.2412  0.6019 -0.4840
  128MOL   Cl4425698   2.309   1.809   0.998 -0.0555 -0.1183  0.0990
  128MOL    C4525699   2.198   1.853   0.754  0.1127  0.6504  0.4144
  128MOL    C4625700   2.172   1.900   0.611  0.3771 -0.0629  0.4959
  128MOL    H4725701   2.493   1.957   0.899 -0.5054  0.9878  0.8556
  128MOL    H4825702   2.407   2.062   0.796 -2.2468  0.5108  2.8818
  128MOL    H4925703   2.123   1.786   0.794  0.9285  0.1887  1.1816
  128MOL    H5025704   2.076   1.952   0.612  0.0670 -0.6134 -0.2245
  128MOL    H5125705   2.242   1.981   0.590 -2.6695  2.3508 -0.7850
  128MOL    C5225706   2.175   1.788   0.510  0.0044  0.3321  0.6109
  128MOL    C5325707   2.213   1.841   0.371 -0.0189 -0.2693 -0.0748
  128MOL   Cl5425708   2.078   1.915   0.288  0.0557  0.5157 -0.0992
  128MOL    C5525709   2.331   1.829   0.317  0.5041  0.1881  0.2142
  128MOL    C5625710   2.364   1.873   0.177 -0.3484 -0.5570 -0.1959
  128MOL    H5725711   2.254   1.718   0.535  2.0977  2.2188 -0.5326
  128MOL    H5825712   2.082   1.731   0.516 -0.1124  0.2521 -1.6615
  128MOL    H5925713   2.405   1.785   0.383  0.7273 -3.0915 -2.0662
  128MOL    H6025714   2.328   1.970   0.144  2.0586  0.0425 -1.1481
  128MOL    H6125715   2.470   1.894   0.190 -0.5633 -0.2886  1.1101
  128MOL    C6225716   2.338   1.771   0.065 -0.8210 -0.2577  0.4468
  128MOL    C6325717   2.366   1.834   8.347 -0.5295 -0.3441  0.8748
  128MOL   Cl6425718   2.526   1.887   8.330 -0.1634 -0.4975  0.0617
  128MOL    C6525719   2.274   1.857   8.253  0.4207 -0.5437 -0.4426
  128MOL    C6625720   2.294   1.914   8.112 -0.4585  0.1204 -0.6832
  128MOL    H6725721   2.397   1.683   0.091  0.6004  0.5242 -0.0494
  128MOL    H6825722   2.231   1.754   0.069 -0.9112 -0.2122 -1.1028
  128MOL    H6925723   2.171   1.827   8.266  0.3839 -0.6354 -0.9692
  128MOL    H7025724   2.402   1.910   8.097 -0.1825 -2.0704  1.5345
  128MOL    H7125725   2.266   2.019   8.124 -1.9574 -0.1686 -1.5202
  128MOL    C7225726   2.220   1.831   8.010 -0.8092  0.2948  0.0434
  128MOL    C7325727   2.234   1.881   7.866  0.0608  1.1146  0.3020
  128MOL   Cl7425728   2.232   2.055   7.846  0.1018  0.0167  0.1404
  128MOL    C7525729   2.240   1.802   7.755  0.1539 -0.6129  0.1006
  128MOL    C7625730   2.269   1.853   7.615  0.1897  0.4234 -0.1056
  128MOL    H7725731   2.112   1.833   8.024 -0.7810  0.8400  0.1836
  128MOL    H7825732   2.246   1.725   8.005  0.5358  0.6671 -1.3657
  128MOL    H7925733   2.240   1.694   7.764 -0.4154 -0.4772  1.8610
  128MOL    H8025734   2.374   1.880   7.599 -0.4058  2.0385 -1.4320
  128MOL    H8125735   2.202   1.936   7.598  0.6190  0.3886 -2.0852
  128MOL    C8225736   2.220   1.750   7.504  0.5738  0.3961 -0.4906
  128MOL    C8325737   2.213   1.820   7.364  0.9752 -0.5449 -0.7893
  128MOL   Cl8425738   2.337   1.768   7.257 -0.3568  0.0489 -0.0650
  128MOL    C8525739   2.118   1.912   7.333  0.5945 -0.1146  0.2124
  128MOL    C8625740   2.091   1.984   7.203 -0.3658 -0.2741 -0.4176
  128MOL    H8725741   2.115   1.726   7.523 -0.0621  2.1193 -1.7194
  128MOL    H8825742   2.284   1.663   7.517 -2.5065 -1.9807 -0.5302
  128MOL    H8925743   2.047   1.947   7.407  0.1443  1.2309 -0.8457
  128MOL    H9025744   2.078   2.092   7.208 -1.8681 -0.4677  0.1782
  128MOL    H9125745   2.173   1.969   7.133  0.8829  1.5813  0.6017
  128MOL    C9225746   1.975   1.921   7.124  0.3032  0.1134 -0.0443
  128MOL    C9325747   1.950   1.996   6.995  0.4677  0.2702 -0.5811
  128MOL   Cl9425748   1.850   2.135   7.011  0.4890 -0.1053 -0.0803
  128MOL    C9525749   1.996   1.965   6.876 -0.3027  0.1950  0.3914
  128MOL    C9625750   2.093   1.857   6.837 -0.1375  0.1465 -0.3816
  128MOL    H9725751   1.881   1.938   7.177 -0.3221 -1.8220 -0.4815
  128MOL    H9825752   1.992   1.814   7.114  1.5907  0.3243 -0.1317
  128MOL    H9925753   1.967   2.012   6.784  1.3875 -1.2337 -0.8849
  128MOL   H10025754   2.138   1.817   6.928 -0.3743 -0.8375 -0.6937
  128MOL   H10125755   2.036   1.779   6.787 -0.4279  0.0656  0.0747
  128MOL   C10225756   2.197   1.901   6.737  0.3862 -0.0497  0.5708
  128MOL   C10325757   2.302   1.792   6.695 -0.1490  0.3626  0.3968
  128MOL  Cl10425758   2.344   1.829   6.533  0.4417  0.2009  0.3754
  128MOL   C10525759   2.345   1.678   6.753  0.7328 -0.0319 -0.8131
  128MOL   C10625760   2.442   1.579   6.706  0.4326  0.5677 -0.6080
  128MOL   H10725761   2.144   1.945   6.653  2.9599  1.9394 -0.0364
  128MOL   H10825762   2.255   1.985   6.774  0.6020 -0.1900  0.5469
  128MOL   H10925763   2.294   1.659   6.846 -0.6637  0.0075 -1.5718
  128MOL   H11025764   2.450   1.595   6.598  0.8838 -0.8546 -0.7932
  128MOL   H11125765   2.536   1.604   6.756 -0.5537  1.3226  0.8877
  128MOL   C11225766   2.408   1.433   6.731 -0.3508 -0.2085 -0.0875
  128MOL   C11325767   2.511   1.338   6.687 -0.4728  0.7225 -0.1954
  128MOL  Cl11425768   2.574   1.365   6.529  0.0618  0.0186 -0.2205
  128MOL   C11525769   2.560   1.238   6.763 -0.1168 -0.3651  0.6854
  128MOL   C11625770   2.515   1.189   6.895  0.0279 -1.1118 -0.2704
  128MOL   H11725771   2.391   1.426   6.838  0.2186  0.1822  0.0288
  128MOL   H11825772   2.314   1.386   6.702 -1.2722  0.5215  1.7000
  128MOL   H11925773   2.642   1.184   6.718 -0.7097  0.4077 -1.3966
  128MOL   H12025774   2.499   1.082   6.903  0.9166 -1.0670  3.0286
  128MOL   H12125775   2.421   1.239   6.919 -0.8633 -1.7288 -2.3812
  128MOL   C12225776   2.608   1.228   7.007  0.2336 -0.1601 -0.5927
  128MOL   C12325777   2.566   1.158   7.143  0.2136  0.5508  0.2103
  128MOL  Cl12425778   2.631   1.006   7.171 -0.4159  0.3903 -0.0961
  128MOL   C12525779   2.477   1.203   7.229  0.5274  0.3004 -0.1093
  128MOL   C12625780   2.396   1.333   7.228  0.4516 -0.6905 -0.2550
  128MOL   H12725781   2.708   1.195   6.980  0.2419 -0.8537  0.2474
  128MOL   H12825782   2.616   1.336   7.022  2.9424 -0.4760  0.5970
  128MOL   H12925783   2.456   1.134   7.309 -2.0690 -0.3247 -1.3022
  128MOL   H13025784   2.397   1.379   7.327 -1.1224 -0.6425 -0.2495
  128MOL   H13125785   2.438   1.394   7.148 -0.8463 -1.3042 -1.4264
  128MOL   C13225786   2.250   1.308   7.203  0.7136  0.1244 -0.0681
  128MOL   C13325787   2.168   1.438   7.205 -0.0830  0.3424 -0.1135
  128MOL  Cl13425788   2.220   1.541   7.077  0.2446 -0.2748  0.1053
  128MOL   C13525789   2.075   1.470   7.294  0.2392 -0.1148  0.4835
  128MOL   C13625790   2.021   1.384   7.411  0.4370 -0.4037 -0.0169
  128MOL   H13725791   2.216   1.250   7.118  1.1472  0.7747 -0.6971
  128MOL   H13825792   2.206   1.247   7.281 -0.5499  1.5551  0.3681
  128MOL   H13925793   2.037   1.570   7.277 -0.6087 -0.7325 -1.4252
  128MOL   H14025794   1.967   1.308   7.354 -2.7401  1.5774  0.1753
  128MOL   H14125795   2.104   1.338   7.463  0.1497  1.1119  1.8222
  128MOL   C14225796   1.927   1.464   7.508 -0.4203 -0.0697 -0.4580
  128MOL   C14325797   1.791   1.460   7.449  0.3252 -0.0579 -0.6064
  128MOL  Cl14425798   1.753   1.611   7.371 -0.1843  0.2001 -0.2782
  128MOL   C14525799   1.701   1.356   7.463 -0.0549 -0.3565  0.7183
  128MOL   C14625800   1.555   1.358   7.415 -0.2397 -0.0272 -0.4206
  128MOL   H14725801   1.960   1.564   7.535 -0.2940 -0.9821  3.0135
  128MOL   H14825802   1.920   1.418   7.607 -0.9007  2.7694  0.8755
  128MOL   H14925803   1.723   1.264   7.517 -1.4973 -0.1757  1.6223
  128MOL   H15025804   1.498   1.344   7.507 -0.2462  0.4107 -0.3536
  128MOL   H15125805   1.533   1.461   7.387  1.0597  0.3573 -0.0350
  128MOL   C15225806   1.512   1.258   7.307  0.0625 -0.1022 -0.0645
  128MOL   C15325807   1.540   1.119   7.351  0.1841  0.2615  0.2132
  128MOL  Cl15425808   1.689   1.063   7.276  0.0165 -0.0254  0.0974
  128MOL   C15525809   1.456   1.052   7.431  0.3094  0.4560 -0.3991
  128MOL   C15625810   1.481   0.914   7.479 -0.3869  0.5290  0.1764
  128MOL   H15725811   1.404   1.268   7.290  0.2380 -1.4721 -2.1293
  128MOL   H15825812   1.564   1.284   7.215 -0.3580  2.9459  0.5050
  128MOL   H15925813   1.370   1.100   7.474  0.0755  0.0081 -0.3575
  128MOL   H16025814   1.550   0.874   7.404 -0.1765  1.6740 -0.2657
  128MOL   H16125815   1.384   0.869   7.464  0.2681 -0.3721 -1.5418
  128MOL   C16225816   1.533   0.911   7.619 -0.0337 -0.7831 -0.1183
  128MOL   C16325817   1.536   0.774   7.678 -0.1682 -0.2660  1.0463
  128MOL  Cl16425818   1.519   0.785   7.849  0.6243  0.0396 -0.3768
  128MOL   C16525819   1.577   0.660   7.614 -0.5409  0.1218 -0.2244
  128MOL   C16625820   1.587   0.522   7.668 -0.0795 -0.0562 -0.0213
  128MOL   H16725821   1.632   0.957   7.615 -0.8678  1.1341  0.4688
  128MOL   H16825822   1.475   0.977   7.684  3.1225  1.0652  0.9012
  128MOL   H16925823   1.606   0.670   7.510 -3.0201  1.8621 -0.8025
  128MOL   H17025824   1.686   0.514   7.714  0.3617  2.7604 -0.3843
  128MOL   H17125825   1.520   0.511   7.754 -0.0934  0.2437  0.0073
  128MOL   C17225826   1.552   0.406   7.561 -0.5110  0.0248  0.1081
  128MOL   C17325827   1.549   0.267   7.610 -1.3629 -0.1039 -0.6966
  128MOL  Cl17425828   1.714   0.211   7.595 -0.0846 -0.2299 -0.1757
  128MOL   C17525829   1.448   0.188   7.632  0.1836 -0.3151  0.2478
  128MOL   C17625830   1.444   0.044   7.669 -0.2390 -0.6187  0.2335
  128MOL   H17725831   1.618   0.405   7.474 -1.5966  0.5467 -0.7239
  128MOL   H17825832   1.454   0.430   7.520 -0.4235 -0.7464 -0.5650
  128MOL   H17925833   1.352   0.236   7.619  0.0590 -0.6676 -0.1236
  128MOL   H18025834   1.547   0.017   7.695  0.0775  2.9494  3.1198
  128MOL   H18125835   1.424   8.411   7.576  0.6171 -0.0383 -0.2963
  128MOL   C18225836   1.359   0.003   7.788  0.3510 -0.7337  0.4408
  128MOL   C18325837   1.380   0.060   7.927 -0.1664 -0.5805  0.0278
  128MOL  Cl18425838   1.267   0.001   8.042 -0.2934 -0.2328 -0.3212
  128MOL   C18525839   1.482   0.141   7.956  0.1078 -0.1482  0.1360
  128MOL   C18625840   1.522   0.208   8.087 -0.0078  1.2081 -0.5984
  128MOL   H18725841   1.257   0.024   7.754  1.0598 -0.8555 -1.8155
  128MOL   H18825842   1.353   8.317   7.807 -0.5982 -0.4839  1.6261
  128MOL   H18925843   1.558   0.164   7.883 -0.0236 -3.2123 -1.0072
  128MOL   H19025844   1.519   0.316   8.073 -0.9089  1.6951  2.9370
  128MOL   H19125845   1.441   0.184   8.155  0.5709 -0.5607 -0.5114
  128MOL   C19225846   1.659   0.160   8.133  0.1072  0.7597  0.6109
  128MOL   C19325847   1.709   0.223   8.261 -0.7273 -0.0467  0.2755
  128MOL  Cl19425848   1.748   0.092   8.376  0.2516  0.0047  0.0939
  128MOL   C19525849   1.742   0.357   8.282 -0.0973 -0.0010 -0.6014
  128MOL   C19625850   1.730   0.468   8.174  0.0942 -0.3392 -0.4919
  128MOL   H19725851   1.736   0.174   8.057  2.2574 -1.6819  2.2455
  128MOL   H19825852   1.648   0.053   8.154 -3.4040  0.9601  0.0706
  128MOL   H19925853   1.782   0.381   8.379  1.1223 -1.8818 -0.6111
  128MOL   H20025854   1.660   0.549   8.198  1.1793  0.4810 -0.0533
  128MOL   H20125855   1.719   0.435   8.071 -1.8728 -2.2352  0.2829
  128MOL   H20225856   1.824   0.522   8.162 -0.1677 -0.1397 -1.6766
  129MOL     C125857   8.005   3.049   2.030  0.3765 -0.9399 -0.5636
  129MOL     C225858   8.151   3.081   2.043  0.9996  0.1305 -0.3646
  129MOL    Cl325859   8.207   3.037   2.198  0.2527  0.0841  0.0592
  129MOL     C425860   8.225   3.132   1.945  0.0010 -0.5352  0.0939
  129MOL     C525861   8.174   3.175   1.809 -0.4449  0.1073  0.3484
  129MOL     H625862   7.956   3.037   2.127  1.5489  2.2358  0.5195
  129MOL     H725863   7.997   2.959   1.970 -3.4359 -3.1398  3.0144
  129MOL     H825864   8.332   3.138   1.958  0.0954 -0.0302 -0.9311
  129MOL     H925865   8.243   3.120   1.745 -0.8555 -1.7469  1.4491
  129MOL    H1025866   8.075   3.133   1.793 -0.0613 -0.6797  0.0026
  129MOL    H1125867   7.959   3.137   1.985  2.3945  1.3930  1.7437
  129MOL    C1225868   8.185   3.326   1.800  0.6493  0.4123 -0.0135
  129MOL    C1325869   8.157   3.364   1.653  0.2262  0.5216  0.0896
  129MOL   Cl1425870   7.996   3.406   1.619 -0.0147  0.1303  0.2245
  129MOL    C1525871   8.252   3.358   1.558  0.1349  0.8705  0.4909
  129MOL    C1625872   8.394   3.312   1.575  0.2821  0.0740  0.3718
  129MOL    H1725873   8.110   3.360   1.870 -2.4379  1.7857 -3.7924
  129MOL    H1825874   8.273   3.374   1.842 -0.7252  3.4232 -0.4173
  129MOL    H1925875   8.216   3.387   1.460 -0.3938  0.8461  0.6759
  129MOL    H2025876   8.397   3.248   1.663 -0.7611 -3.5582 -2.1511
  129MOL    H2125877   8.414   3.250   1.488  0.6821  2.4172 -1.2692
  129MOL    C2225878   0.075   3.431   1.590  0.0415  0.5051 -0.2915
  129MOL    C2325879   0.228   3.391   1.602  0.8771  0.0520 -1.3894
  129MOL   Cl2425880   0.251   3.225   1.628  0.0042  0.1782 -0.2991
  129MOL    C2525881   0.329   3.478   1.599  0.0958 -0.3921  0.9999
  129MOL    C2625882   0.476   3.434   1.612  0.8924 -0.1331  0.3480
  129MOL    H2725883   0.074   3.484   1.495  0.3305 -0.8211 -1.0431
  129MOL    H2825884   0.045   3.499   1.671  0.8563  0.9151 -0.3252
  129MOL    H2925885   0.315   3.584   1.582  3.3243 -0.1192 -0.2677
  129MOL    H3025886   0.522   3.477   1.701  1.9855  1.1286 -0.7917
  129MOL    H3125887   0.477   3.328   1.636 -0.0055  0.0183  1.0515
  129MOL    C3225888   0.566   3.456   1.495 -0.5825  0.1000  0.3690
  129MOL    C3325889   0.714   3.448   1.526  0.3026  0.2519  0.1258
  129MOL   Cl3425890   0.783   3.314   1.439  0.2041 -0.0755 -0.1185
  129MOL    C3525891   0.789   3.536   1.598  0.2624 -0.1489  0.7661
  129MOL    C3625892   0.933   3.522   1.634 -0.5223 -0.2409 -0.8171
  129MOL    H3725893   0.539   3.381   1.420  0.5786 -1.7119  1.7155
  129MOL    H3825894   0.551   3.552   1.445 -0.8000 -0.1580 -0.0683
  129MOL    H3925895   0.742   3.623   1.641 -1.2071 -0.8836  0.6683
  129MOL    H4025896   0.968   3.431   1.584 -3.1539 -0.8548 -1.5855
  129MOL    H4125897   0.991   3.597   1.579  0.0436 -2.2661 -3.0589
  129MOL    C4225898   0.957   3.521   1.790 -0.0698  0.2327  0.3097
  129MOL    C4325899   1.098   3.468   1.826  0.1939  0.4106 -0.3557
  129MOL   Cl4425900   1.208   3.596   1.869 -0.2012  0.0303  0.3064
  129MOL    C4525901   1.142   3.339   1.837 -0.1262 -0.1808  0.3248
  129MOL    C4625902   1.057   3.211   1.806 -0.0341 -0.5208  0.3894
  129MOL    H4725903   0.944   3.612   1.849 -2.1233 -1.3370  2.3583
  129MOL    H4825904   0.891   3.450   1.839 -1.1504  0.7707 -0.3401
  129MOL    H4925905   1.244   3.323   1.870 -0.3187 -2.6580 -0.1281
  129MOL    H5025906   1.024   3.173   1.902  1.1151 -2.0849  0.2078
  129MOL    H5125907   0.970   3.252   1.756 -1.5656 -1.1711  2.4758
  129MOL    C5225908   1.136   3.102   1.730  0.4025 -0.5353 -0.0519
  129MOL    C5325909   1.035   2.995   1.698  0.0867 -0.2204  0.0190
  129MOL   Cl5425910   0.947   3.034   1.557  0.1524 -0.2994 -0.0512
  129MOL    C5525911   1.003   2.893   1.777 -0.3931 -0.1769 -0.2493
  129MOL    C5625912   0.898   2.792   1.742  0.5373  0.1238 -0.6636
  129MOL    H5725913   1.189   3.138   1.642  0.2402  0.1185  0.1149
  129MOL    H5825914   1.211   3.051   1.791  1.7814  1.9191  0.3457
  129MOL    H5925915   1.057   2.883   1.871  0.3751 -0.0988 -0.6819
  129MOL    H6025916   0.804   2.825   1.787 -0.4059 -1.0695 -1.7379
  129MOL    H6125917   0.879   2.797   1.635  2.6974 -0.5759 -1.0855
  129MOL    C6225918   0.924   2.646   1.785  0.0785 -1.1000  0.9705
  129MOL    C6325919   1.012   2.569   1.694  0.8114 -0.0574  0.4836
  129MOL   Cl6425920   1.156   2.528   1.775  0.0460 -0.0362  0.0450
  129MOL    C6525921   0.978   2.543   1.569  0.8459  0.4061 -0.3773
  129MOL    C6625922   1.054   2.468   1.464  0.4880  0.2429  0.4198
  129MOL    H6725923   0.959   2.643   1.888  1.6742 -0.7672  0.4518
  129MOL    H6825924   0.833   2.587   1.791 -2.4939  2.9947  4.3366
  129MOL    H6925925   0.882   2.574   1.532 -0.3319  0.6084  2.7488
  129MOL    H7025926   1.160   2.485   1.479  1.1241 -2.0707 -1.0955
  129MOL    H7125927   1.023   2.510   1.368 -0.5670  1.4136  1.2571
  129MOL    C7225928   1.040   2.312   1.464 -0.0460  0.2738  0.6435
  129MOL    C7325929   1.120   2.255   1.343 -0.1836  0.5890 -0.5183
  129MOL   Cl7425930   1.024   2.182   1.224  0.4434 -0.1033  0.2789
  129MOL    C7525931   1.252   2.270   1.337 -0.1723  0.4812  0.0074
  129MOL    C7625932   1.340   2.222   1.221  0.3158 -0.4741 -0.8215
  129MOL    H7725933   0.936   2.280   1.453  0.0621  0.9173 -2.7118
  129MOL    H7825934   1.081   2.281   1.560  1.3206 -0.7595 -0.2598
  129MOL    H7925935   1.293   2.324   1.421  2.5536  0.7925 -1.4726
  129MOL    H8025936   1.274   2.181   1.144 -1.6572  0.2588  0.4363
  129MOL    H8125937   1.412   2.150   1.259 -2.0009 -1.1139  2.5102
  129MOL    C8225938   1.413   2.339   1.163  0.0622  0.7974 -0.0617
  129MOL    C8325939   1.493   2.433   1.243  0.1558 -0.0329  0.4050
  129MOL   Cl8425940   1.452   2.598   1.230  0.1071 -0.1462 -0.4205
  129MOL    C8525941   1.599   2.383   1.314 -0.5979  0.3803  0.2269
  129MOL    C8625942   1.688   2.475   1.394 -0.5578 -0.2298 -0.4188
  129MOL    H8725943   1.341   2.396   1.104 -0.4242  1.3055  1.0164
  129MOL    H8825944   1.486   2.301   1.091 -3.0842  0.7827 -3.3615
  129MOL    H8925945   1.627   2.279   1.315 -0.9527  0.2709 -0.9045
  129MOL    H9025946   1.689   2.576   1.353  2.2072 -0.1335 -0.1987
  129MOL    H9125947   1.636   2.486   1.489  0.3412  0.6180 -0.0174
  129MOL    C9225948   1.831   2.422   1.410  0.0634 -0.6626  0.2165
  129MOL    C9325949   1.903   2.475   1.531  0.2257 -0.4983  0.0005
  129MOL   Cl9425950   1.889   2.374   1.670 -0.3505 -0.0397  0.4411
  129MOL    C9525951   1.980   2.585   1.534  0.1142 -0.3489 -0.6376
  129MOL    C9625952   2.002   2.691   1.426 -0.4989  0.0368  0.7832
  129MOL    H9725953   1.890   2.452   1.323 -1.6522 -0.5653 -0.9450
  129MOL    H9825954   1.828   2.314   1.419 -0.6295 -0.5656  1.1610
  129MOL    H9925955   2.026   2.610   1.629  0.5800 -0.9350 -0.7031
  129MOL   H10025956   2.110   2.687   1.415 -0.4920 -1.0301  1.1347
  129MOL   H10125957   1.959   2.665   1.329  0.0509  0.6816  0.3624
  129MOL   C10225958   1.960   2.835   1.449  0.4653  0.4991 -0.4079
  129MOL   C10325959   1.915   2.915   1.328  0.0521 -0.4935 -0.1899
  129MOL  Cl10425960   2.025   2.916   1.203  0.1612 -0.2304  0.3244
  129MOL   C10525961   1.791   2.975   1.325 -0.2815  0.4606  0.1305
  129MOL   C10625962   1.738   3.059   1.207 -0.7650 -0.3056  1.3566
  129MOL   H10725963   1.871   2.813   1.508  1.1244 -0.2526  0.3171
  129MOL   H10825964   2.033   2.892   1.507 -0.2439 -0.9207  1.9352
  129MOL   H10925965   1.733   2.963   1.416 -0.7384  2.1377  0.0795
  129MOL   H11025966   1.751   3.165   1.226  1.0828 -0.2707  0.0573
  129MOL   H11125967   1.784   3.029   1.113 -0.6547  1.7386  0.7262
  129MOL   C11225968   1.590   3.041   1.183 -0.3774  0.2136 -0.0717
  129MOL   C11325969   1.540   3.084   1.045 -0.0493 -0.1776 -0.2210
  129MOL  Cl11425970   1.545   2.956   0.939  0.1531  0.0776  0.2976
  129MOL   C11525971   1.504   3.210   0.999  0.2903  0.1338  0.3058
  129MOL   C11625972   1.497   3.329   1.086  0.0489 -0.4392 -0.2020
  129MOL   H11725973   1.555   2.939   1.193 -1.9068  0.8673  1.5018
  129MOL   H11825974   1.534   3.104   1.253 -1.0278  0.4219 -0.7773
  129MOL   H11925975   1.479   3.219   0.894  0.3533 -1.8651  0.0868
  129MOL   H12025976   1.533   3.316   1.188  1.4120  0.0726 -0.6020
  129MOL   H12125977   1.394   3.359   1.108  1.0594  3.4545 -0.3114
  129MOL   C12225978   1.580   3.443   1.016  0.2112  0.4788 -0.1763
  129MOL   C12325979   1.570   3.578   1.093 -0.1927  0.4562  0.2523
  129MOL  Cl12425980   1.682   3.584   1.224  0.1470  0.0844 -0.0282
  129MOL   C12525981   1.499   3.685   1.060 -0.1103  0.3573 -0.4329
  129MOL   C12625982   1.405   3.699   0.939  0.2596 -0.2740  0.7478
  129MOL   H12725983   1.683   3.410   0.996  1.1800  3.3165 -0.0209
  129MOL   H12825984   1.539   3.453   0.916 -2.6947 -1.3699  0.7521
  129MOL   H12925985   1.496   3.773   1.123  1.1316 -1.2381  1.8982
  129MOL   H13025986   1.373   3.606   0.891  2.2685 -1.3596  1.4684
  129MOL   H13125987   1.316   3.753   0.972  0.2529 -0.8631  1.7157
  129MOL   C13225988   1.469   3.789   0.826 -0.2540 -0.2206  0.0889
  129MOL   C13325989   1.402   3.771   0.692 -0.9661 -1.0518  0.1571
  129MOL  Cl13425990   1.288   3.906   0.661  0.0900  0.0347 -0.0034
  129MOL   C13525991   1.418   3.671   0.608 -0.2166 -0.2608  0.0570
  129MOL   C13625992   1.511   3.550   0.636 -0.1347  0.5576  0.4792
  129MOL   H13725993   1.457   3.896   0.838  1.7857  0.0717 -0.3672
  129MOL   H13825994   1.577   3.774   0.827  0.3724  3.8427 -0.8140
  129MOL   H13925995   1.363   3.669   0.515 -1.7146 -1.6591  0.9506
  129MOL   H14025996   1.555   3.563   0.735 -0.4750 -0.3641  0.7547
  129MOL   H14125997   1.440   3.468   0.629 -0.0884  0.5748 -0.1489
  129MOL   C14225998   1.610   3.517   0.522 -0.0715  0.5305  0.2499
  129MOL   C14325999   1.711   3.407   0.548 -0.0728 -0.5234 -0.1431
  129MOL  Cl14426000   1.863   3.436   0.475 -0.1713 -0.0794 -0.5098
  129MOL   C14526001   1.678   3.286   0.604 -0.6297  0.0696 -0.2142
  129MOL   C14626002   1.757   3.162   0.629 -0.0998  0.6947  0.1150
  129MOL   H14726003   1.658   3.607   0.483 -1.1357  0.4728 -1.2609
  129MOL   H14826004   1.554   3.482   0.434 -0.3879  0.9067  0.2989
  129MOL   H14926005   1.576   3.264   0.633 -0.3696  0.1403  0.7720
  129MOL   H15026006   1.849   3.155   0.572 -0.4643 -1.7792 -0.2154
  129MOL   H15126007   1.784   3.162   0.734 -2.6937  1.5406  0.8336
  129MOL   C15226008   1.667   3.040   0.601  0.1729  0.1840 -0.2117
  129MOL   C15326009   1.726   2.905   0.637  0.8508 -0.1115  0.6457
  129MOL  Cl15426010   1.668   2.791   0.520 -0.1755  0.0077 -0.4735
  129MOL   C15526011   1.809   2.878   0.743  0.3757  0.4826  0.1019
  129MOL   C15626012   1.859   2.739   0.775 -0.4833 -0.8162 -0.3830
  129MOL   H15726013   1.566   3.049   0.641  0.7229 -0.5020  1.4051
  129MOL   H15826014   1.656   3.045   0.493 -0.1018 -2.5046 -0.3532
  129MOL   H15926015   1.844   2.957   0.807  0.4938  1.1508 -0.7781
  129MOL   H16026016   1.966   2.732   0.756  0.0217 -0.8043  2.2435
  129MOL   H16126017   1.829   2.655   0.712 -1.6549 -0.5648 -0.1759
  129MOL   C16226018   1.835   2.716   0.927  0.5922  0.4029  0.5394
  129MOL   C16326019   1.895   2.588   0.982 -0.0260  0.1490 -0.5093
  129MOL  Cl16426020   1.797   2.445   0.995  0.0177  0.1327  0.2843
  129MOL   C16526021   2.020   2.585   1.034 -0.3083 -0.1501 -0.0382
  129MOL   C16626022   2.092   2.465   1.094 -0.1334 -0.9914 -0.1185
  129MOL   H16726023   1.872   2.788   0.999  3.9253 -1.9541  1.2817
  129MOL   H16826024   1.728   2.716   0.950  0.4106 -0.8078 -0.2380
  129MOL   H16926025   2.085   2.671   1.027 -2.0025  1.1241 -0.3866
  129MOL   H17026026   2.014   2.424   1.159  0.7298  0.4464  1.8629
  129MOL   H17126027   2.105   2.397   1.009  1.2118  0.1812 -0.8723
  129MOL   C17226028   2.221   2.492   1.157 -0.9111 -0.2350  0.4697
  129MOL   C17326029   2.288   2.365   1.209  0.9938 -0.1512  0.1648
  129MOL  Cl17426030   2.227   2.320   1.360 -0.0092  0.2338 -0.0914
  129MOL   C17526031   2.377   2.293   1.137 -0.6151 -0.1038 -0.7665
  129MOL   C17626032   2.443   2.164   1.177 -0.4381  0.7318 -0.5033
  129MOL   H17726033   2.192   2.554   1.242 -1.0263 -0.3270  0.4977
  129MOL   H17826034   2.299   2.540   1.097  0.4870 -1.7055  1.0826
  129MOL   H17926035   2.403   2.321   1.035 -0.8837 -3.0661 -1.6814
  129MOL   H18026036   2.454   2.093   1.095  1.5095 -1.9589  2.0185
  129MOL   H18126037   2.377   2.112   1.247  1.5377 -0.6702  0.3395
  129MOL   C18226038   2.579   2.182   1.238  0.0638  0.1933 -0.2647
  129MOL   C18326039   2.638   2.051   1.274  0.5296  0.3223  0.3743
  129MOL  Cl18426040   2.666   1.932   1.150  0.2454 -0.0629 -0.1995
  129MOL   C18526041   2.664   2.018   1.401  0.4613  0.7847 -0.5040
  129MOL   C18626042   2.733   1.891   1.449 -0.8011 -0.3682  0.5358
  129MOL   H18726043   2.652   2.231   1.173  2.1403 -0.6089  1.3789
  129MOL   H18826044   2.564   2.252   1.320  3.9762 -2.2124  2.7081
  129MOL   H18926045   2.625   2.083   1.478 -2.8840  0.0175 -1.4728
  129MOL   H19026046   2.759   1.825   1.366  1.0966  2.2509 -1.0421
  129MOL   H19126047   2.834   1.931   1.465 -0.7931 -0.0262 -0.3714
  129MOL   C19226048   2.667   1.812   1.559  0.4225  0.6345  0.2447
  129MOL   C19326049   2.694   1.667   1.547 -0.5016  0.3679  0.2506
  129MOL  Cl19426050   2.543   1.583   1.554  0.3604 -0.3518 -0.5154
  129MOL   C19526051   2.816   1.604   1.545  0.4918 -0.4453 -0.4892
  129MOL   C19626052   2.953   1.661   1.543 -0.0420  0.8977 -0.7574
  129MOL   H19726053   2.564   1.844   1.549  0.9360  2.3944  0.3121
  129MOL   H19826054   2.711   1.853   1.650  1.4758 -1.0228  0.5150
  129MOL   H19926055   2.817   1.497   1.533  0.0264 -0.5867  0.6826
  129MOL   H20026056   3.008   1.613   1.624 -2.3260  0.9169  0.8262
  129MOL   H20126057   2.955   1.769   1.562  2.2645  0.5012  1.5323
  129MOL   H20226058   2.997   1.648   1.444  0.7715  0.8986 -0.4020
  130MOL     C126059   8.153   3.867   5.667 -0.1729 -0.2112 -0.5697
  130MOL     C226060   8.151   3.837   5.820  0.8550 -0.6555 -0.2735
  130MOL    Cl326061   8.000   3.765   5.856 -0.2896  0.2120 -0.2460
  130MOL     C426062   8.242   3.876   5.911 -0.1427 -0.0205 -0.3309
  130MOL     C526063   8.384   3.924   5.890  0.2381  0.1032  0.0002
  130MOL     H626064   8.130   3.973   5.656 -1.0128 -0.0619  2.2196
  130MOL     H726065   8.087   3.809   5.603  0.6470 -2.6474  0.7269
  130MOL     H826066   8.219   3.867   6.016  0.1305  0.1589 -0.2557
  130MOL     H926067   0.026   3.855   5.835  0.4377  1.7418 -1.9333
  130MOL    H1026068   8.384   4.017   5.832 -0.1708 -0.9315 -1.7121
  130MOL    H1126069   8.254   3.868   5.627  0.0354  0.8965 -0.0375
  130MOL    C1226070   0.037   3.969   6.018 -0.2703  0.6459 -0.7732
  130MOL    C1326071   8.400   4.092   6.088  0.2442 -0.0253  0.5956
  130MOL   Cl1426072   8.307   4.055   6.228 -0.0064 -0.7572  0.2413
  130MOL    C1526073   0.003   4.218   6.054  0.3008 -0.2053 -0.1204
  130MOL    C1626074   0.087   4.260   5.936 -1.1322 -0.6086 -0.5032
  130MOL    H1726075   0.031   3.895   6.098  0.1246  0.2999 -1.0604
  130MOL    H1826076   0.142   3.990   5.998  0.4114  1.3760  3.1668
  130MOL    H1926077   8.380   4.297   6.113  0.4130  0.4188 -0.8640
  130MOL    H2026078   0.153   4.175   5.917  0.5300  1.0063 -2.2192
  130MOL    H2126079   0.022   4.283   5.852  0.1464 -0.2452 -1.4194
  130MOL    C2226080   0.177   4.377   5.985 -0.5095  0.6067 -0.6703
  130MOL    C2326081   0.293   4.407   5.891  0.0259 -0.1231  0.5638
  130MOL   Cl2426082   0.278   4.555   5.798 -0.1279 -0.5184  0.3737
  130MOL    C2526083   0.396   4.321   5.875 -0.2534 -0.1952 -0.0919
  130MOL    C2626084   0.525   4.334   5.792 -0.9064 -0.1834 -0.2016
  130MOL    H2726085   0.104   4.458   5.992 -2.7061 -1.3671 -0.1954
  130MOL    H2826086   0.215   4.373   6.087 -0.4539  0.4051 -0.6991
  130MOL    H2926087   0.398   4.231   5.934  0.1043 -0.6355 -0.7674
  130MOL    H3026088   0.499   4.288   5.697 -1.4206  0.7300 -0.5070
  130MOL    H3126089   0.560   4.437   5.782 -0.3614 -0.4392 -0.9890
  130MOL    C3226090   0.641   4.249   5.851 -0.4101 -0.0863  0.6382
  130MOL    C3326091   0.762   4.256   5.765 -0.4944 -0.3031  0.5587
  130MOL   Cl3426092   0.901   4.191   5.857 -0.2116  0.3322 -0.0784
  130MOL    C3526093   0.778   4.311   5.641 -0.0591  0.4970 -0.5410
  130MOL    C3626094   0.905   4.299   5.564  0.1174  0.3600  0.1541
  130MOL    H3726095   0.667   4.284   5.951  2.2874  0.1942 -0.1219
  130MOL    H3826096   0.601   4.150   5.875 -2.1393  0.8677  1.8006
  130MOL    H3926097   0.696   4.361   5.592 -0.6811  1.1239  1.0806
  130MOL    H4026098   0.965   4.387   5.585  2.1346 -1.3235  1.7439
  130MOL    H4126099   0.953   4.207   5.599 -0.7597  0.6724  2.2612
  130MOL    C4226100   0.885   4.285   5.417 -0.1214 -0.0650  0.3055
  130MOL    C4326101   1.017   4.258   5.348  0.9742  0.1840  0.6364
  130MOL   Cl4426102   1.100   4.397   5.288 -0.1577  0.3697 -0.2351
  130MOL    C4526103   1.068   4.132   5.320 -0.0137 -0.1573 -0.7586
  130MOL    C4626104   1.018   3.998   5.364 -0.7395  0.0650 -0.3037
  130MOL    H4726105   0.822   4.204   5.381  2.0717 -1.4977 -0.4229
  130MOL    H4826106   0.844   4.378   5.377  1.0149  0.1610 -0.3791
  130MOL    H4926107   1.161   4.131   5.265  0.8598 -1.7679  0.6981
  130MOL    H5026108   1.066   3.964   5.456  0.1627 -0.9729 -1.1459
  130MOL    H5126109   0.916   3.994   5.403 -0.4139 -0.1484  0.5295
  130MOL    C5226110   1.043   3.894   5.259  0.3884 -0.4400 -0.0917
  130MOL    C5326111   0.985   3.759   5.296  0.4109 -0.0727  0.0143
  130MOL   Cl5426112   0.847   3.722   5.198  0.2826 -0.0185 -0.6036
  130MOL    C5526113   1.051   3.674   5.372 -0.6694  0.2834 -0.2997
  130MOL    C5626114   1.019   3.525   5.391 -0.7844  0.4313  0.6866
  130MOL    H5726115   0.997   3.928   5.166  1.8926  2.2571  0.1145
  130MOL    H5826116   1.149   3.884   5.236  0.7578  0.3429  1.2702
  130MOL    H5926117   1.135   3.705   5.432 -0.4852 -0.4955 -0.1557
  130MOL    H6026118   0.957   3.489   5.309  1.4017  0.5418 -1.0650
  130MOL    H6126119   1.119   3.483   5.379  0.1911  2.6829  0.7342
  130MOL    C6226120   0.945   3.477   5.523  0.3577 -0.3414  0.2280
  130MOL    C6326121   0.915   3.333   5.536 -0.0697  0.3052  0.0086
  130MOL   Cl6426122   0.746   3.309   5.566  0.1165  0.0320 -0.3502
  130MOL    C6526123   0.996   3.225   5.533 -0.1386 -0.2660 -0.3258
  130MOL    C6626124   0.958   3.074   5.555 -0.2644  0.1376 -0.0748
  130MOL    H6726125   0.993   3.515   5.614 -0.1021 -0.7737  0.6533
  130MOL    H6826126   0.846   3.523   5.528 -0.5736 -2.4144  1.4106
  130MOL    H6926127   1.100   3.246   5.512 -0.2695 -0.4621 -1.1893
  130MOL    H7026128   0.940   3.012   5.467 -1.6524 -0.6781  0.7553
  130MOL    H7126129   0.871   3.071   5.620 -0.7654 -2.1964 -0.7957
  130MOL    C7226130   1.072   3.007   5.640  0.4209 -0.4751 -0.5774
  130MOL    C7326131   1.041   2.862   5.678 -0.6651 -0.1285 -0.9873
  130MOL   Cl7426132   1.062   2.831   5.846  0.2263  0.4488  0.3273
  130MOL    C7526133   1.018   2.762   5.589 -0.1329  0.8082  0.1155
  130MOL    C7626134   1.007   2.610   5.607  1.0863 -0.1648 -0.1946
  130MOL    H7726135   1.075   3.063   5.733 -1.4282 -0.5970 -0.4211
  130MOL    H7826136   1.168   3.013   5.589 -1.7571  0.2419 -4.8662
  130MOL    H7926137   1.017   2.797   5.487  0.2256 -0.4882 -0.3455
  130MOL    H8026138   0.917   2.586   5.551  1.4683  1.1131 -1.3903
  130MOL    H8126139   0.987   2.584   5.711  2.0523  0.2886  0.1159
  130MOL    C8226140   1.124   2.529   5.549 -0.2070 -0.4283 -0.1068
  130MOL    C8326141   1.166   2.562   5.403 -0.0622  0.9823  0.0258
  130MOL   Cl8426142   1.302   2.665   5.395  0.1874 -0.1954 -0.0777
  130MOL    C8526143   1.115   2.504   5.294 -0.4979 -1.1663  0.2585
  130MOL    C8626144   1.134   2.548   5.147  0.6034 -0.1916  0.0908
  130MOL    H8726145   1.101   2.423   5.555  1.0146 -0.7071 -0.1891
  130MOL    H8826146   1.213   2.544   5.610  0.8189 -0.0436 -1.6633
  130MOL    H8926147   1.044   2.426   5.314  0.2172 -1.6486  0.9578
  130MOL    H9026148   1.060   2.626   5.132  0.4179 -0.1263  1.2610
  130MOL    H9126149   1.232   2.594   5.131  1.3739 -1.7464  0.2763
  130MOL    C9226150   1.122   2.429   5.054 -0.1958  0.2180 -0.2621
  130MOL    C9326151   1.144   2.462   4.908  0.9390 -0.3431 -0.5236
  130MOL   Cl9426152   1.298   2.416   4.838 -0.2162 -0.1392  0.0847
  130MOL    C9526153   1.053   2.529   4.830 -0.4519 -0.0111 -0.6052
  130MOL    C9626154   0.911   2.570   4.876  0.2085  0.4079  0.9326
  130MOL    H9726155   1.023   2.389   5.074 -0.7146  2.4898  1.9026
  130MOL    H9826156   1.201   2.359   5.083 -0.9473  0.3513  2.1953
  130MOL    H9926157   1.076   2.554   4.728 -1.2507 -2.1676 -1.3281
  130MOL   H10026158   0.909   2.575   4.984 -0.3724 -2.7016  1.1151
  130MOL   H10126159   0.900   2.669   4.831  1.3645  0.8878  1.6789
  130MOL   C10226160   0.805   2.477   4.821  0.1515  0.3266  0.2309
  130MOL   C10326161   0.677   2.486   4.906 -0.2161 -0.2527  0.2253
  130MOL  Cl10426162   0.698   2.514   5.076  0.4099  0.2595  0.1584
  130MOL   C10526163   0.555   2.478   4.853 -0.0501  0.0265  0.1467
  130MOL   C10626164   0.423   2.492   4.920 -0.5999 -0.4218 -0.3580
  130MOL   H10726165   0.792   2.499   4.715  0.8901  1.4241  0.3580
  130MOL   H10826166   0.848   2.378   4.811 -1.6971 -0.2541 -2.5539
  130MOL   H10926167   0.545   2.446   4.750  2.0274 -1.8036  0.5058
  130MOL   H11026168   0.452   2.509   5.024  0.7046  2.3961 -1.1351
  130MOL   H11126169   0.371   2.584   4.895 -0.9407 -1.0070 -1.7981
  130MOL   C11226170   0.341   2.361   4.913 -0.7351  0.1251  0.6657
  130MOL   C11326171   0.197   2.378   4.964  0.6612 -0.7530 -0.3667
  130MOL  Cl11426172   0.079   2.364   4.838  0.4630  0.2187  0.7345
  130MOL   C11526173   0.159   2.404   5.092  0.0251 -0.3198  0.1299
  130MOL   C11626174   0.254   2.429   5.209  0.7560 -0.2549 -0.5402
  130MOL   H11726175   0.343   2.325   4.810  1.1017  0.2977  0.6248
  130MOL   H11826176   0.393   2.285   4.971 -0.2941  1.2233  1.7209
  130MOL   H11926177   0.056   2.409   5.122  0.2570 -1.6024  1.1791
  130MOL   H12026178   0.262   2.536   5.226  0.5238 -0.3833  0.3830
  130MOL   H12126179   0.353   2.396   5.176  1.0295  0.1360 -0.1141
  130MOL   C12226180   0.210   2.357   5.325 -0.0679  0.0366 -0.2828
  130MOL   C12326181   0.297   2.393   5.442 -0.2597 -0.0692 -0.1081
  130MOL  Cl12426182   0.453   2.309   5.443 -0.1578  0.0287 -0.3064
  130MOL   C12526183   0.255   2.478   5.544 -0.5018  0.0979  0.0727
  130MOL   C12626184   0.121   2.551   5.554  0.1999  0.8345 -1.3951
  130MOL   H12726185   0.104   2.376   5.343 -0.2901  1.0408 -2.4696
  130MOL   H12826186   0.205   2.251   5.303 -0.0581 -0.1124  0.4092
  130MOL   H12926187   0.319   2.483   5.630 -0.9696 -2.6017  0.6323
  130MOL   H13026188   0.046   2.503   5.492 -1.3658  1.7305 -0.2252
  130MOL   H13126189   0.084   2.539   5.656  0.7728  0.9552 -1.1728
  130MOL   C13226190   0.132   2.699   5.511  0.3005 -0.1911 -0.1918
  130MOL   C13326191   8.419   2.773   5.510  0.2627 -0.4808 -0.4799
  130MOL  Cl13426192   8.413   2.891   5.641  0.1220  0.1318 -0.1223
  130MOL   C13526193   8.325   2.762   5.413 -0.3273  0.5671  0.7892
  130MOL   C13626194   8.327   2.664   5.301  0.1909  0.1036  0.5498
  130MOL   H13726195   0.214   2.745   5.566 -0.2634  1.6783 -0.8896
  130MOL   H13826196   0.169   2.699   5.409  0.2727 -0.5257 -0.2031
  130MOL   H13926197   8.237   2.822   5.423 -1.3151 -0.6489 -0.4069
  130MOL   H14026198   0.002   2.614   5.299  0.3196  0.3639 -0.9126
  130MOL   H14126199   8.251   2.586   5.294  0.5005  0.0020 -2.1504
  130MOL   C14226200   8.333   2.731   5.158 -0.0843 -0.5059 -0.3107
  130MOL   C14326201   8.204   2.809   5.124  0.9250  0.0892 -0.1854
  130MOL  Cl14426202   8.257   2.956   5.066 -0.4395  0.0988  0.4996
  130MOL   C14526203   8.071   2.775   5.148 -0.0140  0.2145 -0.6928
  130MOL   C14626204   7.955   2.868   5.111 -0.3457 -0.5431  0.1652
  130MOL   H14726205   8.356   2.660   5.079  0.9579 -1.2451  0.6449
  130MOL   H14826206   8.417   2.799   5.169 -0.8861  0.3825  0.5102
  130MOL   H14926207   8.064   2.677   5.194  0.7839  1.0635  1.3011
  130MOL   H15026208   7.991   2.971   5.104  2.0486 -1.2138  1.9139
  130MOL   H15126209   7.910   2.846   5.014 -2.8509 -0.4678  1.2686
  130MOL   C15226210   7.859   2.855   5.226 -1.1998  0.3756  0.4246
  130MOL   C15326211   7.725   2.923   5.204 -0.3828 -0.1016 -0.4421
  130MOL  Cl15426212   7.618   2.817   5.116  0.0092  0.6380  0.1180
  130MOL   C15526213   7.684   3.049   5.246  0.1224 -0.3426 -0.2003
  130MOL   C15626214   7.549   3.109   5.217 -0.4178  0.0188  1.1013
  130MOL   H15726215   7.820   2.755   5.245  1.1578 -0.3080  1.9675
  130MOL   H15826216   7.901   2.889   5.321  3.4860 -0.0395 -1.3883
  130MOL   H15926217   7.744   3.116   5.305  0.4903  0.4127 -1.4331
  130MOL   H16026218   7.476   3.046   5.166  1.8897 -0.1301 -2.1327
  130MOL   H16126219   7.561   3.189   5.144 -1.4490 -2.3585 -1.7750
  130MOL   C16226220   7.493   3.174   5.339 -0.3288 -0.2075  0.3265
  130MOL   C16326221   7.554   3.313   5.378 -0.9180  0.0410  0.3389
  130MOL  Cl16426222   7.501   3.338   5.537  0.0973  0.3312  0.4513
  130MOL   C16526223   7.641   3.387   5.311 -0.3556  0.3410  0.9858
  130MOL   C16626224   7.700   3.521   5.354 -0.3337 -0.1736  0.4925
  130MOL   H16726225   7.386   3.187   5.327 -0.6214  1.4823  3.9306
  130MOL   H16826226   7.506   3.113   5.429 -0.3642  0.4073  0.7541
  130MOL   H16926227   7.675   3.357   5.213  2.7212  2.7680  1.2179
  130MOL   H17026228   7.661   3.547   5.453 -0.3184 -0.5795  0.6070
  130MOL   H17126229   7.807   3.511   5.372 -0.6395 -1.4237  1.6993
  130MOL   C17226230   7.688   3.637   5.256 -0.3026  0.3864 -0.0153
  130MOL   C17326231   7.775   3.755   5.300 -0.6290 -0.1093 -0.6437
  130MOL  Cl17426232   7.938   3.768   5.246  0.0539 -0.2544  0.4979
  130MOL   C17526233   7.719   3.854   5.381 -0.0651  0.4413 -1.0939
  130MOL   C17626234   7.799   3.977   5.422 -0.5851  0.4525  0.5392
  130MOL   H17726235   7.581   3.653   5.241 -0.3640 -0.5360 -0.5768
  130MOL   H17826236   7.725   3.612   5.156 -1.3022  2.5553 -0.9556
  130MOL   H17926237   7.614   3.848   5.406 -0.2800 -2.8680 -2.5991
  130MOL   H18026238   7.766   4.057   5.356  2.9176  0.0051 -1.8581
  130MOL   H18126239   7.905   3.966   5.400 -0.6798 -1.8637  1.1157
  130MOL   C18226240   7.773   4.024   5.558 -0.7601  0.0051  0.3716
  130MOL   C18326241   7.843   4.159   5.596  0.2763 -0.0622  0.2602
  130MOL  Cl18426242   7.955   4.144   5.726 -0.3221 -0.2191  0.0681
  130MOL   C18526243   7.832   4.272   5.531  0.0432  0.6502 -0.1474
  130MOL   C18626244   7.905   4.402   5.563  0.0290 -0.3891 -0.1438
  130MOL   H18726245   7.668   4.046   5.575 -0.6466  0.8276  0.0610
  130MOL   H18826246   7.806   3.938   5.616 -1.0379 -0.6611 -0.4328
  130MOL   H18926247   7.769   4.279   5.443 -0.3634 -0.1680  0.0719
  130MOL   H19026248   7.951   4.396   5.662  1.2915 -1.7802 -0.7840
  130MOL   H19126249   7.979   4.421   5.485 -2.8797  4.2899 -1.9163
  130MOL   C19226250   7.817   4.527   5.564 -0.0994 -0.1469 -0.1766
  130MOL   C19326251   7.897   4.657   5.580 -0.3404 -0.3005 -1.1449
  130MOL  Cl19426252   7.888   4.727   5.746  0.1726  0.3755  0.2625
  130MOL   C19526253   7.954   4.731   5.484  0.2493 -0.4971 -0.4839
  130MOL   C19626254   7.942   4.697   5.332 -0.2830  0.0945  0.7587
  130MOL   H19726255   7.737   4.522   5.638  0.6185  1.6240  0.7641
  130MOL   H19826256   7.766   4.532   5.468  1.0344 -0.1919 -0.7848
  130MOL   H19926257   7.999   4.826   5.511  0.1860 -0.4384 -0.5907
  130MOL   H20026258   8.038   4.710   5.282 -0.7057  0.3443 -0.0014
  130MOL   H20126259   7.864   4.757   5.284 -1.4197 -0.9063  1.3285
  130MOL   H20226260   7.916   4.593   5.314 -2.5441  0.5433  1.3048
  131MOL     C126261   3.216   5.452   8.088  0.2496  0.5979  0.5085
  131MOL     C226262   3.349   5.514   8.071  0.8936  0.2162  0.4181
  131MOL    Cl326263   3.453   5.478   8.200 -0.0015 -0.0233 -0.0135
  131MOL     C426264   3.370   5.607   7.979 -0.1339 -0.0322 -0.0300
  131MOL     C526265   3.265   5.644   7.873 -0.0154  0.3331 -0.0508
  131MOL     H626266   3.143   5.520   8.133  0.7717 -0.3194  2.7872
  131MOL     H726267   3.238   5.369   8.155 -1.8399  0.1503  0.6830
  131MOL     H826268   3.458   5.668   7.983 -0.0683 -0.0755 -0.7811
  131MOL     H926269   3.317   5.644   7.778  0.6719 -2.4871  0.2847
  131MOL    H1026270   3.191   5.566   7.856 -0.9899  1.2816 -0.2213
  131MOL    H1126271   3.164   5.424   7.996 -1.1957  0.7826  1.2500
  131MOL    C1226272   3.178   5.770   7.904  0.0722  0.3407 -0.3050
  131MOL    C1326273   3.262   5.898   7.930 -0.3973  0.0275 -0.4581
  131MOL   Cl1426274   3.278   5.925   8.100  0.1308  0.0946  0.2155
  131MOL    C1526275   3.311   5.984   7.841  0.0648 -0.1370  0.0677
  131MOL    C1626276   3.305   5.960   7.697 -0.0773 -0.3429 -0.7687
  131MOL    H1726277   3.088   5.790   7.846 -0.7370 -2.5422 -0.1182
  131MOL    H1826278   3.132   5.760   8.003 -2.1832 -2.1419 -1.5589
  131MOL    H1926279   3.361   6.072   7.878 -0.8193  0.0921  0.7150
  131MOL    H2026280   3.406   5.962   7.656  0.2385 -0.1967  0.0062
  131MOL    H2126281   3.261   5.862   7.674  0.7684 -0.8315 -0.3374
  131MOL    C2226282   3.218   6.076   7.642  0.4784  0.7854 -0.3572
  131MOL    C2326283   3.187   6.058   7.495  0.0837  0.2804  0.4811
  131MOL   Cl2426284   3.035   5.993   7.467 -0.0215 -0.0176  0.1498
  131MOL    C2526285   3.275   6.077   7.395  0.1259 -0.0280 -0.0755
  131MOL    C2626286   3.254   6.053   7.252  0.3469 -0.3019  0.5268
  131MOL    H2726287   3.124   6.087   7.697 -0.6738 -2.7942 -1.4847
  131MOL    H2826288   3.265   6.175   7.642  1.4503  0.3454 -1.5106
  131MOL    H2926289   3.374   6.113   7.416  1.2988 -3.2153  0.1857
  131MOL    H3026290   3.149   6.052   7.222  0.4447 -0.5057  0.1897
  131MOL    H3126291   3.305   6.141   7.211 -0.7080  0.4369  0.7756
  131MOL    C3226292   3.326   5.922   7.214 -0.0965  0.9524 -0.5249
  131MOL    C3326293   3.330   5.905   7.060  0.9439  0.3432 -0.0626
  131MOL   Cl3426294   3.456   5.797   7.006 -0.1315 -0.2282 -0.0702
  131MOL    C3526295   3.251   5.965   6.972 -0.9263 -0.9028 -0.2563
  131MOL    C3626296   3.261   5.962   6.824  0.5242  0.1318  0.6018
  131MOL    H3726297   3.428   5.919   7.253 -0.5107  1.2790  0.5866
  131MOL    H3826298   3.275   5.833   7.252 -0.3621  1.2052 -0.2905
  131MOL    H3926299   3.180   6.034   7.015 -0.2702  1.1520 -2.3897
  131MOL    H4026300   3.224   6.058   6.788 -1.8788 -1.1123 -0.3468
  131MOL    H4126301   3.367   5.971   6.804  0.3773 -0.4526 -0.4939
  131MOL    C4226302   3.204   5.843   6.747 -0.1234 -0.3378 -0.2335
  131MOL    C4326303   3.225   5.843   6.593 -0.7367 -0.4979  0.0099
  131MOL   Cl4426304   3.116   5.953   6.509  0.1053 -0.0425 -0.1720
  131MOL    C4526305   3.307   5.775   6.517  0.2388 -0.3134  0.8007
  131MOL    C4626306   3.402   5.666   6.556  0.6228 -0.6874  0.6706
  131MOL    H4726307   3.262   5.758   6.783  0.7723  0.2911 -0.2005
  131MOL    H4826308   3.096   5.831   6.762  0.0085 -0.4854  0.6552
  131MOL    H4926309   3.314   5.809   6.414  1.3870  1.4727  1.4409
  131MOL    H5026310   3.394   5.625   6.657 -2.3897 -2.3553 -0.1689
  131MOL    H5126311   3.371   5.577   6.501  0.0904 -0.6191  0.8550
  131MOL    C5226312   3.549   5.706   6.523 -0.2070 -0.1240  0.5291
  131MOL    C5326313   3.645   5.602   6.550  0.0064 -0.5832 -0.0590
  131MOL   Cl5426314   3.704   5.518   6.414 -0.1563 -0.0870 -0.0266
  131MOL    C5526315   3.707   5.585   6.670 -0.0369  0.1885  0.6017
  131MOL    C5626316   3.805   5.479   6.695 -1.0650 -0.7616  0.4258
  131MOL    H5726317   3.554   5.713   6.414 -0.9829  2.1376  0.6046
  131MOL    H5826318   3.587   5.800   6.563 -1.2360  1.0917 -1.2556
  131MOL    H5926319   3.689   5.652   6.752 -2.3294 -0.3669  0.6102
  131MOL    H6026320   3.815   5.400   6.621 -2.3190 -0.8653  0.3506
  131MOL    H6126321   3.899   5.533   6.706 -1.8299  1.2912 -2.4580
  131MOL    C6226322   3.767   5.408   6.829 -0.1155  0.0086  0.1984
  131MOL    C6326323   3.822   5.270   6.846 -0.1343  0.0436  0.2154
  131MOL   Cl6426324   3.987   5.272   6.890  0.1803  0.2889  0.4683
  131MOL    C6526325   3.753   5.153   6.834 -0.8090 -0.0909 -0.7058
  131MOL    C6626326   3.819   5.012   6.852  0.0705 -0.8785  0.3475
  131MOL    H6726327   3.800   5.476   6.909 -1.3945  0.1391  0.6148
  131MOL    H6826328   3.659   5.408   6.843 -0.0890  0.0067  0.4030
  131MOL    H6926329   3.648   5.164   6.814 -1.6969 -0.8972  3.1346
  131MOL    H7026330   3.782   4.981   6.950  0.9820  1.3475  1.4413
  131MOL    H7126331   3.926   5.019   6.867 -0.2837 -0.5019  3.0433
  131MOL    C7226332   3.801   4.920   6.732 -0.3159  0.1189 -0.2349
  131MOL    C7326333   3.866   4.786   6.745  0.4763  0.3438  0.3348
  131MOL   Cl7426334   3.858   4.699   6.603  0.1897 -0.1804 -0.0785
  131MOL    C7526335   3.926   4.735   6.853  0.0635 -0.9862 -0.4080
  131MOL    C7626336   3.995   4.603   6.864 -0.6471  0.0030  0.3017
  131MOL    H7726337   3.846   4.960   6.641 -0.1404  0.2178 -0.1049
  131MOL    H7826338   3.697   4.910   6.700 -0.5686  0.3785  0.4869
  131MOL    H7926339   3.941   4.784   6.948  3.0915  0.3882 -1.5196
  131MOL    H8026340   4.076   4.615   6.792 -0.8115  0.5126  0.1992
  131MOL    H8126341   3.928   4.531   6.816 -0.1762  0.9754 -1.8441
  131MOL    C8226342   4.049   4.551   6.999 -0.3141  0.1023 -0.4644
  131MOL    C8326343   4.126   4.421   7.000  0.0086  0.2523 -0.0019
  131MOL   Cl8426344   4.291   4.443   7.053  0.3199  0.0641  0.1031
  131MOL    C8526345   4.081   4.304   6.960 -0.0243  0.6522  0.1418
  131MOL    C8626346   4.148   4.170   6.954  0.1518 -0.6161  0.9012
  131MOL    H8726347   3.964   4.529   7.064  0.4695 -2.5360 -0.2818
  131MOL    H8826348   4.115   4.628   7.038 -1.9872  0.8823  0.9145
  131MOL    H8926349   3.978   4.311   6.928 -0.4437 -2.1400  0.7772
  131MOL    H9026350   4.238   4.161   7.015  1.4705  0.0859 -0.8685
  131MOL    H9126351   4.074   4.098   6.987 -0.7140 -1.7343 -3.2236
  131MOL    C9226352   4.171   4.130   6.803  0.8922  0.4505  0.4694
  131MOL    C9326353   4.047   4.095   6.717 -0.0956  0.2170  0.3447
  131MOL   Cl9426354   3.969   3.944   6.751 -0.3387 -0.0722 -0.0037
  131MOL    C9526355   3.991   4.176   6.624  1.1886 -0.4616  0.3017
  131MOL    C9626356   4.035   4.315   6.582 -0.2971 -0.4242 -0.1911
  131MOL    H9726357   4.235   4.043   6.789  0.7799  0.2055  1.4169
  131MOL    H9826358   4.218   4.216   6.756  0.5972  1.0832  1.3214
  131MOL    H9926359   3.902   4.143   6.573 -0.5681  1.3283  2.1209
  131MOL   H10026360   3.963   4.394   6.607  0.6033  0.3639 -0.0465
  131MOL   H10126361   4.123   4.340   6.641  0.0051  0.7759 -1.1432
  131MOL   C10226362   4.070   4.327   6.440  0.5263  0.1142 -0.1199
  131MOL   C10326363   4.138   4.452   6.394  0.1280 -0.0521 -0.0305
  131MOL  Cl10426364   4.311   4.458   6.436  0.4914 -0.3640 -0.0975
  131MOL   C10526365   4.076   4.559   6.334  0.4104  0.4582  0.4175
  131MOL   C10626366   4.149   4.674   6.274 -0.1919 -0.2734 -0.2537
  131MOL   H10726367   4.132   4.241   6.416 -0.9225 -1.6303  2.1856
  131MOL   H10826368   3.985   4.310   6.375  0.3697  2.6392 -0.6493
  131MOL   H10926369   3.969   4.555   6.320  0.1710 -0.4146  2.3225
  131MOL   H11026370   4.250   4.644   6.247  0.1827  0.6892  0.0594
  131MOL   H11126371   4.094   4.693   6.182 -1.0523  0.6915  0.4365
  131MOL   C11226372   4.155   4.800   6.364  0.0822  0.8857 -0.7772
  131MOL   C11326373   4.246   4.912   6.312  0.0213  0.2104  0.0267
  131MOL  Cl11426374   4.395   4.926   6.400  0.0107 -0.1461 -0.3431
  131MOL   C11526375   4.211   5.006   6.229  0.3226 -0.8526 -0.0950
  131MOL   C11626376   4.084   5.010   6.142 -0.5708  0.6492  0.1677
  131MOL   H11726377   4.060   4.855   6.366  0.1549  1.0114 -0.7718
  131MOL   H11826378   4.190   4.783   6.466 -1.3221  0.0491 -0.4083
  131MOL   H11926379   4.267   5.094   6.203  1.2465 -1.4210 -0.0595
  131MOL   H12026380   4.035   4.913   6.134 -0.1658  0.4564 -0.0031
  131MOL   H12126381   4.128   5.029   6.044  1.9153  1.7495  1.4561
  131MOL   C12226382   3.986   5.125   6.171 -0.3348  0.4515 -0.4506
  131MOL   C12326383   3.932   5.119   6.316  1.0294  0.1032  0.1549
  131MOL  Cl12426384   3.812   5.001   6.334  0.1567  0.2787 -0.0972
  131MOL   C12526385   3.958   5.199   6.419  0.4555 -0.0332  0.0519
  131MOL   C12626386   4.060   5.312   6.423  0.6581 -0.2271 -0.2140
  131MOL   H12726387   4.044   5.217   6.161  0.7111 -0.2603 -0.9794
  131MOL   H12826388   3.905   5.128   6.098  0.8714  0.0452 -1.8422
  131MOL   H12926389   3.900   5.177   6.507 -0.2744 -0.8791 -0.6235
  131MOL   H13026390   4.089   5.346   6.323  0.9502 -0.6515 -0.2738
  131MOL   H13126391   4.010   5.396   6.472 -0.5477 -1.8355  1.3632
  131MOL   C13226392   4.169   5.273   6.520  0.2080 -0.5195 -0.2351
  131MOL   C13326393   4.279   5.382   6.531 -0.4516 -0.0848 -0.5875
  131MOL  Cl13426394   4.386   5.386   6.397 -0.0243 -0.4421  0.1110
  131MOL   C13526395   4.286   5.463   6.628 -0.0339  0.5710  0.0389
  131MOL   C13626396   4.203   5.480   6.751  0.0170 -0.3739  0.5914
  131MOL   H13726397   4.132   5.246   6.619 -0.1806  0.9901  0.0475
  131MOL   H13826398   4.216   5.182   6.483  0.0897 -0.0981 -1.4531
  131MOL   H13926399   4.364   5.538   6.622  0.2524  0.3827  1.3669
  131MOL   H14026400   4.102   5.441   6.736 -0.4678  0.8067  0.7471
  131MOL   H14126401   4.269   5.429   6.822  0.1625  1.0411  1.4734
  131MOL   C14226402   4.188   5.627   6.780 -0.5564 -0.1122 -0.2645
  131MOL   C14326403   4.096   5.652   6.898 -0.2129 -0.9500 -0.1213
  131MOL  Cl14426404   3.970   5.746   6.836  0.3757 -0.0274  0.3165
  131MOL   C14526405   4.098   5.599   7.022 -0.2287 -0.1385  0.3146
  131MOL   C14626406   4.003   5.638   7.136  0.0139  0.4338 -0.2021
  131MOL   H14726407   4.154   5.679   6.690 -0.0474  1.9077  0.6732
  131MOL   H14826408   4.283   5.665   6.818 -1.3871  0.6027  1.1271
  131MOL   H14926409   4.173   5.527   7.051 -1.4942 -0.6935  2.3159
  131MOL   H15026410   3.925   5.709   7.107 -0.2311  0.7394  1.1446
  131MOL   H15126411   3.958   5.548   7.178  0.4467  0.0684 -0.5195
  131MOL   C15226412   4.081   5.700   7.261  0.6035  0.7997  0.3663
  131MOL   C15326413   3.996   5.789   7.347 -0.4145  1.0075 -0.1170
  131MOL  Cl15426414   3.982   5.716   7.502  0.0305  0.1744 -0.0237
  131MOL   C15526415   3.933   5.904   7.313  1.2464 -0.0310  0.3095
  131MOL   C15626416   3.859   5.992   7.409 -0.0018  0.3233 -0.1141
  131MOL   H15726417   4.142   5.628   7.314 -0.1500  0.7031  1.1190
  131MOL   H15826418   4.156   5.762   7.213  4.4528 -1.6161  2.9442
  131MOL   H15926419   3.933   5.941   7.212 -0.4834  1.5904  0.8577
  131MOL   H16026420   3.839   5.934   7.499 -2.0366 -0.0013 -0.7497
  131MOL   H16126421   3.759   6.001   7.367  0.2159 -0.3564 -0.7875
  131MOL   C16226422   3.921   6.132   7.415 -0.4668 -0.2533 -0.0314
  131MOL   C16326423   3.885   6.215   7.538  0.3496  0.5589 -0.6220
  131MOL  Cl16426424   3.712   6.212   7.554  0.0335  0.1286  0.3381
  131MOL   C16526425   3.966   6.292   7.610  0.1864  0.6549 -0.5645
  131MOL   C16626426   3.919   6.375   7.731 -0.1743  0.1882 -0.0239
  131MOL   H16726427   4.030   6.128   7.414 -0.4749 -0.6737  0.5269
  131MOL   H16826428   3.879   6.185   7.330 -2.5811 -0.4146  0.8727
  131MOL   H16926429   4.073   6.296   7.595  0.5622 -1.5419  1.2358
  131MOL   H17026430   3.820   6.357   7.772  0.6137 -1.5697  1.1593
  131MOL   H17126431   3.985   6.354   7.815 -0.0899 -0.6960 -0.3101
  131MOL   C17226432   3.914   6.523   7.701 -0.4862 -0.8655 -0.0592
  131MOL   C17326433   3.903   6.611   7.828 -0.3464  0.4611  0.5041
  131MOL  Cl17426434   3.739   6.624   7.874  0.4609  0.0466  0.6298
  131MOL   C17526435   4.004   6.671   7.895  0.2364 -0.5665 -0.6793
  131MOL   C17626436   3.984   6.776   8.008  0.2292 -0.3959  0.1736
  131MOL   H17726437   3.833   6.540   7.630  1.5192  0.8791 -2.0045
  131MOL   H17826438   3.998   6.555   7.640 -0.7610 -1.3817 -0.7157
  131MOL   H17926439   4.106   6.651   7.864  0.9371  0.6356  0.8237
  131MOL   H18026440   4.004   6.731   8.105  1.3279  1.3518  0.7899
  131MOL   H18126441   3.885   6.818   8.023 -0.4917 -1.9108 -0.2502
  131MOL   C18226442   4.080   6.897   7.988  0.5019  0.8908 -0.2377
  131MOL   C18326443   4.072   7.001   8.097  0.1727  0.1871 -0.4065
  131MOL  Cl18426444   3.945   7.114   8.061 -0.2551  0.2637  0.1956
  131MOL   C18526445   4.151   7.000   8.208 -0.4860 -0.7084 -0.5193
  131MOL   C18626446   4.161   7.116   8.304 -0.1669 -0.0025 -0.0730
  131MOL   H18726447   4.186   6.868   7.991  0.5267  0.8865 -1.0820
  131MOL   H18826448   4.069   6.941   7.889 -0.0999  0.4925 -0.3509
  131MOL   H18926449   4.219   6.916   8.217 -1.0138 -0.9548  1.4203
  131MOL   H19026450   4.090   7.197   8.286 -0.6792 -0.1073  1.3908
  131MOL   H19126451   4.114   7.076   8.394  1.3293  0.0181  0.7353
  131MOL   C19226452   4.304   7.157   8.323  0.4216 -0.0579  0.0213
  131MOL   C19326453   4.333   7.280   8.414 -0.1249 -0.3606 -0.7715
  131MOL  Cl19426454   4.360   7.416   8.321 -0.1476 -0.1957  0.1468
  131MOL   C19526455   4.320   7.275   0.126 -0.2257  0.4143 -0.0212
  131MOL   C19626456   4.290   7.146   0.192 -0.2582 -0.2961  0.1307
  131MOL   H19726457   4.348   7.176   8.225  0.0405  1.0043  0.0466
  131MOL   H19826458   4.364   7.074   8.359  1.5021  1.0504  0.8329
  131MOL   H19926459   4.336   7.359   0.191  0.7842  0.1704  0.0586
  131MOL   H20026460   4.279   7.182   0.294  2.2952 -1.1807  0.7529
  131MOL   H20126461   4.368   7.070   0.186 -1.3857 -1.5096  0.5614
  131MOL   H20226462   4.195   7.100   0.164 -0.4791  0.3586 -0.1946
  132MOL     C126463   2.416   5.066   3.453 -0.4053  0.1484  1.2524
  132MOL     C226464   2.528   5.013   3.362 -0.5194  0.9053 -0.7609
  132MOL    Cl326465   2.485   5.031   3.199  0.7032 -0.1949  0.3252
  132MOL     C426466   2.648   4.972   3.398 -0.4792 -0.0538  0.2851
  132MOL     C526467   2.703   4.964   3.532  0.1382 -0.5309  0.0304
  132MOL     H626468   2.430   5.048   3.560  2.3246  0.4361  0.9757
  132MOL     H726469   2.319   5.027   3.422  0.0792  0.8571 -1.2659
  132MOL     H826470   2.715   4.931   3.323  1.0197 -0.0244  1.5799
  132MOL     H926471   2.618   4.961   3.600 -0.0108  1.0673 -0.0834
  132MOL    H1026472   2.746   4.864   3.546  0.1986 -0.5520 -0.3026
  132MOL    H1126473   2.400   5.174   3.447 -0.1030  0.1346  0.1733
  132MOL    C1226474   2.806   5.072   3.570 -0.3941  0.1260  0.3754
  132MOL    C1326475   2.871   5.037   3.701 -0.5815 -0.1351 -0.4235
  132MOL   Cl1426476   3.011   4.951   3.680 -0.0407  0.0488 -0.5286
  132MOL    C1526477   2.820   5.062   3.824 -0.4246  0.4341  0.9866
  132MOL    C1626478   2.680   5.129   3.844  0.3299  0.0072  0.0043
  132MOL    H1726479   2.892   5.074   3.503  1.6426 -0.7937  2.8740
  132MOL    H1826480   2.774   5.176   3.580  0.9272  0.7177 -1.3656
  132MOL    H1926481   2.877   5.052   3.915 -2.5295 -1.1123  2.1890
  132MOL    H2026482   2.621   5.131   3.752  1.0249  1.4667 -0.4339
  132MOL    H2126483   2.631   5.058   3.910  0.3694 -0.5591 -0.5739
  132MOL    C2226484   2.692   5.268   3.917 -0.3700 -0.6417  0.4414
  132MOL    C2326485   2.554   5.329   3.943  0.3275 -0.4582  0.2366
  132MOL   Cl2426486   2.510   5.307   4.105 -0.0820  0.0418 -0.0358
  132MOL    C2526487   2.479   5.400   3.850 -0.6141 -0.0968  0.2878
  132MOL    C2626488   2.350   5.463   3.875  0.3835 -0.3311  0.3057
  132MOL    H2726489   2.762   5.278   4.000 -1.1460 -0.3866  1.0772
  132MOL    H2826490   2.746   5.334   3.849 -0.0127  0.5212  1.8164
  132MOL    H2926491   2.522   5.401   3.751 -2.0803  2.6377 -0.3668
  132MOL    H3026492   2.312   5.450   3.977  1.0678  0.0279  0.6112
  132MOL    H3126493   2.377   5.567   3.863  1.0877 -0.6798 -1.1668
  132MOL    C3226494   2.237   5.410   3.785 -0.8324 -0.5511  0.5144
  132MOL    C3326495   2.112   5.498   3.800 -0.4865  0.9051 -0.1707
  132MOL   Cl3426496   1.974   5.398   3.816 -0.4996 -0.1481  0.2274
  132MOL    C3526497   2.098   5.631   3.794  0.0769  0.3378 -0.5492
  132MOL    C3626498   1.968   5.710   3.806  0.3036  0.0051  0.5425
  132MOL    H3726499   2.271   5.397   3.683 -0.0944 -2.8276  1.0286
  132MOL    H3826500   2.217   5.308   3.819 -3.4651 -0.3390 -0.2913
  132MOL    H3926501   2.186   5.692   3.779  1.3973 -1.7134 -1.4808
  132MOL    H4026502   1.897   5.652   3.864  1.0152 -1.3449  0.0864
  132MOL    H4126503   1.988   5.801   3.863  1.6115  1.2248 -1.7736
  132MOL    C4226504   1.909   5.739   3.664  0.2647  0.0416 -0.4059
  132MOL    C4326505   1.766   5.794   3.666 -0.3787 -0.0813  0.0939
  132MOL   Cl4426506   1.771   5.970   3.654 -0.0663  0.0735  0.5055
  132MOL    C4526507   1.651   5.728   3.675  0.1080 -1.0039 -0.1747
  132MOL    C4626508   1.648   5.577   3.674 -0.6478 -0.2392  1.2825
  132MOL    H4726509   1.970   5.800   3.598 -0.5974 -0.3174 -1.5523
  132MOL    H4826510   1.908   5.639   3.622 -2.3991 -0.2837  0.3286
  132MOL    H4926511   1.552   5.771   3.675  0.4297 -0.2619  0.1489
  132MOL    H5026512   1.668   5.528   3.579 -2.8317  0.1425  0.5854
  132MOL    H5126513   1.728   5.549   3.742 -0.1423  1.5314  1.4398
  132MOL    C5226514   1.515   5.521   3.721 -0.4605 -0.4254 -0.0532
  132MOL    C5326515   1.533   5.376   3.778  0.0027  0.1982  0.2192
  132MOL   Cl5426516   1.465   5.269   3.665  0.0427  0.2162  0.2759
  132MOL    C5526517   1.566   5.350   3.905  0.1104  0.2217 -0.1528
  132MOL    C5626518   1.571   5.217   3.969  0.2521  0.4915  0.4898
  132MOL    H5726519   1.480   5.584   3.802 -0.0502  0.2778 -0.4181
  132MOL    H5826520   1.427   5.535   3.659 -1.5262 -0.8380  1.3299
  132MOL    H5926521   1.595   5.435   3.964  1.0119  0.5484 -1.0459
  132MOL    H6026522   1.499   5.221   4.051  1.0267  0.9636  1.1486
  132MOL    H6126523   1.536   5.143   3.897 -0.2881 -0.2425  1.4964
  132MOL    C6226524   1.716   5.178   4.022 -0.0624 -0.2512 -0.8939
  132MOL    C6326525   1.717   5.033   4.043 -0.6100  0.8849  0.2042
  132MOL   Cl6426526   1.675   4.994   4.209  0.1503 -0.3876  0.1104
  132MOL    C6526527   1.752   4.953   3.944  0.0417  0.4355  0.4613
  132MOL    C6626528   1.775   4.800   3.957  0.1772 -0.3291  0.3370
  132MOL    H6726529   1.803   5.202   3.962 -0.0925  0.3228 -0.7108
  132MOL    H6826530   1.733   5.246   4.105  0.1092 -0.5310 -0.7014
  132MOL    H6926531   1.762   4.987   3.842 -1.2457  1.6496  0.7199
  132MOL    H7026532   1.690   4.734   3.976 -0.4216 -0.3157 -2.0499
  132MOL    H7126533   1.828   4.798   4.052 -0.3623 -0.5496  0.6347
  132MOL    C7226534   1.885   4.744   3.860  0.1878 -0.4037  0.6891
  132MOL    C7326535   1.886   4.595   3.870 -0.2147 -0.1721  0.1394
  132MOL   Cl7426536   1.991   4.545   3.995 -0.0584  0.0953 -0.3070
  132MOL    C7526537   1.803   4.512   3.817  0.2689  0.3167 -0.7869
  132MOL    C7626538   1.770   4.367   3.844  0.4885  0.3999 -0.5895
  132MOL    H7726539   1.985   4.787   3.861 -0.0453  0.1548  0.5086
  132MOL    H7826540   1.852   4.778   3.761  1.3095 -0.0426  0.4276
  132MOL    H7926541   1.732   4.551   3.745 -1.3424  1.4650  1.3934
  132MOL    H8026542   1.838   4.316   3.912 -1.0727 -0.6387  0.2344
  132MOL    H8126543   1.799   4.313   3.754  0.1808 -1.7039  0.5318
  132MOL    C8226544   1.618   4.345   3.871 -0.8227 -0.0253  0.6667
  132MOL    C8326545   1.600   4.341   4.020 -0.2616 -0.5064 -0.1406
  132MOL   Cl8426546   1.523   4.198   4.066  0.2391 -0.2264 -0.0408
  132MOL    C8526547   1.645   4.433   4.110 -0.2206  0.1380  0.6134
  132MOL    C8626548   1.642   4.443   4.261  0.1814  0.0111 -0.1546
  132MOL    H8726549   1.574   4.256   3.825  0.5836 -0.5297  0.2625
  132MOL    H8826550   1.559   4.428   3.833 -1.0813  0.1786  1.4973
  132MOL    H8926551   1.695   4.520   4.069 -0.0629  0.5364  1.6457
  132MOL    H9026552   1.640   4.550   4.283  1.3773  0.4264 -1.9133
  132MOL    H9126553   1.556   4.394   4.306 -0.0608  1.4754  1.0355
  132MOL    C9226554   1.766   4.389   4.323  0.1665  0.3432 -0.3112
  132MOL    C9326555   1.759   4.351   4.471 -0.0701  0.7769  0.7802
  132MOL   Cl9426556   1.750   4.496   4.572  0.1017  0.2015 -0.0598
  132MOL    C9526557   1.749   4.225   4.523  0.3330  0.2984 -0.0566
  132MOL    C9626558   1.742   4.092   4.449  0.0239 -0.4059  0.6166
  132MOL    H9726559   1.850   4.455   4.303  0.6744 -0.3160 -0.3798
  132MOL    H9826560   1.787   4.298   4.267 -1.2229  0.1480 -0.5378
  132MOL    H9926561   1.751   4.221   4.631 -0.0921  2.3165  0.0586
  132MOL   H10026562   1.764   4.108   4.344 -1.8258  1.2994  0.4698
  132MOL   H10126563   1.824   4.032   4.489  0.5225 -0.1605 -0.0401
  132MOL   C10226564   1.605   4.016   4.459 -0.2976  0.6189 -0.3793
  132MOL   C10326565   1.595   3.878   4.389 -1.1807  0.6449  0.5277
  132MOL  Cl10426566   1.659   3.752   4.494  0.1217  0.0977  0.3831
  132MOL   C10526567   1.537   3.862   4.268  0.6468  0.5627 -0.1948
  132MOL   C10626568   1.514   3.723   4.206 -0.0504  0.3655  0.5143
  132MOL   H10726569   1.575   3.994   4.562  0.0133 -1.8043 -0.7604
  132MOL   H10826570   1.528   4.079   4.415 -1.3682 -0.9819 -0.8281
  132MOL   H10926571   1.512   3.953   4.216 -0.3786  0.3186 -0.1376
  132MOL   H11026572   1.491   3.658   4.290  2.2668  2.2589  2.7068
  132MOL   H11126573   1.426   3.727   4.142 -0.1382  1.5456  0.6922
  132MOL   C11226574   1.632   3.668   4.118  0.8162  0.2150  0.3150
  132MOL   C11326575   1.770   3.668   4.184  0.3735 -0.4476 -0.6614
  132MOL  Cl11426576   1.842   3.823   4.157  0.5058  0.2206  0.0687
  132MOL   C11526577   1.836   3.572   4.255  0.4160 -0.2163  0.0133
  132MOL   C11626578   1.776   3.434   4.283  0.0834  0.9795 -0.2925
  132MOL   H11726579   1.608   3.565   4.092  1.0378 -0.4906  2.8031
  132MOL   H11826580   1.640   3.727   4.027  0.0623 -1.9425 -1.2094
  132MOL   H11926581   1.932   3.584   4.303  0.8903  0.0380 -0.9803
  132MOL   H12026582   1.839   3.371   4.220  0.0621 -2.3955  2.8756
  132MOL   H12126583   1.674   3.438   4.247 -0.5620 -0.4509  1.3019
  132MOL   C12226584   1.792   3.394   4.431 -0.0219 -0.0707 -0.4457
  132MOL   C12326585   1.710   3.271   4.473 -0.2579 -0.2378  0.2909
  132MOL  Cl12426586   1.772   3.131   4.395 -0.4196  0.0597 -0.0535
  132MOL   C12526587   1.606   3.259   4.558 -0.4793 -0.3997  0.7603
  132MOL   C12626588   1.536   3.372   4.635  0.4891 -0.4242  0.0407
  132MOL   H12726589   1.899   3.379   4.437 -0.4570 -2.9475  1.2855
  132MOL   H12826590   1.768   3.482   4.490  1.0228  0.4378 -0.7769
  132MOL   H12926591   1.573   3.161   4.589 -0.2722 -0.2987  1.2944
  132MOL   H13026592   1.546   3.371   4.743 -1.6335  0.0183  0.2703
  132MOL   H13126593   1.584   3.464   4.601 -1.1435 -0.0953 -1.5089
  132MOL   C13226594   1.387   3.377   4.601 -0.2740 -0.2138 -0.5141
  132MOL   C13326595   1.345   3.486   4.507  0.1465 -0.5773 -0.2183
  132MOL  Cl13426596   1.343   3.642   4.584  0.2484  0.1958 -0.2009
  132MOL   C13526597   1.303   3.478   4.385 -0.2832 -0.0857  0.4447
  132MOL   C13626598   1.293   3.351   4.308 -0.3234  0.2447  0.0779
  132MOL   H13726599   1.341   3.283   4.571 -0.6067  0.8646 -3.5521
  132MOL   H13826600   1.336   3.403   4.693  0.4446  2.0460 -0.7216
  132MOL   H13926601   1.270   3.568   4.335 -1.2661 -0.1293  1.0181
  132MOL   H14026602   1.339   3.271   4.366  0.8766 -0.4743 -1.7840
  132MOL   H14126603   1.192   3.309   4.313 -0.1018 -0.0483  2.4688
  132MOL   C14226604   1.343   3.361   4.157 -0.1959  0.0429 -0.1469
  132MOL   C14326605   1.308   3.227   4.085  0.0324 -0.0567 -0.1664
  132MOL  Cl14426606   1.428   3.115   4.114 -0.4573 -0.0540 -0.3911
  132MOL   C14526607   1.215   3.206   3.993  0.0958  0.0227  0.3434
  132MOL   C14626608   1.193   3.077   3.906  0.4422 -0.3168  0.4802
  132MOL   H14726609   1.447   3.392   4.145 -0.1153  0.1957  0.9015
  132MOL   H14826610   1.283   3.443   4.116  1.2079  0.9438 -0.4334
  132MOL   H14926611   1.159   3.295   3.968  0.2193 -0.6578 -2.5623
  132MOL   H15026612   1.242   3.094   3.810 -0.8520  0.2221 -0.0937
  132MOL   H15126613   1.238   2.985   3.942  0.8610 -0.7598 -1.1161
  132MOL   C15226614   1.045   3.038   3.888  0.0740  0.3746 -0.1449
  132MOL   C15326615   0.980   2.995   4.021 -0.2204  0.4597  1.0523
  132MOL  Cl15426616   1.012   2.823   4.043 -0.1411  0.2459  0.0100
  132MOL   C15526617   0.912   3.076   4.104  0.3521 -0.8158  0.1417
  132MOL   C15626618   0.855   3.042   4.239  0.3455 -0.0015 -0.3216
  132MOL   H15726619   0.998   3.125   3.842 -0.5080  1.3285  2.1765
  132MOL   H15826620   1.040   2.957   3.816 -1.7676  1.4570 -1.2621
  132MOL   H15926621   0.896   3.180   4.079  0.6381 -0.6454  0.6741
  132MOL   H16026622   0.901   3.120   4.300  0.7062 -0.2229 -0.3137
  132MOL   H16126623   0.890   2.946   4.277 -2.6302 -1.0534 -0.1266
  132MOL   C16226624   0.700   3.044   4.254 -0.5618  0.2027 -0.1622
  132MOL   C16326625   0.649   2.976   4.383  0.1525 -0.8000  0.4727
  132MOL  Cl16426626   0.511   3.054   4.449 -0.0687 -0.4825  0.0584
  132MOL   C16526627   0.700   2.860   4.434 -0.3453 -0.5034  0.6201
  132MOL   C16626628   0.651   2.800   4.566 -0.2099 -0.4173 -0.1479
  132MOL   H16726629   0.651   3.141   4.241 -1.0635  0.0647  0.6415
  132MOL   H16826630   0.665   2.999   4.161 -0.8478 -1.9967  0.9601
  132MOL   H16926631   0.780   2.812   4.379  1.5718  0.4903  2.4574
  132MOL   H17026632   0.543   2.812   4.575 -0.1679  0.4221 -0.6962
  132MOL   H17126633   0.675   2.696   4.543  5.2153  0.5133  0.4410
  132MOL   C17226634   0.737   2.843   4.687 -0.5946 -0.1162  0.0367
  132MOL   C17326635   0.722   2.986   4.721 -0.7376 -0.2514  0.2564
  132MOL  Cl17426636   0.843   3.083   4.651  0.0224  0.0784  0.3767
  132MOL   C17526637   0.632   3.048   4.799  0.6891 -0.2146  0.1663
  132MOL   C17626638   0.629   3.192   4.841  0.3402  0.1963  0.5903
  132MOL   H17726639   0.841   2.820   4.666  0.3667  2.0212  2.1944
  132MOL   H17826640   0.713   2.779   4.771  1.1366 -1.1131 -0.2040
  132MOL   H17926641   0.559   2.984   4.847  0.6538 -0.9543 -0.8467
  132MOL   H18026642   0.523   3.220   4.842 -0.0870 -1.2420 -1.1647
  132MOL   H18126643   0.680   3.256   4.770 -2.4477  1.4578 -0.3521
  132MOL   C18226644   0.687   3.212   4.977 -0.3728 -0.0422  0.3410
  132MOL   C18326645   0.643   3.336   5.050 -0.1317  1.1529 -0.5132
  132MOL  Cl18426646   0.636   3.477   4.951  0.0317 -0.0454 -0.1804
  132MOL   C18526647   0.606   3.335   5.182 -0.2102 -0.2413  0.0948
  132MOL   C18626648   0.573   3.464   5.267  0.1033  0.2130 -0.2021
  132MOL   H18726649   0.664   3.125   5.038 -0.1888 -0.3356 -0.0033
  132MOL   H18826650   0.796   3.211   4.968 -0.3213  0.1704  0.9407
  132MOL   H18926651   0.609   3.241   5.235 -0.1652 -0.1216  0.3073
  132MOL   H19026652   0.633   3.475   5.357  1.5015  2.5232 -1.3868
  132MOL   H19126653   0.596   3.548   5.201 -0.2422 -0.0576 -0.6738
  132MOL   C19226654   0.428   3.468   5.315  0.4048 -0.6129 -0.1602
  132MOL   C19326655   0.404   3.576   5.416  0.7489 -0.6542 -0.4217
  132MOL  Cl19426656   0.472   3.543   5.569 -0.4153 -0.4057  0.0143
  132MOL   C19526657   0.330   3.686   5.406 -0.1856 -0.2446  0.1364
  132MOL   C19626658   0.260   3.742   5.284  0.3291  0.2088  0.9992
  132MOL   H19726659   0.404   3.371   5.359  5.3768 -0.9859  2.0916
  132MOL   H19826660   0.355   3.474   5.234 -1.5032  1.3118  1.6666
  132MOL   H19926661   0.309   3.743   5.496 -0.2925 -0.5847  0.3310
  132MOL   H20026662   0.275   3.848   5.265  2.1920 -0.2048  0.0404
  132MOL   H20126663   0.153   3.728   5.299  0.2091  0.2365  0.1472
  132MOL   H20226664   0.287   3.685   5.195  1.9308 -0.7511  2.0703
  133MOL     C126665   0.573   8.187   7.606  0.3331  1.1495 -0.5861
  133MOL     C226666   0.489   8.229   7.726  0.0905  0.3554 -0.0373
  133MOL    Cl326667   0.323   8.209   7.701 -0.1356 -0.3641 -0.3547
  133MOL     C426668   0.535   8.283   7.834 -0.3539 -0.8072  0.1001
  133MOL     C526669   0.681   8.323   7.858  0.0466 -0.2749 -0.4365
  133MOL     H626670   0.633   8.264   7.559  0.7842  0.6199 -0.8860
  133MOL     H726671   0.518   8.128   7.532  2.2042 -0.0859 -1.0162
  133MOL     H826672   0.465   8.307   7.912  0.4677 -2.6036  1.4019
  133MOL     H926673   0.717   8.269   7.946  0.1878 -1.1800 -1.0409
  133MOL    H1026674   0.740   8.295   7.771  0.5853 -1.1683  0.2052
  133MOL    H1126675   0.649   8.118   7.643 -0.9134 -1.8160 -3.3005
  133MOL    C1226676   0.691   0.056   7.889 -0.1527 -0.9441  0.7787
  133MOL    C1326677   0.828   0.092   7.942 -0.6273 -0.2533  0.4115
  133MOL   Cl1426678   0.954   0.049   7.840  0.0879  0.1729 -0.1151
  133MOL    C1526679   0.856   0.155   8.056  0.6969 -0.2629  0.1277
  133MOL    C1626680   0.766   0.210   8.164 -0.1952 -0.7410 -0.2942
  133MOL    H1726681   0.683   0.112   7.797 -1.3111 -0.7588  0.9781
  133MOL    H1826682   0.605   0.086   7.949  0.4661  3.4208 -0.3599
  133MOL    H1926683   0.959   0.177   8.081  0.4684  0.0723  0.7759
  133MOL    H2026684   0.674   0.153   8.174 -0.0422 -0.6801  1.5773
  133MOL    H2126685   0.818   0.186   8.256  0.4024  1.2212 -0.0874
  133MOL    C2226686   0.754   0.358   8.170 -0.5989  0.5880  0.2339
  133MOL    C2326687   0.628   0.417   8.237 -0.4173 -0.0377  0.9600
  133MOL   Cl2426688   0.675   0.518   8.371 -0.0738  0.4029 -0.0694
  133MOL    C2526689   0.499   0.395   8.206  0.6128 -0.1767  0.6255
  133MOL    C2626690   0.381   0.444   8.288  0.5597 -0.0296 -0.2875
  133MOL    H2726691   0.842   0.396   8.223 -0.0194  2.3332 -1.9187
  133MOL    H2826692   0.752   0.401   8.070 -0.2579 -0.8656 -0.4152
  133MOL    H2926693   0.479   0.335   8.118  0.8595  1.2810 -0.4527
  133MOL    H3026694   0.408   0.495   8.381 -0.0581 -2.5569  1.3152
  133MOL    H3126695   0.348   0.526   8.224  2.1334  0.2928 -0.7028
  133MOL    C3226696   0.270   0.338   8.307  0.3010 -0.0818 -0.4056
  133MOL    C3326697   0.141   0.391   8.374  0.0584  0.2430 -0.2411
  133MOL   Cl3426698   0.122   0.331   0.115  0.3248  0.1566  0.1155
  133MOL    C3526699   0.050   0.464   8.310  1.0058 -1.0855  0.1742
  133MOL    C3626700   8.337   0.512   8.344 -0.1733  0.1352  0.2153
  133MOL    H3726701   0.247   0.295   8.209 -0.6150 -0.1342 -0.1723
  133MOL    H3826702   0.305   0.255   8.367 -0.0026  0.6901  0.8519
  133MOL    H3926703   0.079   0.493   8.210 -0.0326  1.6010  0.6172
  133MOL    H4026704   8.265   0.483   8.268 -2.1432  1.1407  1.6504
  133MOL    H4126705   8.302   0.454   0.009 -0.9487  2.4319  1.5055
  133MOL    C4226706   8.322   0.667   8.365  0.1720 -0.1938  0.1925
  133MOL    C4326707   8.186   0.697   8.412  0.0633 -0.1716  0.0187
  133MOL   Cl4426708   8.092   0.779   8.290  0.1383  0.1410 -0.8807
  133MOL    C4526709   8.142   0.666   0.112 -0.1616 -0.0331  0.1956
  133MOL    C4626710   8.225   0.613   0.226  0.8100 -0.0222  0.2262
  133MOL    H4726711   8.396   0.710   0.012  2.4266 -1.2132 -1.5410
  133MOL    H4826712   8.336   0.719   8.270 -3.3304  0.7670  0.1304
  133MOL    H4926713   8.040   0.690   0.141  0.0621  0.5091  0.5367
  133MOL    H5026714   8.190   0.518   0.267 -0.3823  1.1460  1.9791
  133MOL    H5126715   8.324   0.603   0.180 -0.3277  0.8783 -2.5021
  133MOL    C5226716   8.243   0.716   0.337 -0.1548  0.2008 -0.6816
  133MOL    C5326717   8.382   0.680   0.405  0.0320 -0.6328 -0.6217
  133MOL   Cl5426718   8.372   0.557   0.531  0.1457  0.1506  0.3932
  133MOL    C5526719   0.085   0.719   0.360 -0.0878  0.0681 -0.0925
  133MOL    C5626720   0.224   0.682   0.411  0.0565  0.0034  0.2735
  133MOL    H5726721   8.240   0.822   0.315 -0.5138  1.2869  4.1570
  133MOL    H5826722   8.169   0.690   0.413  2.1776  0.6719  1.8294
  133MOL    H5926723   0.086   0.787   0.276  0.7449  1.6089  1.1478
  133MOL    H6026724   0.261   0.777   0.450 -0.5333  0.7193 -0.8864
  133MOL    H6126725   0.203   0.615   0.494 -3.6423 -1.6180 -1.8149
  133MOL    C6226726   0.299   0.616   0.299 -0.4017 -0.0640  0.1875
  133MOL    C6326727   0.453   0.612   0.327  0.2129 -0.1671  0.4529
  133MOL   Cl6426728   0.515   0.460   0.282 -0.1444 -0.0447  0.0137
  133MOL    C6526729   0.533   0.710   0.372  0.4523  0.5986 -0.6604
  133MOL    C6626730   0.682   0.709   0.400  0.2181  0.3417 -0.5989
  133MOL    H6726731   0.255   0.524   0.261  1.9171 -1.0856 -0.1417
  133MOL    H6826732   0.285   0.686   0.216 -4.3270  1.6361  2.1467
  133MOL    H6926733   0.487   0.805   0.391  1.7587  1.6468 -2.5603
  133MOL    H7026734   0.724   0.610   0.385  2.3709  1.2350 -0.7628
  133MOL    H7126735   0.712   0.737   0.501  0.5921  0.0512 -0.6271
  133MOL    C7226736   0.762   0.792   0.299  0.2202  0.1946  0.4140
  133MOL    C7326737   0.914   0.775   0.311  0.7148 -0.2281 -0.2555
  133MOL   Cl7426738   0.973   0.710   0.157  0.2400  0.0789 -0.3265
  133MOL    C7526739   0.993   0.790   0.423  0.4851  0.3909 -0.2393
  133MOL    C7626740   1.144   0.763   0.434  0.1584  0.5183 -0.0198
  133MOL    H7726741   0.736   0.894   0.326  3.3236  0.5442  2.3185
  133MOL    H7826742   0.726   0.780   0.196 -0.5599  0.5821  0.6327
  133MOL    H7926743   0.954   0.840   0.510  1.9421 -0.1109  0.7242
  133MOL    H8026744   1.183   0.864   0.445 -1.6081  1.2620 -0.4006
  133MOL    H8126745   1.182   0.713   0.345 -0.0328  0.2600  0.0403
  133MOL    C8226746   1.179   0.661   0.553  0.2113  0.3919 -0.5142
  133MOL    C8326747   1.318   0.600   0.541 -0.3385 -0.4092 -0.5126
  133MOL   Cl8426748   1.422   0.661   0.663 -0.2971 -0.3138  0.2351
  133MOL    C8526749   1.353   0.507   0.455  0.0521  0.1153 -0.6595
  133MOL    C8626750   1.495   0.444   0.461  0.9102 -0.5312 -0.2675
  133MOL    H8726751   1.116   0.573   0.549 -0.6554  0.8048  2.7584
  133MOL    H8826752   1.152   0.708   0.647 -1.8831  1.5317 -1.6496
  133MOL    H8926753   1.282   0.465   0.386 -0.9643  0.8133 -0.0589
  133MOL    H9026754   1.557   0.490   0.384  1.0107 -3.7435 -2.2035
  133MOL    H9126755   1.539   0.471   0.558  1.0544  1.2663 -0.8174
  133MOL    C9226756   1.480   0.290   0.431  0.9806 -0.1974  0.4053
  133MOL    C9326757   1.617   0.218   0.415 -0.2921 -0.5699  0.0929
  133MOL   Cl9426758   1.666   0.238   0.250 -0.2600 -0.2294  0.0607
  133MOL    C9526759   1.691   0.143   0.498  0.6629  0.6098 -0.5202
  133MOL    C9626760   1.651   0.114   0.641 -0.6250  0.7427 -0.3782
  133MOL    H9726761   1.419   0.265   0.345  0.0256 -2.2122  1.6351
  133MOL    H9826762   1.427   0.244   0.514 -1.2069  0.0937 -0.7902
  133MOL    H9926763   1.781   0.105   0.453  0.8242  0.9864 -0.5118
  133MOL   H10026764   1.704   0.193   0.696 -0.5796  0.6326 -0.2649
  133MOL   H10126765   1.543   0.127   0.644 -0.5442  1.3124  0.3721
  133MOL   C10226766   1.699   8.396   0.689 -0.2175  0.9570  0.2402
  133MOL   C10326767   1.847   8.380   0.691  0.5381 -0.0079  0.3999
  133MOL  Cl10426768   1.904   8.284   0.560 -0.6846 -0.2691 -0.3854
  133MOL   C10526769   1.926   0.014   0.783 -0.8535  0.5018 -0.4374
  133MOL   C10626770   2.079   8.413   0.804  0.1580 -0.9010  0.5920
  133MOL   H10726771   1.674   8.381   0.793  1.6457  2.1564  0.8949
  133MOL   H10826772   1.650   8.320   0.629 -0.7753  0.9874  0.6636
  133MOL   H10926773   1.885   0.080   0.858 -1.5613  0.2793 -0.6300
  133MOL   H11026774   2.086   8.395   0.911 -0.4759 -0.4097  0.7194
  133MOL   H11126775   2.125   8.328   0.753  2.3488 -0.5935  1.9882
  133MOL   C11226776   2.153   0.128   0.768 -0.8141 -0.4427  0.3012
  133MOL   C11326777   2.201   0.136   0.623 -0.2137  0.0492  0.2419
  133MOL  Cl11426778   2.359   0.063   0.604  0.2897  0.0275  0.1525
  133MOL   C11526779   2.141   0.197   0.518  0.4713 -0.2531  0.1051
  133MOL   C11626780   2.013   0.277   0.522 -0.4705  0.6550  0.6811
  133MOL   H11726781   2.084   0.211   0.783 -0.3807  0.2873 -1.6252
  133MOL   H11826782   2.239   0.145   0.833  0.2272 -0.9689 -0.9309
  133MOL   H11926783   2.196   0.192   0.426 -1.0134  2.3612 -1.0136
  133MOL   H12026784   1.953   0.270   0.613 -0.9545  0.5075  0.3563
  133MOL   H12126785   1.949   0.235   0.444  1.2182 -1.0036  0.1594
  133MOL   C12226786   2.034   0.425   0.508  0.0360  0.0399 -0.3487
  133MOL   C12326787   1.907   0.505   0.505  0.4294  0.7141  0.0722
  133MOL  Cl12426788   1.835   0.515   0.661  0.3166 -0.0031 -0.1748
  133MOL   C12526789   1.861   0.577   0.403 -0.1502 -0.5389  0.3636
  133MOL   C12626790   1.905   0.572   0.259  0.2720 -0.0215  0.3064
  133MOL   H12726791   2.096   0.465   0.588  0.4797  0.5356 -0.9345
  133MOL   H12826792   2.103   0.450   0.427  4.6145 -0.2660  3.2451
  133MOL   H12926793   1.776   0.642   0.419  1.0204  1.1498 -0.2114
  133MOL   H13026794   1.991   0.506   0.252  0.1864 -0.2029  1.0449
  133MOL   H13126795   1.828   0.520   0.203 -0.5253  1.8924 -0.4366
  133MOL   C13226796   1.937   0.703   0.186 -0.3905  0.0640 -0.5977
  133MOL   C13326797   1.966   0.692   0.033 -0.7017  0.2656 -0.3136
  133MOL  Cl13426798   2.094   0.575   8.412 -0.0334 -0.0548  0.1198
  133MOL   C13526799   1.919   0.769   8.353  0.6790  0.2088 -0.6574
  133MOL   C13626800   1.827   0.889   8.368  0.0512 -0.4644 -0.8252
  133MOL   H13726801   1.865   0.782   0.207 -0.2584 -0.2813  1.2048
  133MOL   H13826802   2.025   0.745   0.234  0.7749 -1.0152 -1.7711
  133MOL   H13926803   1.959   0.738   8.258 -0.2729  4.1262 -2.4002
  133MOL   H14026804   1.720   0.864   8.372  0.5864 -3.0025 -1.4698
  133MOL   H14126805   1.844   0.938   0.042  2.0940 -1.8694 -0.4411
  133MOL   C14226806   1.847   0.982   8.244  0.1246  0.2685 -0.0041
  133MOL   C14326807   1.739   1.093   8.236  0.7528 -0.7098  0.2941
  133MOL  Cl14426808   1.817   1.240   8.272  0.2957  0.2106  0.0653
  133MOL   C14526809   1.618   1.083   8.185 -0.3578  0.2855  1.2363
  133MOL   C14626810   1.520   1.193   8.160  0.7231  0.4230  0.7591
  133MOL   H14726811   1.858   0.931   8.148 -1.9400  0.6527 -0.4617
  133MOL   H14826812   1.945   1.027   8.261  1.9268 -3.3088 -0.4754
  133MOL   H14926813   1.589   0.986   8.147 -0.7906  0.6727  0.5731
  133MOL   H15026814   1.433   1.149   8.209  2.0168 -1.6027  1.2831
  133MOL   H15126815   1.539   1.294   8.198  0.5752  0.1457  1.5796
  133MOL   C15226816   1.475   1.213   8.018  0.6631 -0.3551 -0.6746
  133MOL   C15326817   1.573   1.289   7.929 -0.6547  0.7576  0.2241
  133MOL  Cl15426818   1.635   1.183   7.811  0.0083  0.2112 -0.3938
  133MOL   C15526819   1.613   1.415   7.952  0.1779 -0.6719  0.1333
  133MOL   C15626820   1.714   1.490   7.865  0.2128 -0.2311  0.2776
  133MOL   H15726821   1.456   1.110   7.988 -0.6862 -1.5233  3.7109
  133MOL   H15826822   1.381   1.267   8.006  2.2480  2.2525 -1.7757
  133MOL   H15926823   1.567   1.475   8.029 -0.0288 -0.1493 -0.3971
  133MOL   H16026824   1.731   1.455   7.763 -0.5417  1.8538 -0.5985
  133MOL   H16126825   1.812   1.480   7.912  0.5008  0.3560 -0.2024
  133MOL   C16226826   1.675   1.635   7.870  0.3437 -0.0946  0.1156
  133MOL   C16326827   1.761   1.728   7.790 -0.7623 -0.3161  0.1266
  133MOL  Cl16426828   1.916   1.748   7.875 -0.2081 -0.2405 -0.1560
  133MOL   C16526829   1.727   1.787   7.675 -0.3784  0.3588  0.0158
  133MOL   C16626830   1.818   1.889   7.605  0.2022  0.0430  0.1656
  133MOL   H16726831   1.578   1.650   7.822  0.4502  0.2628  0.0071
  133MOL   H16826832   1.675   1.674   7.971  1.9312 -0.9616  0.4484
  133MOL   H16926833   1.637   1.769   7.618 -0.7990  0.9008  0.5054
  133MOL   H17026834   1.916   1.907   7.650  1.1132  0.7531 -2.0172
  133MOL   H17126835   1.844   1.846   7.509 -3.2957 -2.0233  0.0714
  133MOL   C17226836   1.756   2.028   7.570 -0.0870  0.0839  0.5345
  133MOL   C17326837   1.852   2.134   7.518  0.1593 -0.0968  0.0649
  133MOL  Cl17426838   1.963   2.180   7.640  0.1025 -0.2170 -0.5533
  133MOL   C17526839   1.842   2.215   7.415  0.0895 -0.0732 -0.0506
  133MOL   C17626840   1.931   2.328   7.364 -0.1751 -0.3346  0.2608
  133MOL   H17726841   1.717   2.074   7.660 -0.6012 -1.0199  0.8835
  133MOL   H17826842   1.670   2.014   7.505 -0.1647 -0.2452  0.7058
  133MOL   H17926843   1.758   2.195   7.350  2.1495 -1.2500 -2.4423
  133MOL   H18026844   1.942   2.334   7.256 -0.4330  1.2617  0.3095
  133MOL   H18126845   2.034   2.323   7.399  0.0495  1.4616 -0.1425
  133MOL   C18226846   1.880   2.462   7.412  0.2481  0.0748  0.3074
  133MOL   C18326847   1.761   2.529   7.349  0.3530 -0.3499  0.4837
  133MOL  Cl18426848   1.693   2.647   7.455 -0.1208  0.1870 -0.0636
  133MOL   C18526849   1.703   2.489   7.230  0.1004  0.0499  0.2487
  133MOL   C18626850   1.570   2.543   7.177  0.1797 -0.1913  0.2553
  133MOL   H18726851   1.866   2.461   7.520  0.3719 -0.5827  0.3198
  133MOL   H18826852   1.964   2.529   7.391  2.1390 -2.0396  0.9110
  133MOL   H18926853   1.750   2.406   7.179 -0.2982  0.9158 -1.5614
  133MOL   H19026854   1.505   2.459   7.202  1.0670 -0.5596  1.3454
  133MOL   H19126855   1.532   2.631   7.230 -0.5494 -0.2639 -0.1435
  133MOL   C19226856   1.574   2.570   7.019 -0.5539  0.3062 -0.3762
  133MOL   C19326857   1.449   2.509   6.943 -0.0488  0.3276 -0.2780
  133MOL  Cl19426858   1.457   2.337   6.909  0.0965  0.7719 -0.3321
  133MOL   C19526859   1.340   2.580   6.909  0.6722 -0.2037 -0.0228
  133MOL   C19626860   1.303   2.723   6.923 -0.0088 -0.1134 -0.0921
  133MOL   H19726861   1.659   2.520   6.972  0.0288 -0.4656  1.4509
  133MOL   H19826862   1.584   2.676   6.995  0.0583  0.1924 -0.6312
  133MOL   H19926863   1.264   2.522   6.860 -0.0713  0.6272  0.1429
  133MOL   H20026864   1.235   2.736   7.007 -1.7939  0.5782 -1.6086
  133MOL   H20126865   1.271   2.763   6.827  0.1156 -0.6199 -0.3460
  133MOL   H20226866   1.389   2.784   6.950 -0.2114 -0.2504  0.8975
  134MOL     C126867   3.633   2.802   3.564 -0.1091  0.0078 -0.4089
  134MOL     C226868   3.607   2.661   3.627 -0.2838 -0.5231 -0.3996
  134MOL    Cl326869   3.492   2.571   3.537 -0.2669 -0.0657 -0.2754
  134MOL     C426870   3.661   2.620   3.741  0.3147 -0.2471 -0.2969
  134MOL     C526871   3.766   2.686   3.826 -0.2166  0.1022 -1.1323
  134MOL     H626872   3.605   2.787   3.460  0.0543  0.0647 -0.4601
  134MOL     H726873   3.736   2.835   3.571 -0.4078  1.0299 -0.7280
  134MOL     H826874   3.621   2.525   3.775 -2.5265  0.6788 -0.9012
  134MOL     H926875   3.810   2.780   3.793  1.2510  1.0221  3.0970
  134MOL    H1026876   3.708   2.720   3.911  1.8891  1.4149 -0.1823
  134MOL    H1126877   3.562   2.873   3.607 -0.4422 -1.4983  1.6324
  134MOL    C1226878   3.862   2.582   3.892  0.4064  0.0942  0.7055
  134MOL    C1326879   3.962   2.649   3.997 -0.3175 -0.0521 -0.0807
  134MOL   Cl1426880   4.101   2.703   3.923  0.0426  0.0129 -0.5427
  134MOL    C1526881   3.940   2.651   4.131 -0.5082  0.3984  0.1899
  134MOL    C1626882   3.818   2.597   4.207 -0.5928 -0.2819  0.7711
  134MOL    H1726883   3.794   2.512   3.941 -1.2002  1.7358  0.8808
  134MOL    H1826884   3.927   2.528   3.822  0.1499  0.1755  0.4001
  134MOL    H1926885   4.013   2.700   4.193 -0.4047  2.2751 -1.3975
  134MOL    H2026886   3.740   2.564   4.138  1.3116  0.1943 -1.6861
  134MOL    H2126887   3.841   2.509   4.266 -0.0671 -1.8394 -1.6613
  134MOL    C2226888   3.752   2.704   4.295 -0.3147  0.6609  0.0059
  134MOL    C2326889   3.676   2.663   4.418  0.3282 -1.2152 -0.0651
  134MOL   Cl2426890   3.505   2.664   4.401 -0.4083 -0.3208 -0.0498
  134MOL    C2526891   3.735   2.629   4.533  0.0801  0.0058  0.3173
  134MOL    C2626892   3.665   2.593   4.662  0.1425 -0.2165  0.7746
  134MOL    H2726893   3.829   2.771   4.332  0.3504 -0.2046  0.1994
  134MOL    H2826894   3.687   2.766   4.233 -0.3936 -0.8171 -1.4319
  134MOL    H2926895   3.843   2.621   4.544  0.0454 -1.5982 -0.2517
  134MOL    H3026896   3.684   2.668   4.739 -1.8025  1.0017  0.1091
  134MOL    H3126897   3.559   2.604   4.638 -0.0305 -2.1415  0.5767
  134MOL    C3226898   3.700   2.450   4.725  0.1330  0.2421  0.2356
  134MOL    C3326899   3.631   2.405   4.843  0.0032 -0.5769 -0.5578
  134MOL   Cl3426900   3.694   2.248   4.894  0.0172  0.1600 -0.0851
  134MOL    C3526901   3.526   2.463   4.907  0.1240 -0.2143 -0.1613
  134MOL    C3626902   3.463   2.406   5.036 -0.0436  0.3178 -0.0587
  134MOL    H3726903   3.692   2.369   4.652 -0.4291  0.6050 -0.1005
  134MOL    H3826904   3.807   2.438   4.745 -0.0052 -0.7220  0.4001
  134MOL    H3926905   3.482   2.549   4.860  1.9107 -0.3581 -2.1464
  134MOL    H4026906   3.497   2.306   5.063  0.2467  0.7264  1.0855
  134MOL    H4126907   3.509   2.464   5.115  1.7174 -1.2479  0.0857
  134MOL    C4226908   3.312   2.418   5.035 -0.2717 -0.6978  0.4362
  134MOL    C4326909   3.253   2.335   5.145  0.0603  0.1553  0.2795
  134MOL   Cl4426910   3.160   2.434   5.253 -0.3095  0.4861 -0.1889
  134MOL    C4526911   3.263   2.201   5.171 -0.3719 -0.4637  0.0643
  134MOL    C4626912   3.332   2.102   5.074 -0.1111  0.4128 -0.1662
  134MOL    H4726913   3.271   2.519   5.039 -0.4020 -0.7474  0.3466
  134MOL    H4826914   3.285   2.374   4.939  0.0371 -0.9606  0.4685
  134MOL    H4926915   3.219   2.152   5.256  0.2248  0.3574  0.8530
  134MOL    H5026916   3.259   2.035   5.029  1.6487 -0.4188 -1.8461
  134MOL    H5126917   3.379   2.156   4.992  0.0898 -1.3239 -1.2064
  134MOL    C5226918   3.435   2.013   5.145 -0.6558  0.1441  0.6148
  134MOL    C5326919   3.509   1.915   5.056 -0.9324 -0.6982  0.6287
  134MOL   Cl5426920   3.409   1.816   4.959 -0.1940  0.0682  0.1535
  134MOL    C5526921   3.646   1.901   5.059 -0.0293  0.3125 -0.9865
  134MOL    C5626922   3.731   1.806   4.979  0.2986  0.5831 -0.9465
  134MOL    H5726923   3.508   2.072   5.201  0.2509 -0.5311  0.1661
  134MOL    H5826924   3.392   1.955   5.226 -0.3927  1.0095  1.3794
  134MOL    H5926925   3.693   1.966   5.132 -1.7674  1.1603 -0.6065
  134MOL    H6026926   3.777   1.749   5.059 -1.4009  1.2785  0.5388
  134MOL    H6126927   3.673   1.729   4.928  0.0341  0.7758 -0.9417
  134MOL    C6226928   3.837   1.874   4.893 -0.3428 -0.1695  0.3450
  134MOL    C6326929   3.897   1.794   4.784 -0.7013 -0.7934  0.4042
  134MOL   Cl6426930   3.968   1.649   4.842  0.2295  0.2668 -0.4559
  134MOL    C6526931   3.911   1.834   4.658  0.3162 -0.0306  0.4672
  134MOL    C6626932   3.975   1.747   4.549 -0.8004  0.0005 -0.4044
  134MOL    H6726933   3.797   1.965   4.848  0.3046  0.8903  1.8752
  134MOL    H6826934   3.915   1.913   4.958 -0.0267 -0.1654 -0.0432
  134MOL    H6926935   3.883   1.935   4.631  2.2015  0.3655 -0.1591
  134MOL    H7026936   3.916   1.767   4.460 -0.7155  0.9637 -0.2563
  134MOL    H7126937   3.963   1.643   4.576  0.9235  0.4475  2.2502
  134MOL    C7226938   4.120   1.795   4.534  0.6536 -0.2202  0.7024
  134MOL    C7326939   4.183   1.762   4.399 -0.1494 -0.4939 -0.6232
  134MOL   Cl7426940   4.216   1.910   4.309 -0.0025 -0.1153  0.6872
  134MOL    C7526941   4.209   1.645   4.346  0.2914 -0.0729  0.1502
  134MOL    C7626942   4.262   1.619   4.203  0.1983 -0.8206 -0.5198
  134MOL    H7726943   4.179   1.746   4.612 -1.5471 -1.6534  1.4965
  134MOL    H7826944   4.112   1.903   4.548 -1.6029 -0.2758  0.0291
  134MOL    H7926945   4.187   1.564   4.414  0.4354  1.4485  2.0626
  134MOL    H8026946   4.251   1.704   4.136 -0.8296 -1.8444 -1.6681
  134MOL    H8126947   4.193   1.543   4.167  1.1904 -0.8950 -2.2945
  134MOL    C8226948   4.406   1.566   4.211 -0.2989 -0.5818  0.3168
  134MOL    C8326949   4.516   1.659   4.264 -0.8806  0.5059  0.5320
  134MOL   Cl8426950   4.601   1.588   4.392  0.2350  0.0639  0.1046
  134MOL    C8526951   4.552   1.780   4.211 -0.2896 -0.6331 -1.1006
  134MOL    C8626952   4.680   1.854   4.259 -0.1092 -0.0178  0.6124
  134MOL    H8726953   4.443   1.523   4.118 -0.1949 -1.6724  0.8585
  134MOL    H8826954   4.404   1.479   4.276  0.6513  0.3791  1.6548
  134MOL    H8926955   4.496   1.831   4.134  1.0947  3.0290  0.2303
  134MOL    H9026956   4.658   1.942   4.319 -0.3178  0.9061 -0.8001
  134MOL    H9126957   4.738   1.795   4.330 -0.3591 -0.8884  0.1016
  134MOL    C9226958   4.776   1.892   4.142  0.1765 -0.1835 -0.2629
  134MOL    C9326959   4.852   2.019   4.165 -0.3340  0.5647 -0.0746
  134MOL   Cl9426960   5.018   2.000   4.192 -0.2825  0.2100  0.1853
  134MOL    C9526961   4.792   2.138   4.158  0.1905  0.4769  0.1567
  134MOL    C9626962   4.652   2.154   4.110  0.1432 -0.3917  1.0204
  134MOL    H9726963   4.712   1.901   4.054  0.6050  1.0508 -0.4648
  134MOL    H9826964   4.837   1.803   4.129  0.3952 -0.1892  0.7813
  134MOL    H9926965   4.842   2.227   4.195 -2.0041  1.5007  0.7297
  134MOL   H10026966   4.624   2.083   4.033 -0.6193  0.7747  0.1959
  134MOL   H10126967   4.583   2.135   4.192 -0.5902  1.5920  0.8911
  134MOL   C10226968   4.623   2.302   4.059 -0.7627  0.5906 -0.0507
  134MOL   C10326969   4.491   2.316   3.989  0.5042 -0.0005 -0.3678
  134MOL  Cl10426970   4.528   2.399   3.843  0.2589  0.1724 -0.6638
  134MOL   C10526971   4.368   2.275   4.039 -0.7158  0.3420  0.6281
  134MOL   C10626972   4.242   2.284   3.960 -0.4303 -0.2533 -0.4920
  134MOL   H10726973   4.627   2.354   4.155  0.3105  0.9768 -0.3039
  134MOL   H10826974   4.704   2.335   3.995 -0.6022 -1.2024 -0.7764
  134MOL   H10926975   4.377   2.241   4.141 -0.1077 -0.3117  0.3589
  134MOL   H11026976   4.160   2.318   4.024 -0.9192 -3.4808  0.6969
  134MOL   H11126977   4.253   2.349   3.874  1.1734  1.2159  0.7924
  134MOL   C11226978   4.196   2.144   3.907  0.5395 -0.0316 -0.2666
  134MOL   C11326979   4.049   2.124   3.870 -0.6405 -0.1886 -0.8279
  134MOL  Cl11426980   3.970   2.260   3.797 -0.3223  0.1215  0.1278
  134MOL   C11526981   3.982   2.008   3.891  0.7124  0.6971 -0.1464
  134MOL   C11626982   4.040   1.876   3.936  0.3527  0.5235 -0.1683
  134MOL   H11726983   4.262   2.117   3.825 -0.5458  2.0953 -1.9188
  134MOL   H11826984   4.223   2.066   3.978  2.3925 -0.6517 -1.6090
  134MOL   H11926985   3.877   2.012   3.869  0.8973  0.6142 -1.0700
  134MOL   H12026986   4.084   1.875   4.036 -4.1552 -2.0337  1.9575
  134MOL   H12126987   4.125   1.849   3.873 -0.2551  1.4009 -1.3845
  134MOL   C12226988   3.926   1.774   3.936 -0.5387 -0.1255  0.0118
  134MOL   C12326989   3.810   1.801   4.032  0.3824  0.0144 -0.0694
  134MOL  Cl12426990   3.871   1.849   4.187 -0.1065  0.2394 -0.0209
  134MOL   C12526991   3.678   1.794   4.005 -0.5403 -0.4443  0.2056
  134MOL   C12626992   3.608   1.750   3.877 -0.1546  1.0724 -0.3693
  134MOL   H12726993   3.884   1.764   3.837  1.9863  2.3865 -1.3914
  134MOL   H12826994   3.960   1.671   3.947  0.6093  0.2244 -0.1504
  134MOL   H12926995   3.605   1.823   4.079 -1.4696 -1.4001 -0.3170
  134MOL   H13026996   3.572   1.829   3.812 -0.4683 -0.0796 -1.6187
  134MOL   H13126997   3.678   1.695   3.814 -1.5934  0.1125 -1.1442
  134MOL   C13226998   3.479   1.667   3.907  0.2796 -0.5635  0.0609
  134MOL   C13326999   3.388   1.634   3.793 -0.0607  0.6040  0.5466
  134MOL  Cl13427000   3.289   1.767   3.749  0.0155  0.4863  0.9532
  134MOL   C13527001   3.361   1.514   3.741 -0.1388  0.1414 -0.5345
  134MOL   C13627002   3.440   1.385   3.770  0.5881  0.1863  0.0649
  134MOL   H13727003   3.511   1.575   3.956  1.7078  0.2997  0.7852
  134MOL   H13827004   3.416   1.718   3.980  0.9180 -1.0178  0.9526
  134MOL   H13927005   3.278   1.511   3.672 -0.4019  0.2711 -0.2233
  134MOL   H14027006   3.460   1.340   3.673 -0.4615 -1.5285  0.6147
  134MOL   H14127007   3.541   1.397   3.810 -0.5583 -0.7297  3.4056
  134MOL   C14227008   3.347   1.288   3.848 -0.6625  0.7484  0.1021
  134MOL   C14327009   3.427   1.159   3.900  0.1161  0.3133  0.2364
  134MOL  Cl14427010   3.409   1.014   3.796 -0.0933 -0.1265 -0.1115
  134MOL   C14527011   3.490   1.148   4.016  0.0585  0.3746 -0.6357
  134MOL   C14627012   3.556   1.020   4.076 -0.6815  0.1158 -1.1312
  134MOL   H14727013   3.261   1.256   3.790  0.9783 -2.6131 -0.5813
  134MOL   H14827014   3.299   1.345   3.927 -0.5656 -0.5757  1.1322
  134MOL   H14927015   3.490   1.242   4.070  0.4758  0.1184 -0.1927
  134MOL   H15027016   3.569   0.933   4.012 -1.5279 -1.3010  0.5745
  134MOL   H15127017   3.644   1.059   4.128 -1.7526 -0.3180  1.0693
  134MOL   C15227018   3.468   0.941   4.176 -0.2379 -0.5502 -0.0225
  134MOL   C15327019   3.434   1.023   4.303  0.3080 -0.4506 -0.8383
  134MOL  Cl15427020   3.264   1.052   4.326  0.1817 -0.1660 -0.0517
  134MOL   C15527021   3.528   1.046   4.395  0.0360 -0.2485  0.2107
  134MOL   C15627022   3.495   1.110   4.530  1.1102 -0.9285 -0.0040
  134MOL   H15727023   3.381   0.916   4.115 -0.7490  0.4948  0.2621
  134MOL   H15827024   3.505   0.849   4.219  0.3359  0.8164  2.5315
  134MOL   H15927025   3.632   1.020   4.382  0.7746  1.7362  1.8373
  134MOL   H16027026   3.391   1.143   4.537  1.3951 -0.2189  1.0696
  134MOL   H16127027   3.564   1.194   4.524 -0.9249  0.8497  0.6857
  134MOL   C16227028   3.532   1.023   4.648 -0.2656 -0.5171 -0.4603
  134MOL   C16327029   3.549   1.102   4.779 -0.4599 -0.0345 -0.7240
  134MOL  Cl16427030   3.415   1.192   4.841  0.1001 -0.0874  0.2671
  134MOL   C16527031   3.665   1.099   4.847  0.1104 -0.7109 -0.0257
  134MOL   C16627032   3.691   1.160   4.983  0.6126 -0.3054  0.4594
  134MOL   H16727033   3.468   0.936   4.659 -0.2622 -0.5116 -0.3971
  134MOL   H16827034   3.629   0.982   4.622 -0.0542 -2.1041  2.6471
  134MOL   H16927035   3.749   1.052   4.798  1.0116  0.3907  0.4276
  134MOL   H17027036   3.595   1.192   5.024  0.2350 -3.2377  1.9718
  134MOL   H17127037   3.734   1.085   5.048  2.8555  1.4739  1.0777
  134MOL   C17227038   3.798   1.264   4.980  0.3534 -0.3021 -0.0520
  134MOL   C17327039   3.822   1.322   5.114  0.3108  0.1967  0.3946
  134MOL  Cl17427040   3.933   1.231   5.209  0.2014  0.0246  0.2657
  134MOL   C17527041   3.759   1.433   5.154  0.1812 -1.1091  0.5595
  134MOL   C17627042   3.776   1.496   5.287  0.3144  0.1724  0.0932
  134MOL   H17727043   3.766   1.345   4.914 -0.8673  0.0801  1.0011
  134MOL   H17827044   3.887   1.220   4.936  1.1184  0.2868  0.8621
  134MOL   H17927045   3.687   1.484   5.092  1.3943 -3.4438 -2.9328
  134MOL   H18027046   3.858   1.568   5.284  0.9382 -0.5659 -1.3431
  134MOL   H18127047   3.811   1.416   5.353 -2.0183  0.0107  1.2046
  134MOL   C18227048   3.644   1.551   5.345 -0.1393  0.0753  0.1324
  134MOL   C18327049   3.665   1.629   5.472 -0.4513 -0.6387  0.8861
  134MOL  Cl18427050   3.577   1.571   5.608 -0.3702  0.2099 -0.1073
  134MOL   C18527051   3.748   1.734   5.487 -0.4890  0.0004  0.0226
  134MOL   C18627052   3.772   1.828   5.608 -0.2240 -0.0617  0.5788
  134MOL   H18727053   3.610   1.629   5.276  0.8926  1.7287  1.4320
  134MOL   H18827054   3.578   1.466   5.360  1.2348 -1.0580 -0.0963
  134MOL   H18927055   3.806   1.753   5.398  2.4466 -0.3105  1.8214
  134MOL   H19027056   3.742   1.775   5.698 -0.6074 -0.9318 -0.0502
  134MOL   H19127057   3.879   1.846   5.609  0.1472 -1.9872 -0.6414
  134MOL   C19227058   3.701   1.961   5.608 -0.5561 -0.1523  0.0804
  134MOL   C19327059   3.747   2.044   5.732 -1.1162  0.6134  0.1625
  134MOL  Cl19427060   3.647   2.046   5.863 -0.5452 -0.1708 -0.2264
  134MOL   C19527061   3.851   2.124   5.741  0.0626 -0.7621 -0.2485
  134MOL   C19627062   3.957   2.149   5.628  0.4954 -0.5062  0.2015
  134MOL   H19727063   3.593   1.945   5.613 -0.6197  0.7125  1.8840
  134MOL   H19827064   3.707   2.017   5.515 -0.3238 -0.6260 -0.1928
  134MOL   H19927065   3.864   2.180   5.832 -1.3490 -3.8884  1.9678
  134MOL   H20027066   3.945   2.253   5.599 -1.8216 -0.6986  0.4035
  134MOL   H20127067   3.936   2.094   5.536  1.6195  1.2774 -1.1651
  134MOL   H20227068   4.057   2.122   5.663  0.0655 -1.9868  0.3176
  135MOL     C127069   4.928   8.029   2.248 -0.3643 -0.2641 -0.4266
  135MOL     C227070   4.931   8.121   2.121  0.1914 -0.2024  0.3698
  135MOL    Cl327071   4.952   8.280   2.176 -0.0090 -0.0174  0.2168
  135MOL     C427072   4.931   8.079   1.994  0.2443  0.6571 -0.1733
  135MOL     C527073   4.918   7.930   1.946  1.0753  0.5635 -0.2435
  135MOL     H627074   4.939   8.088   2.339  0.5841 -1.3066  0.1536
  135MOL     H727075   5.014   7.963   2.243 -0.5173 -0.3724 -2.1902
  135MOL     H827076   4.935   8.154   1.916  1.4568  0.2481 -0.5273
  135MOL     H927077   4.848   7.884   2.015  1.0788  1.5830  0.4466
  135MOL    H1027078   4.853   7.922   1.859 -1.6801  1.5238  1.6574
  135MOL    H1127079   4.842   7.963   2.259  0.2525 -0.5772  2.7552
  135MOL    C1227080   5.045   7.858   1.925 -0.2116  0.1882  0.0559
  135MOL    C1327081   5.041   7.709   1.909  0.0112  0.0803  0.0371
  135MOL   Cl1427082   5.151   7.629   2.022  0.2496  0.0520 -0.0203
  135MOL    C1527083   4.969   7.636   1.815 -0.0271 -0.2816 -0.2070
  135MOL    C1627084   4.872   7.680   1.717 -0.1633 -0.5203  0.4326
  135MOL    H1727085   5.105   7.896   1.842  1.3602 -0.9188  0.6549
  135MOL    H1827086   5.112   7.877   2.009  0.0606  1.5834 -0.4714
  135MOL    H1927087   4.990   7.530   1.814  0.3368 -0.2164  0.2791
  135MOL    H2027088   4.886   7.788   1.710  1.7431 -0.7612  0.3691
  135MOL    H2127089   4.903   7.643   1.620  2.6201  1.7204  0.3972
  135MOL    C2227090   4.733   7.632   1.746 -0.2807  0.7931 -0.1901
  135MOL    C2327091   4.639   7.673   1.638 -0.6669  0.4390  0.1261
  135MOL   Cl2427092   4.647   7.571   1.502 -0.2500 -0.1496  0.4329
  135MOL    C2527093   4.548   7.763   1.654 -0.1603  0.4917 -0.7447
  135MOL    C2627094   4.445   7.802   1.548  0.4163  0.0912  0.3424
  135MOL    H2727095   4.735   7.523   1.747  1.7570  0.8020 -1.3558
  135MOL    H2827096   4.698   7.673   1.841 -1.9310  0.8600 -0.8131
  135MOL    H2927097   4.541   7.824   1.742  0.4529  0.4995 -0.7024
  135MOL    H3027098   4.431   7.909   1.533 -1.6973 -0.4269 -1.8187
  135MOL    H3127099   4.492   7.776   1.453 -0.6281  2.0561 -0.7576
  135MOL    C3227100   4.313   7.734   1.565  0.6168  0.2861 -0.2357
  135MOL    C3327101   4.216   7.780   1.453  1.1004 -0.6752 -0.1787
  135MOL   Cl3427102   4.093   7.884   1.515 -0.4718  0.3110 -0.4973
  135MOL    C3527103   4.208   7.723   1.336  0.3892  0.3808  0.1045
  135MOL    C3627104   4.104   7.759   1.221 -0.6199 -0.0843  0.4352
  135MOL    H3727105   4.318   7.626   1.575  0.5717  0.2685 -0.4098
  135MOL    H3827106   4.264   7.755   1.660  0.9744 -0.6184  0.1535
  135MOL    H3927107   4.277   7.646   1.303 -0.8322 -0.3198 -0.8677
  135MOL    H4027108   4.060   7.858   1.223  2.3851  1.2827  2.4037
  135MOL    H4127109   4.176   7.780   1.142 -1.9907 -1.2191 -1.1702
  135MOL    C4227110   4.013   7.639   1.167 -0.6142 -0.0188 -0.4238
  135MOL    C4327111   4.055   7.503   1.199  0.0966 -0.8176  0.8396
  135MOL   Cl4427112   4.155   7.434   1.078 -0.0559  0.4930 -0.0544
  135MOL    C4527113   4.018   7.435   1.310 -0.1315 -0.1865 -0.0885
  135MOL    C4627114   3.943   7.479   1.426 -0.0365 -0.2827  0.4179
  135MOL    H4727115   3.912   7.641   1.208  0.0839 -2.2099  1.5021
  135MOL    H4827116   4.010   7.651   1.058  0.4081 -0.2036 -0.4759
  135MOL    H4927117   4.051   7.332   1.309  0.9131  0.1122 -3.1736
  135MOL    H5027118   3.913   7.584   1.427 -0.9213 -0.5256  0.4348
  135MOL    H5127119   3.844   7.433   1.422  1.7054 -4.1149 -0.4369
  135MOL    C5227120   4.029   7.464   1.559  0.2507 -0.3305  0.1589
  135MOL    C5327121   3.942   7.518   1.679 -0.2812  0.3750 -0.7381
  135MOL   Cl5427122   3.830   7.401   1.720 -0.3976  0.0705 -0.0831
  135MOL    C5527123   3.943   7.639   1.741  0.2500  0.6094  0.9855
  135MOL    C5627124   3.859   7.686   1.851  0.4240 -0.2362 -0.1818
  135MOL    H5727125   4.054   7.359   1.571 -1.5155 -0.7048  0.7767
  135MOL    H5827126   4.124   7.517   1.560  1.5046 -2.4827 -1.3041
  135MOL    H5927127   4.015   7.715   1.714  0.9176 -0.2067  0.4392
  135MOL    H6027128   3.783   7.748   1.804  0.8254  0.3375 -0.0823
  135MOL    H6127129   3.805   7.606   1.901 -0.9312  0.8911  0.1946
  135MOL    C6227130   3.948   7.747   1.969  0.6329  0.0426  0.4758
  135MOL    C6327131   4.018   7.872   1.919  0.1870  0.7740  0.1675
  135MOL   Cl6427132   3.899   7.996   1.900  0.0523  0.2223  0.7424
  135MOL    C6527133   4.145   7.885   1.882  0.5699  0.2153 -0.1828
  135MOL    C6627134   4.211   8.010   1.835 -0.3604 -0.4197 -0.5119
  135MOL    H6727135   3.873   7.778   2.042  0.1667 -0.0081  0.0201
  135MOL    H6827136   4.028   7.692   2.018  0.4464  0.2542  1.0235
  135MOL    H6927137   4.203   7.796   1.902 -0.1560 -0.0045  1.0469
  135MOL    H7027138   4.140   8.090   1.811 -0.9673 -1.2725 -1.5826
  135MOL    H7127139   4.256   7.979   1.741 -0.9708 -0.2454 -0.8603
  135MOL    C7227140   4.330   8.064   1.921 -0.0995 -0.1520 -0.3462
  135MOL    C7327141   4.374   8.201   1.880 -0.2247 -0.2602 -0.7388
  135MOL   Cl7427142   4.283   8.328   1.958 -0.4856  0.3972  0.5780
  135MOL    C7527143   4.480   8.211   1.795 -0.5227 -0.1870  0.3890
  135MOL    C7627144   4.547   8.335   1.737  0.0977  0.1973  0.2955
  135MOL    H7727145   4.415   7.997   1.928  0.3315  0.3108 -1.0681
  135MOL    H7827146   4.293   8.072   2.023 -0.0718 -2.3774 -0.1367
  135MOL    H7927147   4.525   8.118   1.763 -0.2622  0.8243 -2.3211
  135MOL    H8027148   4.494   0.002   1.773  1.1939  0.4875  1.2254
  135MOL    H8127149   4.539   8.346   1.629 -1.9396 -0.9984  0.2984
  135MOL    C8227150   4.691   8.350   1.788 -0.0972 -0.6657 -0.4951
  135MOL    C8327151   4.762   0.062   1.758 -0.0495 -0.5124 -0.6745
  135MOL   Cl8427152   4.931   0.049   1.798  0.3238  0.2957  0.2191
  135MOL    C8527153   4.709   0.167   1.685 -0.1981  0.1367  0.3782
  135MOL    C8627154   4.779   0.288   1.628 -0.8357 -0.6950  0.6144
  135MOL    H8727155   4.754   8.278   1.736  1.2654 -0.4231  0.7869
  135MOL    H8827156   4.691   8.331   1.895  0.2817  0.4693 -0.2903
  135MOL    H8927157   4.607   0.153   1.653  0.8472 -1.9873 -2.1811
  135MOL    H9027158   4.886   0.286   1.648 -0.6238 -1.0071 -0.5025
  135MOL    H9127159   4.761   0.288   1.520  0.1402 -1.3794  0.4420
  135MOL    C9227160   4.713   0.416   1.687 -0.2329 -0.5122  0.4922
  135MOL    C9327161   4.741   0.546   1.627  0.4280  1.1756 -0.1223
  135MOL   Cl9427162   4.846   0.532   1.488 -0.0503  0.3635  0.0660
  135MOL    C9527163   4.663   0.654   1.645  0.3461 -0.0859 -0.8064
  135MOL    C9627164   4.555   0.670   1.748 -0.6763 -0.2564 -0.6470
  135MOL    H9727165   4.747   0.432   1.789  0.0035 -0.5343  0.4187
  135MOL    H9827166   4.606   0.398   1.688 -0.8014  2.5006 -0.5528
  135MOL    H9927167   4.679   0.744   1.588 -3.1281 -0.6325 -2.7909
  135MOL   H10027168   4.501   0.576   1.743  0.8789 -1.1958 -0.3371
  135MOL   H10127169   4.617   0.675   1.837 -1.4987 -1.2706 -0.0082
  135MOL   C10227170   4.478   0.804   1.729  0.7237 -0.1301  0.1551
  135MOL   C10327171   4.393   0.859   1.845  0.5379 -0.1392  0.4292
  135MOL  Cl10427172   4.228   0.792   1.834  0.1844 -0.0567  0.4972
  135MOL   C10527173   4.423   0.955   1.933  1.0904 -0.1262  0.6603
  135MOL   C10627174   4.321   1.022   2.023  0.2562 -0.9737  0.3815
  135MOL   H10727175   4.538   0.886   1.690  0.7670 -0.0993  0.2858
  135MOL   H10827176   4.408   0.788   1.647  1.1757  1.3796 -0.5367
  135MOL   H10927177   4.523   0.996   1.939  0.2173  1.9964  1.2108
  135MOL   H11027178   4.293   1.109   1.963 -0.9826 -2.5129 -1.3435
  135MOL   H11127179   4.222   0.975   2.018 -0.5931  0.5636  2.3116
  135MOL   C11227180   4.341   1.044   2.175 -0.0120 -0.0828 -1.0225
  135MOL   C11327181   4.255   1.160   2.221  0.1581  0.4268 -0.2682
  135MOL  Cl11427182   4.335   1.311   2.203  0.0075  0.0899 -0.0598
  135MOL   C11527183   4.124   1.161   2.258  0.7186 -0.3959 -0.7669
  135MOL   C11627184   4.038   1.040   2.263  0.0082 -0.7534 -0.6654
  135MOL   H11727185   4.316   0.954   2.231 -0.5319  2.6150  3.3326
  135MOL   H11827186   4.445   1.063   2.199  0.8748 -2.0646 -3.1443
  135MOL   H11927187   4.079   1.255   2.287  0.1891 -0.7764 -0.3542
  135MOL   H12027188   4.096   0.955   2.225 -0.9336 -1.3120 -0.8704
  135MOL   H12127189   3.948   1.061   2.206 -1.5119  0.6399  2.1524
  135MOL   C12227190   3.995   1.005   2.404  0.0020 -0.1126 -0.6572
  135MOL   C12327191   3.923   0.878   2.410  0.6015  0.0893 -0.0706
  135MOL  Cl12427192   4.013   0.758   2.491  0.2587  0.2340 -0.3268
  135MOL   C12527193   3.794   0.856   2.394 -0.3930  0.6772 -0.4192
  135MOL   C12627194   3.690   0.949   2.337 -0.3262  0.0468  0.5741
  135MOL   H12727195   4.083   0.985   2.465  0.1951 -3.5423 -1.9708
  135MOL   H12827196   3.946   1.090   2.452  0.1170  0.7103 -1.9975
  135MOL   H12927197   3.748   0.762   2.421 -0.5845  0.8416 -0.1766
  135MOL   H13027198   3.736   1.037   2.294 -0.8934  0.2138  0.2946
  135MOL   H13127199   3.643   0.909   2.247  1.3020  0.9656 -0.7016
  135MOL   C13227200   3.595   0.984   2.454  0.3415 -0.3539  0.3938
  135MOL   C13327201   3.490   1.073   2.387 -0.8072  0.4607  0.0370
  135MOL  Cl13427202   3.348   0.980   2.363 -0.0053  0.1932 -0.1268
  135MOL   C13527203   3.489   1.207   2.354 -0.7250  0.6321  0.4269
  135MOL   C13627204   3.605   1.306   2.369 -0.1110  0.1102 -0.1889
  135MOL   H13727205   3.556   0.901   2.512  1.9351 -0.6602  1.0715
  135MOL   H13827206   3.629   1.040   2.541  1.7519 -0.0786 -0.3059
  135MOL   H13927207   3.396   1.240   2.310 -0.5073 -0.4809 -0.8918
  135MOL   H14027208   3.691   1.239   2.372 -0.1272  0.0547 -0.8200
  135MOL   H14127209   3.614   1.379   2.288 -2.5342  1.6443  0.8512
  135MOL   C14227210   3.621   1.383   2.505  0.2069 -0.1451  0.3475
  135MOL   C14327211   3.744   1.469   2.516 -0.3510  0.2016  0.3089
  135MOL  Cl14427212   3.880   1.367   2.540 -0.5947 -0.2855  0.1751
  135MOL   C14527213   3.743   1.606   2.510 -0.6156  1.3445  0.2647
  135MOL   C14627214   3.861   1.696   2.536  0.3170  0.7752 -0.0782
  135MOL   H14727215   3.606   1.309   2.583  2.0018 -1.0235 -0.0949
  135MOL   H14827216   3.534   1.446   2.521 -0.5689 -1.0100 -0.4098
  135MOL   H14927217   3.651   1.656   2.484 -2.2434 -2.4145 -1.5656
  135MOL   H15027218   3.958   1.646   2.530  0.2630  0.6173  0.3458
  135MOL   H15127219   3.871   1.776   2.462  1.1212 -0.1177 -0.9562
  135MOL   C15227220   3.861   1.760   2.672  0.1588 -0.6540 -0.1046
  135MOL   C15327221   3.997   1.824   2.701  0.5027  0.4055  0.3033
  135MOL  Cl15427222   4.100   1.705   2.779 -0.2065  0.0550  0.1016
  135MOL   C15527223   4.032   1.952   2.681 -0.2177 -0.0715  0.3074
  135MOL   C15627224   4.159   2.014   2.722  0.3381 -0.3105  0.0049
  135MOL   H15727225   3.788   1.841   2.682  1.4466  1.0627 -3.7252
  135MOL   H15827226   3.840   1.680   2.743 -1.2475  0.0819  0.3262
  135MOL   H15927227   3.956   2.018   2.642 -0.6376 -0.7117  0.0298
  135MOL   H16027228   4.192   1.958   2.810  2.1961 -1.0901 -1.1536
  135MOL   H16127229   4.134   2.114   2.757  2.1339 -0.3116  1.3311
  135MOL   C16227230   4.271   1.995   2.617  0.0476  0.1984 -0.0980
  135MOL   C16327231   4.414   2.020   2.658  0.2144 -0.0748  0.0564
  135MOL  Cl16427232   4.478   2.156   2.573  0.5154  0.4206 -0.1513
  135MOL   C16527233   4.476   1.941   2.742 -0.0975 -0.4269 -0.0778
  135MOL   C16627234   4.617   1.943   2.794  1.0785 -0.7063  0.2673
  135MOL   H16727235   4.268   1.889   2.594  0.1103  0.2248 -0.2331
  135MOL   H16827236   4.254   2.051   2.525 -3.9436 -2.0320 -0.8467
  135MOL   H16927237   4.419   1.857   2.779  1.7913 -2.0185 -0.7011
  135MOL   H17027238   4.640   1.846   2.838 -3.5120 -1.2972  1.5697
  135MOL   H17127239   4.680   1.953   2.706  0.1733 -1.1738 -0.4338
  135MOL   C17227240   4.648   2.063   2.883 -0.3244  0.1708 -0.3719
  135MOL   C17327241   4.783   2.056   2.954  1.0709  0.2107  1.6029
  135MOL  Cl17427242   4.765   2.062   3.124  0.2950 -0.3101  0.0201
  135MOL   C17527243   4.901   2.044   2.890 -0.2346 -0.7231  0.2939
  135MOL   C17627244   5.036   2.038   2.952 -0.1223  0.6187  0.5637
  135MOL   H17727245   4.584   2.050   2.971  0.8403 -1.6277  0.2448
  135MOL   H17827246   4.626   2.159   2.836  1.1228  0.8965  0.3996
  135MOL   H17927247   4.902   2.046   2.782  1.9937 -2.3774  0.2549
  135MOL   H18027248   5.061   1.934   2.929 -0.5379 -0.1701  3.4186
  135MOL   H18127249   5.023   2.029   3.060 -1.9644 -1.3839  0.2262
  135MOL   C18227250   5.136   2.128   2.885  0.0111  0.6627 -0.1581
  135MOL   C18327251   5.273   2.082   2.923  0.4645  0.8456 -0.0580
  135MOL  Cl18427252   5.368   2.189   3.021 -0.3275  0.0741 -0.0356
  135MOL   C18527253   5.335   1.980   2.864  0.4561  0.1889 -0.3918
  135MOL   C18627254   5.477   1.940   2.876  0.7549 -0.3299 -0.0392
  135MOL   H18727255   5.113   2.107   2.780  0.1173 -1.6473  0.2436
  135MOL   H18827256   5.109   2.229   2.915  0.5120  0.4134  1.1676
  135MOL   H18927257   5.276   1.922   2.795 -1.2008  0.6125  0.6327
  135MOL   H19027258   5.548   2.006   2.926  0.7633  1.1307 -1.9362
  135MOL   H19127259   5.483   1.839   2.917  1.5372 -0.1515  0.2914
  135MOL   C19227260   5.559   1.918   2.750  0.7735 -0.2086 -0.3094
  135MOL   C19327261   5.713   1.895   2.778  0.1954 -0.6156 -0.0879
  135MOL  Cl19427262   5.748   1.726   2.754  0.0675  0.0277  0.4730
  135MOL   C19527263   5.814   1.986   2.779 -0.3871  0.3230 -0.2373
  135MOL   C19627264   5.789   2.135   2.778  0.4404  0.4873  0.4250
  135MOL   H19727265   5.547   1.998   2.676  1.5610  0.5241  0.3517
  135MOL   H19827266   5.515   1.828   2.706  0.6312 -0.2178 -0.1457
  135MOL   H19927267   5.911   1.939   2.794 -1.3241 -1.2786  0.9715
  135MOL   H20027268   5.816   2.175   2.680  1.7073 -2.5918 -0.5559
  135MOL   H20127269   5.838   2.181   2.863 -2.1638 -0.0689  2.2945
  135MOL   H20227270   5.685   2.161   2.797  1.1337  3.0247  0.9182
  136MOL     C127271   0.642   5.422   2.635 -0.3998  0.3752  0.2451
  136MOL     C227272   0.530   5.377   2.546  0.8746 -0.0857  0.2509
  136MOL    Cl327273   0.576   5.247   2.449 -0.7482 -0.7014 -0.2180
  136MOL     C427274   0.404   5.419   2.551  0.4530 -0.5699  0.2417
  136MOL     C527275   0.351   5.532   2.639  0.1238  0.5825  0.0056
  136MOL     H627276   0.605   5.423   2.738 -0.7857  1.3844  0.1039
  136MOL     H727277   0.677   5.519   2.599  0.4387  0.2731  0.7773
  136MOL     H827278   0.339   5.375   2.477 -0.2810  0.6134  0.1748
  136MOL     H927279   0.279   5.483   2.704  0.0157 -1.7116 -1.7792
  136MOL    H1027280   0.422   5.563   2.716  1.6437 -1.1836 -0.6508
  136MOL    H1127281   0.722   5.350   2.617 -1.0950  0.4258 -3.5647
  136MOL    C1227282   0.291   5.647   2.555 -0.2009 -0.0360 -0.4768
  136MOL    C1327283   0.391   5.721   2.471 -0.4379 -0.2869 -0.5291
  136MOL   Cl1427284   0.506   5.803   2.557 -0.1304 -0.0726  0.1046
  136MOL    C1527285   0.395   5.722   2.339 -0.3311  0.4770 -0.0495
  136MOL    C1627286   0.293   5.655   2.249 -0.1780  0.0147  0.4460
  136MOL    H1727287   0.206   5.607   2.499  0.4913 -0.3093 -1.3527
  136MOL    H1827288   0.252   5.719   2.627  0.0162  0.0410 -0.4376
  136MOL    H1927289   0.479   5.775   2.296 -0.8416  1.8265  0.5810
  136MOL    H2027290   0.351   5.610   2.168 -1.4691 -0.9718  0.0446
  136MOL    H2127291   0.245   5.563   2.285 -0.1250  0.0942  0.7201
  136MOL    C2227292   0.198   5.768   2.194  0.2361 -0.4642 -0.5111
  136MOL    C2327293   0.081   5.706   2.124 -0.1500  0.2932 -0.0730
  136MOL   Cl2427294   8.359   5.761   2.203  0.2457 -0.8607  0.1497
  136MOL    C2527295   0.086   5.634   2.011  0.1318  0.5434  0.5862
  136MOL    C2627296   8.383   5.599   1.929 -1.1382 -0.3403 -0.2761
  136MOL    H2727297   0.160   5.829   2.277  0.5771 -1.7542  0.6055
  136MOL    H2827298   0.243   5.838   2.123  1.1130  0.4624  0.9323
  136MOL    H2927299   0.173   5.599   1.957 -0.3262 -2.1998  1.5516
  136MOL    H3027300   8.386   5.492   1.909 -1.9924 -0.7200  1.5783
  136MOL    H3127301   8.291   5.617   1.985 -1.0656  0.4402 -0.3987
  136MOL    C3227302   8.380   5.665   1.787 -0.1928 -0.2525 -1.0981
  136MOL    C3327303   8.266   5.631   1.701 -0.2498  0.1945  0.3417
  136MOL   Cl3427304   8.254   5.737   1.564 -0.2471  0.3521 -0.1850
  136MOL    C3527305   8.183   5.528   1.718 -0.2544  0.0262  0.4973
  136MOL    C3627306   8.070   5.489   1.630 -0.2402  0.2499  0.2989
  136MOL    H3727307   8.365   5.772   1.803 -0.1768 -0.7295  2.7237
  136MOL    H3827308   0.051   5.641   1.735  0.1207 -1.6335  0.0454
  136MOL    H3927309   8.196   5.462   1.802  1.6233 -0.9787 -0.5287
  136MOL    H4027310   7.976   5.488   1.686 -0.1550  1.1579  0.4765
  136MOL    H4127311   8.055   5.577   1.568  0.2881  0.0834 -0.0674
  136MOL    C4227312   8.086   5.359   1.552  0.0817  0.2175 -0.0404
  136MOL    C4327313   7.994   5.348   1.433  0.1505  0.4168  0.0229
  136MOL   Cl4427314   7.868   5.226   1.452 -0.3527 -0.1063  0.2211
  136MOL    C4527315   8.014   5.406   1.312 -0.1372  0.1207  0.1700
  136MOL    C4627316   8.136   5.486   1.273 -0.3605 -0.1482 -0.0298
  136MOL    H4727317   8.191   5.346   1.525  0.0204 -0.8353  0.1730
  136MOL    H4827318   8.069   5.287   1.633 -1.0146  1.7830  1.1486
  136MOL    H4927319   7.946   5.383   1.231 -0.1954  0.7711  0.0327
  136MOL    H5027320   8.116   5.592   1.286 -0.2272 -0.1944  0.5999
  136MOL    H5127321   8.210   5.454   1.347  1.4071  1.2467 -1.1385
  136MOL    C5227322   8.181   5.460   1.128  0.5782  0.0630  0.2666
  136MOL    C5327323   8.224   5.316   1.098  0.7322 -0.1795  0.0038
  136MOL   Cl5427324   8.142   5.233   0.970  0.4188 -0.2543 -0.3257
  136MOL    C5527325   8.311   5.256   1.178  0.0612  0.0853 -0.5602
  136MOL    C5627326   8.353   5.110   1.167  0.9240  0.0942 -0.0265
  136MOL    H5727327   8.101   5.493   1.061  1.3249  1.4238  0.0386
  136MOL    H5827328   8.268   5.522   1.109 -0.0876  1.0658  0.4574
  136MOL    H5927329   8.349   5.309   1.264  2.0892 -1.1608 -0.6517
  136MOL    H6027330   8.320   5.056   1.078  0.4291 -0.5667  0.5501
  136MOL    H6127331   0.041   5.106   1.172  0.7861 -1.0690  3.9329
  136MOL    C6227332   8.315   5.033   1.297 -0.0152  0.2279 -0.6489
  136MOL    C6327333   8.372   4.892   1.321  0.1300  0.2081 -0.5087
  136MOL   Cl6427334   0.066   4.900   1.449 -0.6734  0.1415  0.2636
  136MOL    C6527335   8.331   4.772   1.269  0.5800  0.4736 -0.3686
  136MOL    C6627336   8.377   4.633   1.308 -0.0259 -0.1675  0.4841
  136MOL    H6727337   8.347   5.093   1.382 -2.8868  0.3115  0.4232
  136MOL    H6827338   8.208   5.050   1.304  0.2670  2.6470 -1.6157
  136MOL    H6927339   8.249   4.778   1.199 -0.9634 -1.1213  1.2466
  136MOL    H7027340   8.411   4.629   1.412  1.7694  0.1358 -0.0942
  136MOL    H7127341   0.043   4.626   1.244 -1.8052 -1.1492 -1.9119
  136MOL    C7227342   8.291   4.506   1.265  0.6010 -0.3455 -0.6485
  136MOL    C7327343   8.350   4.372   1.310 -0.2164 -0.8179  0.0767
  136MOL   Cl7427344   8.237   4.248   1.297  0.3790  0.5351 -0.3756
  136MOL    C7527345   0.051   4.350   1.354 -0.0568 -0.5028  0.0662
  136MOL    C7627346   0.105   4.226   1.414 -0.1146  0.0903  0.0988
  136MOL    H7727347   8.275   4.508   1.157  0.1471 -1.0641 -0.6007
  136MOL    H7827348   8.198   4.520   1.320  2.0648 -1.4664  2.1975
  136MOL    H7927349   0.110   4.440   1.349  0.5930 -0.7578  2.6504
  136MOL    H8027350   0.015   4.189   1.464  0.5998 -0.3414  1.0830
  136MOL    H8127351   0.179   4.245   1.491 -1.3525  1.2948  1.0148
  136MOL    C8227352   0.162   4.128   1.310  0.1636  0.5189  0.6714
  136MOL    C8327353   0.253   4.021   1.374  0.1120  0.1839  0.5677
  136MOL   Cl8427354   0.214   3.957   1.534 -0.0407  0.0994  0.1457
  136MOL    C8527355   0.361   3.973   1.309  0.3573 -1.0443 -0.3633
  136MOL    C8627356   0.468   3.879   1.353  0.4914  1.0633  0.0708
  136MOL    H8727357   0.218   4.190   1.240  0.6052 -2.3434 -1.5739
  136MOL    H8827358   0.084   4.099   1.240  0.5850  0.8867  0.0443
  136MOL    H8927359   0.374   4.019   1.212  1.4185  1.7016  1.0365
  136MOL    H9027360   0.476   3.865   1.461 -1.7883  0.9594  0.2413
  136MOL    H9127361   0.433   3.787   1.306  1.7216  0.5118  0.2093
  136MOL    C9227362   0.602   3.925   1.301 -0.2563 -0.6875 -0.5384
  136MOL    C9327363   0.715   3.833   1.349  0.4418 -0.6648 -0.1818
  136MOL   Cl9427364   0.749   3.708   1.237 -0.0095  0.3365 -0.1571
  136MOL    C9527365   0.781   3.833   1.467 -0.8406  0.2107  0.6820
  136MOL    C9627366   0.752   3.930   1.586  0.1420 -0.6443  0.3187
  136MOL    H9727367   0.621   4.017   1.357  0.2763 -1.1966  0.1353
  136MOL    H9827368   0.596   3.946   1.194 -0.3148  1.8238 -0.0748
  136MOL    H9927369   0.869   3.770   1.476 -0.9136 -0.0871 -0.6138
  136MOL   H10027370   0.659   3.985   1.573  1.0135  1.6153  3.0875
  136MOL   H10127371   0.724   3.878   1.678 -1.7217  1.9859  1.2870
  136MOL   C10227372   0.868   4.025   1.609 -0.4492  0.4152 -0.2069
  136MOL   C10327373   0.821   4.160   1.672  0.0535  0.4971  0.1651
  136MOL  Cl10427374   0.810   4.121   1.836  0.0383  0.2684 -0.2674
  136MOL   C10527375   0.781   4.274   1.614 -0.0160  0.1652  0.3489
  136MOL   C10627376   0.720   4.393   1.681  0.4169 -0.5125  0.9488
  136MOL   H10727377   0.942   3.980   1.676 -0.8761  0.6265  0.4109
  136MOL   H10827378   0.911   4.058   1.514 -0.7593 -0.0985 -0.5256
  136MOL   H10927379   0.799   4.293   1.509  2.5725 -0.9424  0.5450
  136MOL   H11027380   0.738   4.379   1.788 -2.1466 -1.0519  1.3281
  136MOL   H11127381   0.773   4.480   1.642  0.8179 -1.0604  0.2372
  136MOL   C11227382   0.560   4.407   1.669  0.0725 -0.8940 -0.3464
  136MOL   C11327383   0.490   4.276   1.636  0.5343  0.0824 -0.2595
  136MOL  Cl11427384   0.471   4.259   1.466  0.1799 -0.0183  0.2453
  136MOL   C11527385   0.452   4.182   1.721 -1.0420  0.2373 -0.6997
  136MOL   C11627386   0.471   4.182   1.876  0.1726 -0.2339  0.3076
  136MOL   H11727387   0.516   4.449   1.760  1.9937 -1.3614  0.8413
  136MOL   H11827388   0.543   4.476   1.586 -2.0420 -1.4207 -0.3625
  136MOL   H11927389   0.399   4.097   1.680 -0.8649 -0.9628  1.4884
  136MOL   H12027390   0.511   4.280   1.905  1.7532 -0.7185 -0.1708
  136MOL   H12127391   0.537   4.102   1.908 -1.4057 -2.2550 -1.3590
  136MOL   C12227392   0.337   4.173   1.948  1.0353  0.1834 -0.1202
  136MOL   C12327393   0.350   4.151   2.097  0.1432 -0.1364 -0.5480
  136MOL  Cl12427394   0.334   4.286   2.199  0.1065 -0.1142 -0.0979
  136MOL   C12527395   0.385   4.034   2.155 -0.1491 -0.4935  0.2237
  136MOL   C12627396   0.406   3.899   2.087 -0.5131 -0.2733  0.3072
  136MOL   H12727397   0.302   4.275   1.927  0.3795 -0.1179 -0.5012
  136MOL   H12827398   0.257   4.112   1.908  0.6087  0.6399  0.0315
  136MOL   H12927399   0.405   4.028   2.261 -1.9262  1.2645  0.6891
  136MOL   H13027400   0.329   3.829   2.118  0.3156 -2.8769 -3.2763
  136MOL   H13127401   0.388   3.921   1.982 -2.2125  1.3397  0.8946
  136MOL   C13227402   0.536   3.830   2.122 -1.1160 -0.5303 -0.2160
  136MOL   C13327403   0.580   3.725   2.020  0.0743 -0.4550 -0.2917
  136MOL  Cl13427404   0.710   3.777   1.930 -0.3432  0.1875  0.6364
  136MOL   C13527405   0.515   3.604   1.994 -0.3564  0.3080  0.0108
  136MOL   C13627406   0.397   3.536   2.064 -0.5645  0.5081 -0.4372
  136MOL   H13727407   0.613   3.906   2.137 -1.2036 -0.5969  0.5856
  136MOL   H13827408   0.538   3.780   2.219  1.3210  0.5702  0.3360
  136MOL   H13927409   0.558   3.547   1.912  0.2015 -0.7355  1.0084
  136MOL   H14027410   0.420   3.444   2.120  1.5321 -0.2938 -2.5319
  136MOL   H14127411   0.372   3.604   2.145  1.2032 -0.4510  0.9490
  136MOL   C14227412   0.282   3.511   1.972  0.0860 -0.9189  0.0480
  136MOL   C14327413   0.164   3.428   2.023 -0.9728 -0.5787  0.6910
  136MOL  Cl14427414   0.156   3.274   1.940 -0.2264  0.3335  0.0808
  136MOL   C14527415   0.072   3.465   2.122 -0.2438  0.0367 -0.7716
  136MOL   C14627416   8.387   3.381   2.176  0.0966  0.0902  0.0482
  136MOL   H14727417   0.320   3.454   1.887 -0.8209  0.4411 -1.2937
  136MOL   H14827418   0.252   3.609   1.935  0.2382 -1.1942 -0.8167
  136MOL   H14927419   0.078   3.565   2.163  0.5681  0.1986 -1.2637
  136MOL   H15027420   8.387   3.279   2.137  1.6515  1.2983 -3.2765
  136MOL   H15127421   8.411   3.366   2.282  0.0344 -0.2974  0.0064
  136MOL   C15227422   8.248   3.457   2.164 -0.4368  0.3524  0.0715
  136MOL   C15327423   8.137   3.376   2.233  0.4412 -0.0991 -0.4241
  136MOL  Cl15427424   7.981   3.391   2.146  0.0870  0.4417  0.1209
  136MOL   C15527425   8.155   3.317   2.354 -0.5710 -0.3708  0.4461
  136MOL   C15627426   8.046   3.256   2.436 -0.2984  0.6324  0.2881
  136MOL   H15727427   8.263   3.554   2.213  3.4447 -1.2321  2.3099
  136MOL   H15827428   8.233   3.483   2.059 -0.8293 -0.3710 -0.0511
  136MOL   H15927429   8.255   3.321   2.393  0.4904  0.2938 -2.2130
  136MOL   H16027430   8.066   3.150   2.419  2.0870  1.0318  0.3633
  136MOL   H16127431   7.951   3.280   2.389  0.3380  1.0401 -0.8033
  136MOL   C16227432   8.064   3.293   2.590  0.2069  0.0845 -0.3927
  136MOL   C16327433   7.969   3.222   2.683 -0.6725  0.4043  0.4468
  136MOL  Cl16427434   7.982   3.050   2.697 -0.0932 -0.2550  0.1357
  136MOL   C16527435   7.879   3.282   2.759 -0.4327 -0.7572  0.0741
  136MOL   C16627436   7.764   3.227   2.840  0.4378 -0.2289  1.0294
  136MOL   H16727437   8.168   3.263   2.606 -0.0610  0.9141  3.2495
  136MOL   H16827438   8.055   3.398   2.616 -1.5110 -0.6664  2.2212
  136MOL   H16927439   7.871   3.390   2.761 -1.7042 -0.7479 -2.7942
  136MOL   H17027440   7.771   3.119   2.828  0.7831 -0.2167  1.1101
  136MOL   H17127441   7.767   3.263   2.943 -4.2992 -0.4921  1.3520
  136MOL   C17227442   7.627   3.266   2.777  0.1826 -0.3715 -0.3638
  136MOL   C17327443   7.503   3.179   2.810  0.1547 -0.2930 -1.3111
  136MOL  Cl17427444   7.409   3.138   2.675  0.4025 -0.3860  0.0295
  136MOL   C17527445   7.485   3.125   2.935  1.0280 -0.5000 -0.0176
  136MOL   C17627446   7.374   3.029   2.976  0.6008 -0.1114  0.6977
  136MOL   H17727447   7.629   3.270   2.668  1.1817  0.1928 -0.3266
  136MOL   H17827448   7.616   3.372   2.800 -3.3842 -0.7849  0.2197
  136MOL   H17927449   7.559   3.149   3.010  1.1852 -0.3919 -0.2075
  136MOL   H18027450   7.306   3.014   2.892  0.2712  1.9487  0.5593
  136MOL   H18127451   7.319   3.053   3.066  0.8425  2.5018  0.2027
  136MOL   C18227452   7.417   2.886   3.001  0.1027 -0.2920 -0.2648
  136MOL   C18327453   7.314   2.776   2.974  0.3863 -0.5946  0.0032
  136MOL  Cl18427454   7.168   2.815   3.057  0.3519 -0.1879  0.0008
  136MOL   C18527455   7.339   2.675   2.889  0.0988 -0.3019  0.1346
  136MOL   C18627456   7.232   2.569   2.853 -0.0584 -0.2462  0.2129
  136MOL   H18727457   7.501   2.866   2.934  0.9614  0.2901  0.6374
  136MOL   H18827458   7.442   2.872   3.106  1.0942  1.3225 -0.2558
  136MOL   H18927459   7.439   2.662   2.850 -0.9743 -2.2312 -2.1039
  136MOL   H19027460   7.241   2.480   2.916  1.3137 -0.8630 -0.8132
  136MOL   H19127461   7.135   2.612   2.877 -0.1853 -0.0147 -0.7059
  136MOL   C19227462   7.223   2.550   2.699  0.4665  0.6223  0.0609
  136MOL   C19327463   7.143   2.425   2.670  0.4305 -0.0660  0.1077
  136MOL  Cl19427464   6.983   2.470   2.646  0.1512 -0.2138  0.0419
  136MOL   C19527465   7.170   2.294   2.682  0.0743 -0.4513  0.5118
  136MOL   C19627466   7.296   2.224   2.733  0.2732 -0.7938 -0.0118
  136MOL   H19727467   7.324   2.542   2.658  0.6707  0.7857  0.5260
  136MOL   H19827468   7.177   2.636   2.652 -1.5264 -0.1148  0.5979
  136MOL   H19927469   7.092   2.224   2.659 -0.1638 -0.8300  2.3863
  136MOL   H20027470   7.346   2.153   2.667 -0.2131  0.9073 -2.2758
  136MOL   H20127471   7.264   2.183   2.829 -0.6018  0.0532  0.0669
  136MOL   H20227472   7.368   2.300   2.766 -0.8951 -0.6720  2.3432
  137MOL     C127473   2.470   7.173   4.480 -0.8419 -0.3672 -0.9347
  137MOL     C227474   2.342   7.252   4.505 -0.0677  0.4220 -0.2185
  137MOL    Cl327475   2.213   7.193   4.404  0.3202  0.0693  0.0992
  137MOL     C427476   2.320   7.340   4.602  0.3383  0.9802 -0.4226
  137MOL     C527477   2.426   7.372   4.702 -0.1241  0.5334 -0.2186
  137MOL     H627478   2.508   7.118   4.566 -0.2376 -0.8230 -1.4826
  137MOL     H727479   2.545   7.251   4.468  0.6229 -1.6502 -0.3156
  137MOL     H827480   2.225   7.390   4.606  0.5711  1.3439  0.8885
  137MOL     H927481   2.460   7.282   4.754  0.7308  0.8081 -0.2970
  137MOL    H1027482   2.518   7.408   4.657 -0.8516  1.1416 -1.2521
  137MOL    H1127483   2.460   7.114   4.389  1.8059  0.1152 -1.5850
  137MOL    C1227484   2.379   7.477   4.803  0.0460 -0.2978 -0.6832
  137MOL    C1327485   2.476   7.488   4.920  0.4953 -0.2759  0.2415
  137MOL   Cl1427486   2.422   7.400   5.055 -0.2129 -0.3029  0.1758
  137MOL    C1527487   2.592   7.553   4.928  0.0667 -0.0823  0.0118
  137MOL    C1627488   2.660   7.635   4.813  0.3691  0.2612 -0.4750
  137MOL    H1727489   2.371   7.576   4.757  0.3586  0.4327  0.8151
  137MOL    H1827490   2.277   7.451   4.831  0.3509 -1.0589 -0.2871
  137MOL    H1927491   2.638   7.550   5.026 -1.5759 -3.9592  0.7746
  137MOL    H2027492   2.762   7.596   4.813  1.8407  3.9367 -1.9082
  137MOL    H2127493   2.600   7.618   4.724 -2.1787 -0.6141  1.3716
  137MOL    C2227494   2.669   7.793   4.849  0.4048  0.1939  0.4619
  137MOL    C2327495   2.689   7.892   4.730 -0.0004  0.5162 -0.2637
  137MOL   Cl2427496   2.551   7.900   4.622  0.0872 -0.1406 -0.0174
  137MOL    C2527497   2.803   7.956   4.700 -0.0898  0.0460  0.1875
  137MOL    C2627498   2.822   8.050   4.578  0.1940 -0.0621  0.6807
  137MOL    H2727499   2.576   7.817   4.901  1.3645  1.7402  1.5088
  137MOL    H2827500   2.738   7.813   4.931  0.8741 -0.5409  0.2478
  137MOL    H2927501   2.886   7.936   4.765 -0.4316 -1.5783  0.1443
  137MOL    H3027502   2.728   8.083   4.535 -0.4079 -1.2806  1.0356
  137MOL    H3127503   2.864   8.134   4.633 -1.5384  0.4569  1.2437
  137MOL    C3227504   2.935   7.998   4.485 -0.1160  0.2308 -0.3681
  137MOL    C3327505   2.941   8.079   4.360  0.3072  0.4352  0.1279
  137MOL   Cl3427506   3.011   8.230   4.387  0.3303  0.0957  0.3996
  137MOL    C3527507   2.911   8.041   4.233  0.3112  0.0070 -0.0972
  137MOL    C3627508   2.913   8.128   4.110  1.3901 -0.0793 -0.8879
  137MOL    H3727509   3.029   7.988   4.539 -0.3899 -1.4819 -0.1736
  137MOL    H3827510   2.897   7.900   4.457  1.5398 -1.3700  2.7062
  137MOL    H3927511   2.887   7.938   4.210 -0.9132  0.1863  0.3830
  137MOL    H4027512   3.016   8.148   4.082  2.0600  0.9039  2.1596
  137MOL    H4127513   2.876   8.073   4.023 -0.9440 -1.3197  0.8406
  137MOL    C4227514   2.842   8.264   4.113  0.3815  0.2459  0.3877
  137MOL    C4327515   2.834   8.335   3.978 -0.0655  0.3999 -0.5827
  137MOL   Cl4427516   2.682   8.326   3.909  0.1294  0.1158 -0.4411
  137MOL    C4527517   2.922   8.420   3.926 -0.2296 -0.1466 -0.3053
  137MOL    C4627518   3.062   0.005   3.973  0.3072  0.0712 -0.8447
  137MOL    H4727519   2.744   8.245   4.158  0.5339  2.0988  1.5486
  137MOL    H4827520   2.897   8.328   4.182 -1.6651  1.6462  0.7935
  137MOL    H4927521   2.895   0.059   3.840  0.8668 -1.4601 -1.5763
  137MOL    H5027522   3.094   8.349   4.043 -0.2247 -2.1009 -2.8885
  137MOL    H5127523   3.126   8.405   3.887  0.6870 -1.7787 -0.1586
  137MOL    C5227524   3.098   0.141   4.028  0.8162 -0.2586 -0.3359
  137MOL    C5327525   3.240   0.153   4.077 -0.1377 -0.4072 -0.3076
  137MOL   Cl5427526   3.339   0.257   3.983 -0.0007 -0.0197 -0.1504
  137MOL    C5527527   3.284   0.098   4.190 -0.1417  0.2199  0.1701
  137MOL    C5627528   3.429   0.105   4.240  0.5711  0.3447  0.4260
  137MOL    H5727529   3.083   0.217   3.952  1.0301  0.9240  0.7788
  137MOL    H5827530   3.036   0.169   4.113  0.7377 -0.6448 -0.2650
  137MOL    H5927531   3.217   0.038   4.250 -1.2110  0.0883 -1.1343
  137MOL    H6027532   3.484   0.016   4.210  1.4207  1.6725 -2.0822
  137MOL    H6127533   3.483   0.179   4.181 -1.3209 -0.0672 -1.8890
  137MOL    C6227534   3.446   0.124   4.393 -0.4967 -0.2569  0.1802
  137MOL    C6327535   3.590   0.135   4.441 -0.1248  0.2142  0.1527
  137MOL   Cl6427536   3.626   0.035   4.584  0.2444 -0.3745 -0.0466
  137MOL    C6527537   3.684   0.207   4.377 -0.1438 -0.0743 -0.0649
  137MOL    C6627538   3.833   0.206   4.409 -0.0552 -0.8962 -0.3700
  137MOL    H6727539   3.400   0.220   4.419  1.6394  1.1743 -1.1224
  137MOL    H6827540   3.400   0.047   4.455 -2.7835 -0.6619 -1.9492
  137MOL    H6927541   3.657   0.261   4.287 -1.8851  0.7000  0.8895
  137MOL    H7027542   3.880   0.123   4.462  1.2067 -0.4234 -0.7418
  137MOL    H7127543   3.832   0.293   4.475 -1.1365 -1.0483 -0.1721
  137MOL    C7227544   3.930   0.233   4.298 -0.0168 -0.4225 -0.3389
  137MOL    C7327545   4.073   0.242   4.356 -0.0765 -0.8199 -0.0398
  137MOL   Cl7427546   4.099   0.361   4.485 -0.1555 -0.0648  0.6790
  137MOL    C7527547   4.164   0.155   4.331  0.4938  0.1367 -0.4302
  137MOL    C7627548   4.293   0.133   4.411 -0.3433 -0.0477  0.0767
  137MOL    H7727549   3.901   0.324   4.245 -0.7115 -1.1567 -1.2379
  137MOL    H7827550   3.935   0.154   4.223  0.9675 -1.7332  1.0909
  137MOL    H7927551   4.144   0.092   4.246 -1.3612 -1.5351  1.1940
  137MOL    H8027552   4.318   0.216   4.476 -0.0643  1.2378 -1.6478
  137MOL    H8127553   4.374   0.148   4.340 -0.7469 -2.1802 -0.8819
  137MOL    C8227554   4.297   8.419   4.480 -0.4870  0.0657 -0.5123
  137MOL    C8327555   4.435   8.372   4.526 -0.3125  0.2468  0.3541
  137MOL   Cl8427556   4.529   8.329   4.386  0.4304 -0.2849  0.8148
  137MOL    C8527557   4.478   8.370   4.653 -0.6581  0.5234  0.3610
  137MOL    C8627558   4.618   8.332   4.693 -0.4489 -0.9255  0.2149
  137MOL    H8727559   4.240   8.347   4.421  0.8315 -1.1915 -0.2669
  137MOL    H8827560   4.235   0.012   4.569  0.9942  3.5954  0.0635
  137MOL    H8927561   4.416   8.412   4.731 -0.9775  1.0939 -0.1938
  137MOL    H9027562   4.608   8.275   4.785  1.1167  1.2978  1.8293
  137MOL    H9127563   4.662   8.265   4.619  1.9320  0.3475  0.4469
  137MOL    C9227564   4.701   0.035   4.718  0.6846  0.7527 -0.2852
  137MOL    C9327565   4.752   0.095   4.584 -0.4954 -0.6374 -0.3512
  137MOL   Cl9427566   4.650   0.224   4.528 -0.4169 -0.1026  0.4539
  137MOL    C9527567   4.866   0.069   4.519 -0.4104  0.1539 -0.3951
  137MOL    C9627568   4.977   8.390   4.548  0.5616 -0.0635  0.4478
  137MOL    H9727569   4.787   0.003   4.777 -0.2286 -0.4522  0.4009
  137MOL    H9827570   4.661   0.100   4.795  1.8302 -0.4339  1.3247
  137MOL    H9927571   4.889   0.117   4.425  2.1265 -2.8771 -1.4255
  137MOL   H10027572   5.068   0.028   4.534  1.2948 -0.9266  1.5263
  137MOL   H10127573   4.958   8.372   4.653 -2.1913  2.3581  0.4403
  137MOL   C10227574   4.997   8.267   4.460  0.4056  0.1401  0.0510
  137MOL   C10327575   5.103   8.172   4.512  0.1234 -0.1439  0.3749
  137MOL  Cl10427576   5.245   8.197   4.417 -0.1491  0.2664  0.0186
  137MOL   C10527577   5.084   8.087   4.610 -0.0416  0.3712 -1.1261
  137MOL   C10627578   5.188   7.985   4.663 -0.6789 -0.1731  0.1701
  137MOL   H10727579   4.899   8.221   4.453 -0.1638  1.2100  0.8802
  137MOL   H10827580   5.015   8.301   4.358  3.0929  0.2436  0.5141
  137MOL   H10927581   4.993   8.092   4.668  0.7241  0.4804  0.1006
  137MOL   H11027582   5.286   8.007   4.621 -0.2235 -0.4907  1.0673
  137MOL   H11127583   5.198   8.001   4.770  0.6813 -0.4230  0.0898
  137MOL   C11227584   5.137   7.842   4.641  0.1040  0.1456  0.6462
  137MOL   C11327585   5.245   7.743   4.666  0.1430 -0.2115  0.2036
  137MOL  Cl11427586   5.258   7.696   4.834 -0.5898  0.0574  0.4309
  137MOL   C11527587   5.330   7.687   4.575 -0.0709 -0.8036 -0.0634
  137MOL   C11627588   5.334   7.712   4.426  0.8647 -0.0180 -0.6016
  137MOL   H11727589   5.062   7.831   4.720  0.8701 -0.4139  1.3110
  137MOL   H11827590   5.095   7.835   4.541  3.0206 -1.7172 -0.5113
  137MOL   H11927591   5.398   7.617   4.620 -0.7952 -1.8075 -0.5016
  137MOL   H12027592   5.268   7.797   4.409  2.5549  1.4242 -0.0937
  137MOL   H12127593   5.292   7.629   4.368 -1.1951  0.8446 -0.3871
  137MOL   C12227594   5.475   7.744   4.375 -0.1310 -0.4197 -0.0364
  137MOL   C12327595   5.475   7.793   4.230  0.3595 -0.2694 -0.0958
  137MOL  Cl12427596   5.505   7.967   4.217 -0.1232 -0.0117 -0.2045
  137MOL   C12527597   5.447   7.723   4.124 -0.4365 -0.3401  0.7671
  137MOL   C12627598   5.400   7.576   4.113 -0.1401 -1.0921  0.1682
  137MOL   H12727599   5.520   7.817   4.442 -1.2899  1.0485 -0.8458
  137MOL   H12827600   5.536   7.653   4.378  1.1978  0.4345 -0.8036
  137MOL   H12927601   5.450   7.775   4.030 -0.4699  1.5845  1.8096
  137MOL   H13027602   5.468   7.536   4.037  1.4131  1.0042  0.3923
  137MOL   H13127603   5.426   7.521   4.203  2.3899 -1.2036 -0.5975
  137MOL   C13227604   5.250   7.573   4.076 -0.0396 -0.9947  0.2684
  137MOL   C13327605   5.200   7.428   4.072 -0.1026 -0.3597  0.5961
  137MOL  Cl13427606   5.116   7.370   4.211  0.1129  0.3559 -0.0120
  137MOL   C13527607   5.203   7.351   3.967 -0.4797  0.5732 -0.4000
  137MOL   C13627608   5.263   7.389   3.829 -0.6869 -0.8621  0.6409
  137MOL   H13727609   5.184   7.635   4.136 -1.0478  0.1634 -1.9637
  137MOL   H13827610   5.232   7.627   3.983 -0.2264 -1.4966  0.0130
  137MOL   H13927611   5.173   7.248   3.966  0.6184  0.2336  0.9622
  137MOL   H14027612   5.183   7.379   3.755  0.8966 -0.3410 -1.2026
  137MOL   H14127613   5.279   7.496   3.819 -2.3535 -0.6543 -0.0331
  137MOL   C14227614   5.403   7.327   3.804 -0.6469  0.1521 -0.4439
  137MOL   C14327615   5.476   7.394   3.686  0.4979  0.4626 -0.5024
  137MOL  Cl14427616   5.454   7.294   3.541  0.0951  0.1143 -0.4562
  137MOL   C14527617   5.540   7.508   3.678 -0.1451  0.2328  0.3400
  137MOL   C14627618   5.613   7.563   3.551  0.4425  0.6185 -0.1609
  137MOL   H14727619   5.394   7.219   3.805 -0.3667  0.1362  0.8553
  137MOL   H14827620   5.461   7.344   3.894  0.0824 -0.4921 -0.7925
  137MOL   H14927621   5.544   7.582   3.757 -1.8856 -0.5280  1.1633
  137MOL   H15027622   5.608   7.500   3.462 -1.9018  3.5794 -2.2123
  137MOL   H15127623   5.547   7.644   3.519 -1.3139  0.5353  3.0935
  137MOL   C15227624   5.744   7.641   3.584 -0.3327 -0.6504  0.1843
  137MOL   C15327625   5.797   7.734   3.486  0.6104 -0.0338  0.0482
  137MOL  Cl15427626   5.891   7.651   3.368 -0.3836  0.1740 -0.7010
  137MOL   C15527627   5.769   7.867   3.487 -0.4382 -0.4466  0.2336
  137MOL   C15627628   5.801   7.972   3.378 -0.6754 -0.3972  0.0603
  137MOL   H15727629   5.715   7.695   3.674  0.4556  1.0450 -0.5654
  137MOL   H15827630   5.826   7.575   3.613  0.4991  0.3524  0.1346
  137MOL   H15927631   5.707   7.915   3.561 -2.9169 -2.7700 -0.2311
  137MOL   H16027632   5.709   8.004   3.328  0.2392  2.5192  0.1532
  137MOL   H16127633   5.859   7.925   3.299 -0.5728 -0.5936  0.2547
  137MOL   C16227634   5.876   8.097   3.439  0.1716  0.3989 -0.5403
  137MOL   C16327635   6.021   8.056   3.480  0.4264  0.1622 -0.2647
  137MOL  Cl16427636   6.018   7.984   3.636  0.2046 -0.3241  0.1744
  137MOL   C16527637   6.131   8.076   3.406  0.1542  0.4897 -0.8213
  137MOL   C16627638   6.275   8.037   3.456  0.8466  0.1643 -0.2822
  137MOL   H16727639   5.883   8.182   3.371  1.0476 -0.7682 -1.9612
  137MOL   H16827640   5.825   8.121   3.532  0.0330 -3.1601  0.3837
  137MOL   H16927641   6.107   8.120   3.311  0.1656  1.8736 -0.1890
  137MOL   H17027642   6.297   8.096   3.545  0.1270 -2.4022  1.6982
  137MOL   H17127643   6.286   7.935   3.495  0.7489  0.1404 -0.3178
  137MOL   C17227644   6.377   8.061   3.344 -0.0076 -0.3006 -0.3358
  137MOL   C17327645   6.521   8.103   3.388 -0.0769 -0.1356 -0.3966
  137MOL  Cl17427646   6.635   8.016   3.295 -0.2627 -0.1702  0.1945
  137MOL   C17527647   6.543   8.181   3.498  0.3426 -0.3330 -0.1841
  137MOL   C17627648   6.670   8.241   3.554  0.2460 -0.3301 -0.1902
  137MOL   H17727649   6.344   8.148   3.287  1.8483  0.1060 -0.8216
  137MOL   H17827650   6.394   7.982   3.272  1.2647  0.8546 -1.3242
  137MOL   H17927651   6.462   8.218   3.558  1.0763 -1.5938  1.6348
  137MOL   H18027652   6.676   8.346   3.525  0.1213 -0.6180 -1.2607
  137MOL   H18127653   6.757   8.205   3.500 -0.6975 -0.9565 -1.3119
  137MOL   C18227654   6.703   8.212   3.695 -0.3261 -0.0675  0.0374
  137MOL   C18327655   6.811   8.308   3.748 -0.0770  0.6505 -0.2618
  137MOL  Cl18427656   6.750   8.393   3.880  0.0664 -0.5020 -0.3139
  137MOL   C18527657   6.932   8.329   3.693 -0.2058  0.4216 -0.0609
  137MOL   C18627658   7.033   0.003   3.738 -0.7052  0.4393 -0.1312
  137MOL   H18727659   6.609   8.225   3.749 -1.1375 -1.6518 -0.9607
  137MOL   H18827660   6.731   8.109   3.715 -4.3532 -1.0448  1.0640
  137MOL   H18927661   6.956   8.271   3.605  0.4331 -1.6311  1.4308
  137MOL   H19027662   7.040   0.072   3.655  0.5775  0.5978  0.0938
  137MOL   H19127663   7.010   0.053   3.832 -0.5637 -0.1245  0.2057
  137MOL   C19227664   7.169   8.357   3.757 -0.0095  0.5144 -0.6501
  137MOL   C19327665   7.276   0.044   3.750 -0.8810 -0.3065 -0.2469
  137MOL  Cl19427666   7.363   0.052   3.600 -0.6110  0.0908  0.0410
  137MOL   C19527667   7.321   0.106   3.861 -0.0570  0.3326  0.2853
  137MOL   C19627668   7.275   0.106   4.005 -0.8823 -0.3400 -0.2086
  137MOL   H19727669   7.181   8.277   3.684 -1.0212  0.9492 -1.3014
  137MOL   H19827670   7.175   8.302   3.851 -2.6450 -1.5484 -1.6234
  137MOL   H19927671   7.408   0.170   3.854  0.0638  0.1300 -0.1073
  137MOL   H20027672   7.363   0.093   4.069 -0.3762  2.9392 -0.1721
  137MOL   H20127673   7.196   0.037   4.036 -0.2402 -0.7868  0.4464
  137MOL   H20227674   7.245   0.207   4.033  0.1488 -0.5678  1.8595
  138MOL     C127675   3.299   6.316   6.348 -0.4203  0.3900  0.5148
  138MOL     C227676   3.328   6.190   6.280 -0.7301  0.9702 -0.1334
  138MOL    Cl327677   3.484   6.127   6.330 -0.1947  0.1403 -0.0819
  138MOL     C427678   3.248   6.122   6.196 -0.0756  0.7822 -0.0131
  138MOL     C527679   3.114   6.169   6.139 -0.2434 -0.0660  0.1630
  138MOL     H627680   3.387   6.374   6.377  0.4701 -0.0275 -1.2663
  138MOL     H727681   3.222   6.302   6.424 -0.1023  0.0667  0.7805
  138MOL     H827682   3.290   6.027   6.169  1.9365  1.3226  1.1335
  138MOL     H927683   3.071   6.254   6.192  1.7493  1.6113 -0.8121
  138MOL    H1027684   3.136   6.199   6.036  3.0910 -0.7837  0.6066
  138MOL    H1127685   3.247   6.385   6.282 -0.3897  0.7306  0.8478
  138MOL    C1227686   3.014   6.061   6.132 -0.3340  0.0168  0.4457
  138MOL    C1327687   2.873   6.101   6.101 -0.5169 -0.7423  0.1414
  138MOL   Cl1427688   2.822   6.031   5.952  0.5082  0.1636 -0.1129
  138MOL    C1527689   2.790   6.176   6.172  0.1190  0.1960  0.7896
  138MOL    C1627690   2.804   6.231   6.314 -0.1186 -0.2922  0.6921
  138MOL    H1727691   3.054   6.000   6.051  1.0611 -0.6556  1.6185
  138MOL    H1827692   3.010   6.006   6.226  0.7192 -0.4975  0.1958
  138MOL    H1927693   2.691   6.190   6.130  0.1706 -2.1878 -0.1985
  138MOL    H2027694   2.907   6.209   6.344 -1.0446 -1.9716  2.8023
  138MOL    H2127695   2.804   6.340   6.317  2.1405 -0.2388  0.0089
  138MOL    C2227696   2.713   6.164   6.411  0.5365 -0.2739 -0.5013
  138MOL    C2327697   2.726   6.212   6.558  0.1602  0.2010 -0.2356
  138MOL   Cl2427698   2.588   6.310   6.600 -0.2440 -0.2574  0.3827
  138MOL    C2527699   2.836   6.201   6.638  0.0824  0.3896  0.5409
  138MOL    C2627700   2.850   6.269   6.774 -0.5328  1.1915 -0.2969
  138MOL    H2727701   2.609   6.181   6.384  0.7340  0.8616 -0.5739
  138MOL    H2827702   2.708   6.055   6.402 -0.3356 -0.3057  0.2597
  138MOL    H2927703   2.916   6.134   6.609 -1.2332 -1.5003  1.1633
  138MOL    H3027704   2.801   6.365   6.781  0.5592  1.7028  0.4762
  138MOL    H3127705   2.799   6.203   6.844 -1.2746  1.1114 -0.9086
  138MOL    C3227706   3.003   6.284   6.812  0.0626 -1.1827 -0.1691
  138MOL    C3327707   3.011   6.330   6.955  0.2351  0.3799 -0.5268
  138MOL   Cl3427708   2.971   6.204   7.067 -0.0906  0.1957  0.1718
  138MOL    C3527709   3.044   6.454   6.987 -0.5830 -0.7139 -0.0923
  138MOL    C3627710   3.055   6.509   7.122  0.2291  0.0258 -0.5004
  138MOL    H3727711   3.065   6.199   6.785 -0.4600 -1.1709 -1.4545
  138MOL    H3827712   3.054   6.360   6.753 -0.6960 -0.1259  0.5109
  138MOL    H3927713   3.072   6.518   6.906  0.4097 -1.2562 -0.1758
  138MOL    H4027714   3.040   6.433   7.199 -2.2421 -0.2409 -1.2010
  138MOL    H4127715   3.158   6.530   7.148  0.6501 -2.3539 -0.1276
  138MOL    C4227716   2.967   6.634   7.134  0.2204  0.5577  0.5913
  138MOL    C4327717   2.842   6.616   7.213  1.0309  0.8205 -0.4388
  138MOL   Cl4427718   2.709   6.651   7.110 -0.0001 -0.1997 -0.3229
  138MOL    C4527719   2.826   6.581   7.342  0.3075 -0.3277  0.7034
  138MOL    C4627720   2.934   6.539   7.443  0.3686 -0.0845  0.2104
  138MOL    H4727721   3.030   6.700   7.195  2.0791 -1.2244  0.6419
  138MOL    H4827722   2.938   6.699   7.052 -2.1411  1.0353  1.7598
  138MOL    H4927723   2.725   6.575   7.382 -0.0144  1.1342  0.1792
  138MOL    H5027724   2.953   6.434   7.425  2.0242 -0.0871  1.7940
  138MOL    H5127725   3.030   6.586   7.422 -0.5006  1.9353  0.6141
  138MOL    C5227726   2.896   6.554   7.600  0.1860 -0.6578 -0.5639
  138MOL    C5327727   3.019   6.561   7.685 -0.8608  0.3196 -0.0438
  138MOL   Cl5427728   3.087   6.411   7.701  0.3216 -0.0873 -0.1378
  138MOL    C5527729   3.073   6.671   7.747 -1.0035 -0.1724 -0.7339
  138MOL    C5627730   3.192   6.677   7.844 -0.3093 -0.3409 -0.1736
  138MOL    H5727731   2.840   6.647   7.617  0.1492 -0.7193 -0.3451
  138MOL    H5827732   2.840   6.478   7.654 -0.1157  0.5658  0.9191
  138MOL    H5927733   3.024   6.765   7.727 -0.4114 -0.0921 -1.8733
  138MOL    H6027734   3.155   6.684   7.946  1.8012 -0.6689  0.6378
  138MOL    H6127735   3.229   6.575   7.853 -1.3207 -0.6853  0.1964
  138MOL    C6227736   3.305   6.768   7.789 -0.1148  0.4497  0.1171
  138MOL    C6327737   3.361   6.717   7.652 -0.7756 -1.1404  0.6223
  138MOL   Cl6427738   3.300   6.816   7.524 -0.0800  0.0818  0.0978
  138MOL    C6527739   3.428   6.606   7.628 -0.7538  0.0990  0.3239
  138MOL    C6627740   3.492   6.568   7.496  0.8231  0.2493  0.0532
  138MOL    H6727741   3.276   6.873   7.786  0.2198  0.5378 -0.0504
  138MOL    H6827742   3.393   6.766   7.854  1.0194 -0.1278 -1.4180
  138MOL    H6927743   3.456   6.538   7.707  0.9666  2.0888  1.4815
  138MOL    H7027744   3.591   6.527   7.513  0.8010 -0.7023 -2.0322
  138MOL    H7127745   3.506   6.660   7.440  1.9571  0.3122  0.4423
  138MOL    C7227746   3.419   6.471   7.403  0.0573 -0.3842 -0.0607
  138MOL    C7327747   3.503   6.443   7.277  0.2039 -0.1010  0.1674
  138MOL   Cl7427748   3.493   6.576   7.174  0.2331 -0.4422  0.0119
  138MOL    C7527749   3.561   6.327   7.254 -0.6604 -0.4089  0.1637
  138MOL    C7627750   3.644   6.281   7.129 -0.0332 -0.4124 -0.5212
  138MOL    H7727751   3.331   6.523   7.366 -0.6065 -0.8378  0.8587
  138MOL    H7827752   3.399   6.380   7.459  0.1999 -1.4085 -1.6460
  138MOL    H7927753   3.567   6.252   7.331 -0.5729  1.5864  2.1671
  138MOL    H8027754   3.745   6.253   7.159 -0.2850  0.9109  1.6408
  138MOL    H8127755   3.645   6.367   7.062 -0.1922 -0.0592 -0.0690
  138MOL    C8227756   3.597   6.158   7.058 -0.5182 -0.0145 -0.5673
  138MOL    C8327757   3.685   6.112   6.942 -0.8097 -0.4710  0.4252
  138MOL   Cl8427758   3.805   6.005   6.999 -0.2183 -0.2091  0.3667
  138MOL    C8527759   3.661   6.144   6.815 -0.1074  0.3153  0.5408
  138MOL    C8627760   3.744   6.089   6.701  0.1004  0.3269  0.2584
  138MOL    H8727761   3.497   6.176   7.019 -1.5024  1.1636  2.3646
  138MOL    H8827762   3.580   6.071   7.122  2.3899  0.2622  0.6841
  138MOL    H8927763   3.576   6.207   6.793  0.3049  0.8769  0.5656
  138MOL    H9027764   3.809   6.011   6.741 -0.0737  0.0758  0.0491
  138MOL    H9127765   3.695   6.026   6.628  0.2239  0.8835 -0.3108
  138MOL    C9227766   3.840   6.189   6.633 -0.3926 -0.2953  0.0985
  138MOL    C9327767   3.947   6.116   6.554  0.3091 -0.2306 -0.0643
  138MOL   Cl9427768   4.091   6.114   6.648 -0.3547  0.0534 -0.1799
  138MOL    C9527769   3.949   6.065   6.429 -0.1723  0.3333  0.1330
  138MOL    C9627770   3.830   6.068   6.331  0.0595 -0.9656  0.5456
  138MOL    H9727771   3.885   6.260   6.703 -2.4783 -0.8054  1.9985
  138MOL    H9827772   3.781   6.243   6.558  1.2582  0.0046 -1.0129
  138MOL    H9927773   4.043   6.026   6.393 -1.0980 -1.0057 -0.8907
  138MOL   H10027774   3.803   5.963   6.325  0.2753 -1.0608  1.3143
  138MOL   H10127775   3.748   6.116   6.385  0.3898 -0.5941  0.7157
  138MOL   C10227776   3.866   6.128   6.193 -0.2612 -0.1543  0.8486
  138MOL   C10327777   3.757   6.107   6.090 -0.7850 -0.2839 -0.0812
  138MOL  Cl10427778   3.661   6.253   6.067  0.6408  0.4332 -0.2557
  138MOL   C10527779   3.755   6.003   6.010 -0.3210  1.0306 -0.8429
  138MOL   C10627780   3.657   5.980   5.897  0.1123 -0.8236 -0.4839
  138MOL   H10727781   3.893   6.234   6.203  2.3862 -0.6653 -0.5464
  138MOL   H10827782   3.953   6.076   6.154 -1.0738 -0.8453 -0.0573
  138MOL   H10927783   3.829   5.926   6.023 -1.1403  0.7270  2.4741
  138MOL   H11027784   3.578   5.909   5.920 -0.0698 -0.3196  0.4678
  138MOL   H11127785   3.606   6.074   5.875  1.1004  0.0436  0.8343
  138MOL   C11227786   3.725   5.943   5.763 -0.2412  0.3876 -0.3695
  138MOL   C11327787   3.825   5.832   5.775  0.1064  0.2669 -0.0521
  138MOL  Cl11427788   3.749   5.673   5.770  0.2629  0.4655 -0.0635
  138MOL   C11527789   3.959   5.842   5.769 -0.0061  0.0593  0.2775
  138MOL   C11627790   4.045   5.970   5.764  0.9746 -0.3302  0.1382
  138MOL   H11727791   3.656   5.905   5.688  0.6558 -1.3442 -0.3248
  138MOL   H11827792   3.771   6.025   5.709 -0.7742  1.6632  1.0427
  138MOL   H11927793   4.014   5.749   5.770 -0.4109 -0.2051 -1.0735
  138MOL   H12027794   4.120   5.948   5.839 -0.9490 -0.7999  1.9749
  138MOL   H12127795   3.992   6.055   5.806  1.4048  0.1735 -0.3257
  138MOL   C12227796   4.104   6.006   5.626 -0.4412 -0.8496 -0.5729
  138MOL   C12327797   4.203   6.129   5.626 -0.3878  0.6524  0.1816
  138MOL  Cl12427798   4.358   6.082   5.683 -0.1937  0.1256  0.0825
  138MOL   C12527799   4.179   6.257   5.582  0.1929  0.3672  0.1212
  138MOL   C12627800   4.043   6.298   5.523 -0.3589 -0.0535  0.3967
  138MOL   H12727801   4.158   5.918   5.589  2.5188  0.4375  0.5248
  138MOL   H12827802   4.016   6.029   5.566 -1.1213 -1.1331  0.3058
  138MOL   H12927803   4.254   6.334   5.581 -0.3862  0.9839  2.0700
  138MOL   H13027804   4.047   6.295   5.414  1.0325 -1.4120  0.4785
  138MOL   H13127805   3.967   6.224   5.548 -0.6751 -0.9964 -3.0703
  138MOL   C13227806   3.997   6.424   5.580 -0.2499 -0.3797 -0.7204
  138MOL   C13327807   4.053   6.548   5.510 -0.3001 -0.3402 -0.1300
  138MOL  Cl13427808   4.172   6.627   5.604  0.3215  0.0598 -0.0088
  138MOL   C13527809   4.013   6.603   5.393 -0.7698  0.4395  0.0124
  138MOL   C13627810   3.917   6.543   5.294  0.5875 -0.0817  0.3079
  138MOL   H13727811   3.890   6.420   5.564 -0.1012 -0.7520 -1.6908
  138MOL   H13827812   4.039   6.427   5.680  2.2447 -0.3611 -1.7191
  138MOL   H13927813   4.058   6.699   5.370  2.9154 -1.4665 -1.1703
  138MOL   H14027814   3.918   6.434   5.297 -0.7361 -0.1326 -0.5456
  138MOL   H14127815   3.818   6.558   5.339  1.8574  0.0261  3.2018
  138MOL   C14227816   3.927   6.584   5.150  0.5193 -0.0127 -0.2952
  138MOL   C14327817   3.824   6.513   5.064  0.2351  0.2050  0.1598
  138MOL  Cl14427818   3.685   6.610   5.017  0.4336  0.0793 -0.1596
  138MOL   C14527819   3.846   6.389   5.013  0.1315  0.0699  0.5445
  138MOL   C14627820   3.757   6.312   4.915  0.9553 -0.4441  0.0250
  138MOL   H14727821   4.022   6.555   5.105  1.1763 -0.3402  1.2728
  138MOL   H14827822   3.922   6.689   5.121 -1.7033 -0.3997 -1.4004
  138MOL   H14927823   3.940   6.342   5.039 -1.1653 -2.0947  1.4626
  138MOL   H15027824   3.652   6.331   4.936  0.4240 -2.7326 -0.4857
  138MOL   H15127825   3.775   6.339   4.811 -2.0906 -0.2168 -0.4860
  138MOL   C15227826   3.774   6.163   4.931  1.2195 -0.1483 -0.3915
  138MOL   C15327827   3.679   6.087   4.841  0.4471 -0.3230  0.2037
  138MOL  Cl15427828   3.548   6.025   4.932  0.1403 -0.1925 -0.1465
  138MOL   C15527829   3.691   6.075   4.710  0.0227 -0.1255 -0.0885
  138MOL   C15627830   3.592   5.997   4.623  0.2943  0.0764  0.1443
  138MOL   H15727831   3.869   6.120   4.899 -0.2209 -2.8713 -1.1566
  138MOL   H15827832   3.767   6.126   5.033  2.4795  1.1466  0.1901
  138MOL   H15927833   3.766   6.121   4.647  0.1284 -0.3119 -0.0982
  138MOL   H16027834   3.566   6.046   4.529 -0.3695 -1.8133 -0.6866
  138MOL   H16127835   3.503   5.993   4.687  1.2445  0.1754  1.5057
  138MOL   C16227836   3.652   5.862   4.585  0.3335 -0.5647 -0.5008
  138MOL   C16327837   3.666   5.759   4.692  0.1328  0.2218  0.3083
  138MOL  Cl16427838   3.830   5.746   4.739 -0.1284 -0.3354  0.1944
  138MOL   C16527839   3.556   5.700   4.742  0.0741  0.2058  0.2694
  138MOL   C16627840   3.562   5.603   4.859 -0.1720  0.6350  0.1106
  138MOL   H16727841   3.594   5.819   4.504  1.2015 -0.0031 -1.4294
  138MOL   H16827842   3.750   5.869   4.537 -0.6683 -1.0839 -2.6532
  138MOL   H16927843   3.457   5.733   4.714  0.3139  0.0069 -0.8054
  138MOL   H17027844   3.537   5.501   4.831  2.5761  0.1500 -0.6871
  138MOL   H17127845   3.662   5.597   4.903 -0.6779  1.5826  1.4415
  138MOL   C17227846   3.472   5.660   4.978 -0.2042 -0.1228 -0.2305
  138MOL   C17327847   3.505   5.579   5.106 -0.1221 -0.1138  0.4303
  138MOL  Cl17427848   3.456   5.411   5.095  0.0620  0.0232 -0.5391
  138MOL   C17527849   3.543   5.633   5.225 -0.0669  0.0332 -0.5498
  138MOL   C17627850   3.569   5.559   5.352 -0.3165 -0.1136  0.2038
  138MOL   H17727851   3.364   5.668   4.965 -0.0339  0.3295 -1.3547
  138MOL   H17827852   3.508   5.761   4.993  0.2408 -0.3972  0.6027
  138MOL   H17927853   3.566   5.739   5.231  1.9480 -0.4657  1.0952
  138MOL   H18027854   3.676   5.546   5.365  0.0337  1.8729 -0.5339
  138MOL   H18127855   3.524   5.461   5.337  0.5150  0.1463 -4.5630
  138MOL   C18227856   3.487   5.616   5.465  0.1753  0.5579 -0.2022
  138MOL   C18327857   3.491   5.541   5.597 -0.2641 -0.4309 -0.0774
  138MOL  Cl18427858   3.394   5.614   5.718 -0.0407  0.1375 -0.0121
  138MOL   C18527859   3.557   5.421   5.617  0.0136  0.3452  0.2837
  138MOL   C18627860   3.546   5.337   5.746  0.5781 -0.4019 -0.1744
  138MOL   H18727861   3.542   5.706   5.493 -0.3548  0.1989  2.0405
  138MOL   H18827862   3.383   5.632   5.435  0.4304  0.3559 -1.2351
  138MOL   H18927863   3.622   5.385   5.539  0.4625  0.4840  0.5917
  138MOL   H19027864   3.484   5.384   5.824  1.9161 -1.1395  1.3546
  138MOL   H19127865   3.498   5.242   5.723  0.2454 -0.3201  0.1656
  138MOL   C19227866   3.674   5.296   5.816 -0.3298 -0.3705  0.1302
  138MOL   C19327867   3.646   5.186   5.919 -0.4243 -0.2313  0.2508
  138MOL  Cl19427868   3.627   5.254   6.081  0.0462 -0.5023 -0.3551
  138MOL   C19527869   3.651   5.050   5.904  0.1401 -0.0369  0.3325
  138MOL   C19627870   3.664   4.976   5.771  0.3635  0.6934 -0.1630
  138MOL   H19727871   3.732   5.377   5.861 -0.2826 -0.0203 -0.5644
  138MOL   H19827872   3.735   5.249   5.739  0.9025  1.5287 -0.0857
  138MOL   H19927873   3.637   4.992   5.994 -2.7186 -2.7695 -1.7753
  138MOL   H20027874   3.765   4.937   5.761 -0.1695 -0.3179 -1.9590
  138MOL   H20127875   3.634   5.032   5.682  2.7069  3.5214  0.7440
  138MOL   H20227876   3.585   4.900   5.771 -0.8638  1.9553  0.1198
  139MOL     C127877   3.662   6.527   1.603 -0.2253  0.5007 -0.1204
  139MOL     C227878   3.702   6.626   1.493 -0.4688  0.5751 -0.1653
  139MOL    Cl327879   3.869   6.618   1.456 -0.0528  0.2251  0.3170
  139MOL     C427880   3.623   6.711   1.420  0.0326 -0.4191 -0.2771
  139MOL     C527881   3.474   6.726   1.440 -0.6248 -0.5695  0.0938
  139MOL     H627882   3.595   6.461   1.549 -0.6167  0.6678  0.1603
  139MOL     H727883   3.600   6.578   1.677  1.4491 -1.6698  2.8534
  139MOL     H827884   3.668   6.774   1.345  0.0243 -1.0883 -0.8510
  139MOL     H927885   3.428   6.642   1.388 -0.6192 -0.7508  0.3795
  139MOL    H1027886   3.453   6.728   1.547  0.5318 -0.3950  0.3241
  139MOL    H1127887   3.743   6.467   1.644 -0.9284 -0.7967 -0.6068
  139MOL    C1227888   3.415   6.859   1.393  0.2398  0.0127  0.4427
  139MOL    C1327889   3.259   6.848   1.369 -0.0758 -0.2481  0.1857
  139MOL   Cl1427890   3.217   6.840   1.198  0.0028 -0.3667 -0.5363
  139MOL    C1527891   3.157   6.855   1.462  0.6017  0.6042 -0.5532
  139MOL    C1627892   3.189   6.872   1.611 -0.2938  0.0573 -0.2662
  139MOL    H1727893   3.442   6.945   1.455 -2.2884  1.4082 -0.3146
  139MOL    H1827894   3.456   6.885   1.295  0.1747 -0.2160  0.3547
  139MOL    H1927895   3.052   6.855   1.439  0.2293  1.0100  1.0388
  139MOL    H2027896   3.124   6.801   1.662 -0.1282 -1.4764 -2.1584
  139MOL    H2127897   3.291   6.833   1.616 -0.3321  0.1016  1.1420
  139MOL    C2227898   3.186   7.011   1.672  0.2140 -1.0706 -0.1384
  139MOL    C2327899   3.217   7.018   1.821 -0.2396 -0.4484 -1.0141
  139MOL   Cl2427900   3.088   7.084   1.923  0.1575 -0.3638  0.4174
  139MOL    C2527901   3.334   6.994   1.875 -0.3292  0.2674 -0.2303
  139MOL    C2627902   3.373   7.018   2.027  0.7773 -0.4457  0.5644
  139MOL    H2727903   3.254   7.072   1.613  0.1831  0.4166  1.3232
  139MOL    H2827904   3.084   7.050   1.672 -0.3642 -2.4717  2.4018
  139MOL    H2927905   3.417   6.950   1.821  1.2799  0.4935  1.9832
  139MOL    H3027906   3.348   7.122   2.049 -2.6496 -0.7087 -1.8007
  139MOL    H3127907   3.316   6.951   2.091  0.2320 -0.3631  0.1702
  139MOL    C3227908   3.523   7.003   2.053  0.2476  0.4759 -0.4686
  139MOL    C3327909   3.558   7.059   2.184  0.1294 -0.3098  0.2515
  139MOL   Cl3427910   3.613   7.222   2.176  0.0255  0.1256  0.3908
  139MOL    C3527911   3.577   6.994   2.293 -0.3911 -0.2607  0.5415
  139MOL    C3627912   3.613   7.036   2.432  0.3492 -0.0285  0.2365
  139MOL    H3727913   3.554   6.900   2.039 -0.4054  0.6014 -3.2480
  139MOL    H3827914   3.581   7.057   1.979 -0.6638  0.3519 -1.2821
  139MOL    H3927915   3.574   6.886   2.292  2.1475 -0.3607 -0.6825
  139MOL    H4027916   3.641   7.141   2.430  0.2437  0.0277  1.7898
  139MOL    H4127917   3.527   7.017   2.497  1.2311 -0.1939  1.3598
  139MOL    C4227918   3.728   6.951   2.488  0.2072 -0.3075  0.2989
  139MOL    C4327919   3.759   6.996   2.626 -0.5923 -0.2464  0.7191
  139MOL   Cl4427920   3.659   6.918   2.737  0.4342 -0.0995  0.3162
  139MOL    C4527921   3.855   7.079   2.665 -0.4406 -0.2454  0.2973
  139MOL    C4627922   3.955   7.167   2.576 -0.4254 -0.2422  0.5496
  139MOL    H4727923   3.687   6.850   2.495 -2.9722  0.9680  0.9421
  139MOL    H4827924   3.816   6.960   2.424 -0.2879 -0.1038 -0.3721
  139MOL    H4927925   3.875   7.087   2.771  0.3666  1.8759  0.0040
  139MOL    H5027926   3.937   7.146   2.471 -0.6598  0.4220  0.4565
  139MOL    H5127927   3.948   7.274   2.596  1.6335  0.0984 -0.3706
  139MOL    C5227928   4.094   7.127   2.624 -0.6974 -0.6611 -0.4781
  139MOL    C5327929   4.189   7.208   2.539 -0.2763 -0.0701 -0.1316
  139MOL   Cl5427930   4.255   7.345   2.611  0.0696 -0.1113  0.2888
  139MOL    C5527931   4.217   7.168   2.414 -0.2634  0.8259 -0.0784
  139MOL    C5627932   4.319   7.225   2.315  0.1430 -0.4020  0.2448
  139MOL    H5727933   4.113   7.148   2.729  0.5156 -0.8219 -0.6526
  139MOL    H5827934   4.106   7.023   2.593  0.6295  0.2904 -3.4162
  139MOL    H5927935   4.170   7.080   2.373  0.0610  0.9309 -0.6758
  139MOL    H6027936   4.264   7.265   2.230  0.1828 -0.8953 -0.0124
  139MOL    H6127937   4.355   7.322   2.351 -0.8224 -0.9794  2.9283
  139MOL    C6227938   4.436   7.133   2.281 -0.2128 -0.0621 -0.6014
  139MOL    C6327939   4.394   7.019   2.190  0.2022 -0.2310  0.2319
  139MOL   Cl6427940   4.381   6.871   2.276 -0.1763  0.3827 -0.3815
  139MOL    C6527941   4.381   7.024   2.051  0.1440  0.0089 -0.4097
  139MOL    C6627942   4.357   6.907   1.961 -0.0000 -0.2545  0.2792
  139MOL    H6727943   4.519   7.184   2.232 -1.2107 -0.3067 -2.5917
  139MOL    H6827944   4.480   7.089   2.370  0.3931  0.0982 -0.8208
  139MOL    H6927945   4.403   7.118   2.002 -0.6172 -0.1334 -1.0368
  139MOL    H7027946   4.292   6.836   2.012 -1.5523  2.3528  2.0196
  139MOL    H7127947   4.456   6.861   1.966  1.0508  2.0163  0.9318
  139MOL    C7227948   4.312   6.946   1.823  0.0128  0.2679  0.6226
  139MOL    C7327949   4.335   6.825   1.732 -0.3529 -0.6184 -0.0551
  139MOL   Cl7427950   4.194   6.729   1.722  0.3161  0.2494  0.0322
  139MOL    C7527951   4.454   6.793   1.682 -0.3775  0.2174 -0.1679
  139MOL    C7627952   4.485   6.672   1.598 -0.0434 -0.3945 -0.2789
  139MOL    H7727953   4.354   7.036   1.780 -0.4614  0.2421  0.0891
  139MOL    H7827954   4.205   6.967   1.828 -0.5983 -2.2718 -0.6884
  139MOL    H7927955   4.528   6.866   1.712 -1.4763  0.9722  0.7225
  139MOL    H8027956   4.425   6.688   1.509  0.4682  1.4426 -0.3101
  139MOL    H8127957   4.439   6.581   1.636 -1.1520  0.4441  0.4349
  139MOL    C8227958   4.637   6.647   1.586  0.0831  0.3398  0.0584
  139MOL    C8327959   4.719   6.620   1.713 -0.1290  0.2158 -0.3066
  139MOL   Cl8427960   4.728   6.447   1.750 -0.0810 -0.1479 -0.1159
  139MOL    C8527961   4.771   6.713   1.795  0.3321 -0.1476 -0.4659
  139MOL    C8627962   4.846   6.683   1.921 -0.1701 -0.3677 -0.4866
  139MOL    H8727963   4.694   6.726   1.535  1.2834 -0.6853 -0.2043
  139MOL    H8827964   4.663   6.557   1.531  1.1434  0.7109 -0.0746
  139MOL    H8927965   4.750   6.816   1.770 -2.2292 -1.2144 -3.0415
  139MOL    H9027966   4.906   6.593   1.910  2.6617  1.4879 -0.5037
  139MOL    H9127967   4.930   6.753   1.923 -0.8253  0.4298 -0.3473
  139MOL    C9227968   4.747   6.688   2.041  0.3020  0.4958 -0.2092
  139MOL    C9327969   4.811   6.635   2.164 -1.3417 -0.0462 -0.5190
  139MOL   Cl9427970   4.863   6.757   2.278  0.1109 -0.3693  0.5165
  139MOL    C9527971   4.844   6.507   2.192 -0.0338  0.2139 -0.4216
  139MOL    C9627972   4.825   6.379   2.109 -0.2645 -0.2423  0.2120
  139MOL    H9727973   4.668   6.615   2.021  1.0413 -0.4597  0.3266
  139MOL    H9827974   4.714   6.789   2.064  0.4420  0.4639  0.1261
  139MOL    H9927975   4.897   6.492   2.285 -0.1070  0.3339 -0.3604
  139MOL   H10027976   4.762   6.317   2.173  1.4924 -2.1449  0.1296
  139MOL   H10127977   4.766   6.402   2.020 -0.5957  0.6713  0.6593
  139MOL   C10227978   4.961   6.310   2.087 -0.6203 -0.2730 -0.6006
  139MOL   C10327979   4.959   6.214   1.964  0.7308 -0.8296  0.1546
  139MOL  Cl10427980   4.997   6.054   1.995  0.0990 -0.0779 -0.2039
  139MOL   C10527981   4.966   6.266   1.840  0.2154 -0.5877 -0.0198
  139MOL   C10627982   4.978   6.177   1.714  0.2373  0.9138 -0.3112
  139MOL   H10727983   5.039   6.383   2.064  1.0705 -1.7601  0.3137
  139MOL   H10827984   4.989   6.260   2.179 -0.1984  0.5632 -0.2702
  139MOL   H10927985   4.968   6.371   1.815 -0.0055 -0.6257 -0.1988
  139MOL   H11027986   4.930   6.080   1.731 -0.7682  1.1238 -1.8709
  139MOL   H11127987   4.917   6.224   1.638  1.1252 -0.8639 -2.2003
  139MOL   C11227988   5.124   6.147   1.677 -0.0485 -0.0240 -0.5610
  139MOL   C11327989   5.135   6.031   1.581 -0.7011 -0.6049  0.0420
  139MOL  Cl11427990   5.119   6.094   1.422 -0.2006 -0.1624 -0.0398
  139MOL   C11527991   5.145   5.903   1.609  0.3266  0.4911 -0.4917
  139MOL   C11627992   5.136   5.843   1.745 -0.1485  0.2433  0.2420
  139MOL   H11727993   5.164   6.237   1.631 -0.1321  0.8429  1.0420
  139MOL   H11827994   5.185   6.135   1.767 -0.3080  2.3863 -0.0239
  139MOL   H11927995   5.155   5.837   1.524 -0.4862 -0.1916 -0.0608
  139MOL   H12027996   5.036   5.843   1.789  0.3184 -0.7222  1.3359
  139MOL   H12127997   5.184   5.918   1.808 -0.1544  0.8139 -0.4177
  139MOL   C12227998   5.219   5.714   1.770  0.8018 -0.0351 -0.1025
  139MOL   C12327999   5.243   5.660   1.905 -0.4078 -0.6703  0.1174
  139MOL  Cl12428000   5.199   5.766   2.030 -0.3618 -0.1768 -0.2332
  139MOL   C12528001   5.310   5.540   1.935  0.2250  0.6163  0.1765
  139MOL   C12628002   5.360   5.442   1.832 -0.2333  0.4670 -0.6033
  139MOL   H12728003   5.185   5.636   1.701  0.9929  0.5925 -0.9176
  139MOL   H12828004   5.320   5.735   1.734  0.1439  1.4182 -1.1751
  139MOL   H12928005   5.328   5.513   2.038 -0.0978  0.1569  0.1111
  139MOL   H13028006   5.397   5.494   1.744 -0.1060  3.3506  1.0630
  139MOL   H13128007   5.444   5.387   1.875 -0.1684 -1.8830 -3.5787
  139MOL   C13228008   5.251   5.346   1.800 -0.1814 -0.0565 -0.2111
  139MOL   C13328009   5.296   5.238   1.705 -1.0743  0.0515  0.3835
  139MOL  Cl13428010   5.340   5.093   1.792 -0.1912 -0.0582 -0.1259
  139MOL   C13528011   5.304   5.242   1.571 -0.5782  0.2413  0.1820
  139MOL   C13628012   5.282   5.359   1.479 -1.4626 -0.3014 -0.5230
  139MOL   H13728013   5.217   5.307   1.896 -1.9179  0.4723 -0.6068
  139MOL   H13828014   5.167   5.400   1.757  0.5328  0.5147 -0.9017
  139MOL   H13928015   5.340   5.152   1.523 -1.1036  0.2495 -0.2330
  139MOL   H14028016   5.228   5.322   1.392 -0.2697 -0.3144 -1.2607
  139MOL   H14128017   5.225   5.431   1.537 -0.0756  0.7848 -0.4838
  139MOL   C14228018   5.412   5.433   1.441  0.7677 -0.1858  0.8243
  139MOL   C14328019   5.401   5.563   1.360  0.0970 -0.0472  0.0510
  139MOL  Cl14428020   5.421   5.706   1.452  0.1549 -0.1012  0.1095
  139MOL   C14528021   5.378   5.568   1.227 -0.4901 -0.4941  0.1324
  139MOL   C14628022   5.374   5.696   1.148 -0.4531  0.6321 -0.3682
  139MOL   H14728023   5.470   5.362   1.382 -0.9241 -0.1823 -0.8746
  139MOL   H14828024   5.465   5.460   1.533 -0.0327 -2.6406  2.0603
  139MOL   H14928025   5.366   5.472   1.179 -0.1465 -0.8717  0.7987
  139MOL   H15028026   5.397   5.782   1.211  0.9372  0.0884 -0.1133
  139MOL   H15128027   5.454   5.689   1.074 -0.5035 -0.2990 -0.3385
  139MOL   C15228028   5.239   5.713   1.080 -0.3942  1.1734  0.0433
  139MOL   C15328029   5.231   5.853   1.021 -0.4838  0.7982  0.1755
  139MOL  Cl15428030   5.324   5.851   0.873 -0.3995  0.2730 -0.3086
  139MOL   C15528031   5.172   5.966   1.065  0.2174 -0.8611  0.4937
  139MOL   C15628032   5.182   6.108   1.010 -0.2055 -0.3092 -0.0265
  139MOL   H15728033   5.225   5.643   0.997  1.4201  1.3738 -0.4639
  139MOL   H15828034   5.155   5.703   1.148 -0.4422  1.5913  0.0424
  139MOL   H15928035   5.113   5.964   1.155  0.7747  0.6251  0.9001
  139MOL   H16028036   5.088   6.163   1.002  1.0289  1.5495 -2.1504
  139MOL   H16128037   5.207   6.118   0.905 -2.6853 -2.0609 -0.8546
  139MOL   C16228038   5.273   6.195   1.097  0.0104  0.2749 -0.1783
  139MOL   C16328039   5.347   6.298   1.024 -0.4383 -0.8936 -0.0105
  139MOL  Cl16428040   5.300   6.464   1.054 -0.2164  0.1316  0.0178
  139MOL   C16528041   5.436   6.283   0.922 -0.3402  0.9024 -0.1974
  139MOL   C16628042   5.514   6.394   0.851 -0.4774  0.0060  0.4026
  139MOL   H16728043   5.223   6.238   1.184 -0.4744  0.5867 -0.6136
  139MOL   H16828044   5.342   6.123   1.142 -0.8353 -0.3219  0.1952
  139MOL   H16928045   5.464   6.187   0.883  2.7011  2.2750 -1.5687
  139MOL   H17028046   5.471   6.420   0.754  2.2609  0.9646 -0.6021
  139MOL   H17128047   5.512   6.483   0.915 -1.5824  2.0182 -2.3379
  139MOL   C17228048   5.658   6.362   0.834 -0.1162  1.1335 -0.1592
  139MOL   C17328049   5.746   6.475   0.785 -0.3036 -0.2807  0.2131
  139MOL  Cl17428050   5.716   6.627   0.853 -0.2412 -0.1456 -0.2232
  139MOL   C17528051   5.828   6.463   0.678  0.0881 -0.9481 -0.1856
  139MOL   C17628052   5.920   6.567   0.623 -0.4479 -0.1474 -0.0124
  139MOL   H17728053   5.653   6.276   0.767  0.4587 -0.5915  1.9449
  139MOL   H17828054   5.694   6.323   0.930 -2.0594  1.5889  0.7774
  139MOL   H17928055   5.826   6.367   0.628  0.6770 -1.3632  0.5635
  139MOL   H18028056   6.019   6.559   0.669 -1.2181 -0.5940  1.6154
  139MOL   H18128057   5.879   6.666   0.642  1.1693  1.0839 -2.6127
  139MOL   C18228058   5.944   6.554   0.474 -0.3473 -0.1151 -0.1406
  139MOL   C18328059   6.085   6.598   0.432  0.0922 -0.5111  0.6069
  139MOL  Cl18428060   6.090   6.767   0.427 -0.0260  0.0780 -0.3519
  139MOL   C18528061   6.186   6.513   0.428  0.1335  0.3020  0.2065
  139MOL   C18628062   6.327   6.548   0.400 -0.4404 -0.0666  0.2820
  139MOL   H18728063   5.920   6.451   0.446 -0.1978  0.1481 -1.2668
  139MOL   H18828064   5.871   6.618   0.425 -0.2310  0.2273  0.1276
  139MOL   H18928065   6.160   6.409   0.434  0.8571  0.0220 -1.3688
  139MOL   H19028066   6.353   6.493   0.310 -1.8769 -1.6057  0.7911
  139MOL   H19128067   6.339   6.651   0.367  2.3705 -0.8244 -1.2593
  139MOL   C19228068   6.437   6.515   0.514  0.9272  0.3920  0.4253
  139MOL   C19328069   6.544   6.617   0.541 -0.7453 -0.6996  0.3706
  139MOL  Cl19428070   6.516   6.705   0.694 -0.0713 -0.1836  0.2124
  139MOL   C19528071   6.648   6.648   0.463  0.3155  0.0874 -0.1134
  139MOL   C19628072   6.684   6.585   0.325 -0.5456 -0.2266  0.5255
  139MOL   H19728073   6.492   6.427   0.480 -1.6095 -1.5065  1.0790
  139MOL   H19828074   6.394   6.467   0.602 -0.1996  1.7350  0.6132
  139MOL   H19928075   6.714   6.725   0.500 -0.1893  0.6766 -0.4290
  139MOL   H20028076   6.679   6.655   0.241 -2.6818 -0.8800  0.0784
  139MOL   H20128077   6.609   6.508   0.309 -1.2177  0.3748  0.7225
  139MOL   H20228078   6.779   6.533   0.322 -0.5911 -0.2595 -0.4309
  140MOL     C128079   3.621   3.811   6.472 -0.0686 -0.3080  0.0350
  140MOL     C228080   3.740   3.752   6.405  0.0454  0.5503  0.0335
  140MOL    Cl328081   3.789   3.599   6.464  0.1463  0.2878 -0.1548
  140MOL     C428082   3.796   3.818   6.300  0.0278 -0.6569  0.0060
  140MOL     C528083   3.769   3.953   6.249 -0.1976 -0.7216  0.5905
  140MOL     H628084   3.662   3.895   6.529 -0.9960 -1.3439  2.3147
  140MOL     H728085   3.585   3.748   6.553 -0.2473 -1.0693 -0.6341
  140MOL     H828086   3.876   3.766   6.249 -1.7238 -3.0550 -0.4066
  140MOL     H928087   3.662   3.976   6.249  0.0781  0.6334 -1.2368
  140MOL    H1028088   3.824   4.012   6.322 -0.8328 -0.2640  0.7007
  140MOL    H1128089   3.543   3.856   6.411  1.4863 -0.7450 -2.3135
  140MOL    C1228090   3.818   3.958   6.102 -0.5379  0.3543  0.0368
  140MOL    C1328091   3.794   4.086   6.022  0.1376 -0.1335  0.2027
  140MOL   Cl1428092   3.782   4.220   6.124  0.6714 -0.0817  0.0446
  140MOL    C1528093   3.781   4.095   5.886  0.3168  0.2787 -0.1781
  140MOL    C1628094   3.786   3.978   5.781 -0.0799  0.5010 -0.4291
  140MOL    H1728095   3.925   3.936   6.094 -0.6151  0.0747 -0.2128
  140MOL    H1828096   3.766   3.878   6.050  1.3447 -0.0113 -1.3363
  140MOL    H1928097   3.762   4.190   5.840  2.2922  0.9787  0.4143
  140MOL    H2028098   3.888   3.955   5.751 -0.4917 -1.2995 -0.4959
  140MOL    H2128099   3.759   3.887   5.835 -2.0049  0.9976 -0.5308
  140MOL    C2228100   3.695   3.984   5.659  0.5628 -0.0832  0.0028
  140MOL    C2328101   3.744   3.892   5.552  0.1105  0.2583  0.5093
  140MOL   Cl2428102   3.793   3.979   5.406  0.2106  0.0714 -0.0546
  140MOL    C2528103   3.764   3.757   5.565  0.4942  0.8601 -0.6718
  140MOL    C2628104   3.820   3.655   5.470 -0.6324 -0.4044  0.2573
  140MOL    H2728105   3.590   3.970   5.683  0.1513  0.5367 -1.3708
  140MOL    H2828106   3.695   4.085   5.619 -0.2387  0.3897  1.1880
  140MOL    H2928107   3.729   3.714   5.658  1.4225  1.4981 -0.0175
  140MOL    H3028108   3.761   3.563   5.475  1.3793 -1.6733  1.6084
  140MOL    H3128109   3.792   3.674   5.366  0.4146 -0.8138 -0.1143
  140MOL    C3228110   3.970   3.622   5.488 -0.1787  0.1378  0.1694
  140MOL    C3328111   4.000   3.500   5.397  0.6840 -0.1905  0.5899
  140MOL   Cl3428112   3.935   3.358   5.473  0.2104  0.2669  0.0302
  140MOL    C3528113   4.070   3.510   5.287  0.6475 -0.2792 -0.2977
  140MOL    C3628114   4.107   3.399   5.195  0.0158  0.4245  0.3060
  140MOL    H3728115   4.028   3.712   5.465 -1.2813  1.0374  0.8422
  140MOL    H3828116   3.976   3.604   5.595  2.8130  1.8925  0.3665
  140MOL    H3928117   4.098   3.608   5.251 -0.4495 -0.2644 -1.1395
  140MOL    H4028118   4.052   3.311   5.227  2.7531 -1.4442  0.0218
  140MOL    H4128119   4.063   3.436   5.103  1.3462 -0.0316 -0.5279
  140MOL    C4228120   4.256   3.384   5.182 -0.0222 -0.2671  0.4784
  140MOL    C4328121   4.299   3.273   5.093  0.6370  0.0971  0.0083
  140MOL   Cl4428122   4.364   3.136   5.183  0.1915 -0.2457  0.0524
  140MOL    C4528123   4.296   3.279   4.960  0.4461 -0.6695 -0.2585
  140MOL    C4628124   4.239   3.386   4.870  0.9227  0.2391  0.3996
  140MOL    H4728125   4.300   3.478   5.149  2.1455 -1.7374 -0.9432
  140MOL    H4828126   4.298   3.373   5.281  1.4437 -2.0991 -0.3105
  140MOL    H4928127   4.340   3.196   4.906 -0.0928 -1.6137  0.7384
  140MOL    H5028128   4.150   3.348   4.819  0.3077  0.8278  1.0260
  140MOL    H5128129   4.212   3.476   4.925 -3.2309 -0.6976  0.0446
  140MOL    C5228130   4.347   3.426   4.769  0.5906 -0.4159 -0.0533
  140MOL    C5328131   4.348   3.573   4.728 -0.0358 -0.0259 -0.2146
  140MOL   Cl5428132   4.292   3.587   4.565  0.6813  0.1708 -0.1378
  140MOL    C5528133   4.366   3.682   4.810 -0.0433  0.2379  0.2307
  140MOL    C5628134   4.356   3.827   4.770 -0.0539  0.1445  0.4191
  140MOL    H5728135   4.448   3.417   4.808 -0.0907  1.3017  2.2457
  140MOL    H5828136   4.331   3.369   4.677  0.6873  1.8573 -1.5068
  140MOL    H5928137   4.389   3.662   4.914  1.1331  0.7379  0.0722
  140MOL    H6028138   4.343   3.840   4.663  1.0391  4.5002  0.7327
  140MOL    H6128139   4.265   3.869   4.812 -1.6345 -0.0467 -2.6939
  140MOL    C6228140   4.473   3.904   4.839 -0.0428 -0.1997 -0.0077
  140MOL    C6328141   4.461   4.052   4.824  0.0841  0.2275 -0.5148
  140MOL   Cl6428142   4.425   4.151   4.966  0.2690 -0.1166  0.0574
  140MOL    C6528143   4.460   4.115   4.698  0.0615 -0.1806 -0.6491
  140MOL    C6628144   4.441   4.267   4.679 -0.0740  0.4866  0.7099
  140MOL    H6728145   4.488   3.870   4.942 -3.1693  0.2766  0.6683
  140MOL    H6828146   4.560   3.865   4.785  1.6121  0.5076  2.0638
  140MOL    H6928147   4.468   4.054   4.609 -0.1209  1.3081 -1.7025
  140MOL    H7028148   4.522   4.320   4.730  1.8454 -1.1482 -0.5705
  140MOL    H7128149   4.347   4.283   4.731 -0.8186  1.4951 -0.9006
  140MOL    C7228150   4.435   4.303   4.536  0.3409  0.2024 -0.2441
  140MOL    C7328151   4.411   4.451   4.531 -0.3487  0.0991 -0.2321
  140MOL   Cl7428152   4.560   4.538   4.512 -0.3584  0.3269 -0.5432
  140MOL    C7528153   4.289   4.509   4.537  0.1004  0.7423 -0.7579
  140MOL    C7628154   4.272   4.659   4.536 -0.8453 -0.2625  0.5845
  140MOL    H7728155   4.358   4.248   4.483  0.9288  2.2913 -3.4125
  140MOL    H7828156   4.529   4.275   4.489  1.3764 -1.2479  2.5668
  140MOL    H7928157   4.201   4.448   4.542  0.6205 -0.1002 -1.6334
  140MOL    H8028158   4.361   4.716   4.564 -0.6441 -0.6475  0.7297
  140MOL    H8128159   4.217   4.675   4.629  0.5026  1.7844  1.0631
  140MOL    C8228160   4.194   4.714   4.415 -0.5215 -0.3800 -0.4453
  140MOL    C8328161   4.155   4.858   4.423 -0.0003  0.1767 -0.1319
  140MOL   Cl8428162   4.081   4.892   4.269 -0.2554 -0.0154 -0.0313
  140MOL    C8528163   4.156   4.937   4.525  0.2803  0.1410 -0.0696
  140MOL    C8628164   4.120   5.082   4.524  0.1742  0.2927 -0.1413
  140MOL    H8728165   4.098   4.663   4.403 -0.5637  0.2135 -2.9028
  140MOL    H8828166   4.251   4.698   4.324  2.1134 -0.0525  1.0961
  140MOL    H8928167   4.192   4.897   4.619 -0.8276 -0.4681  0.1020
  140MOL    H9028168   4.095   5.115   4.424  0.9720  1.7235  0.1240
  140MOL    H9128169   4.031   5.089   4.586  0.3211  0.2538  0.0764
  140MOL    C9228170   4.240   5.170   4.569 -0.9400  0.4433  0.0005
  140MOL    C9328171   4.194   5.316   4.580  0.2009  0.0228 -0.0450
  140MOL   Cl9428172   4.267   5.408   4.451 -0.2568  0.3711  0.2434
  140MOL    C9528173   4.131   5.380   4.680  0.6684 -0.3099  0.7519
  140MOL    C9628174   4.062   5.327   4.802 -0.1173  0.3948 -0.2943
  140MOL    H9728175   4.315   5.169   4.490 -0.7725 -1.5379  0.1515
  140MOL    H9828176   4.279   5.145   4.668  2.1882  0.5665 -1.1710
  140MOL    H9928177   4.135   5.487   4.666 -1.9584 -0.3763 -0.7094
  140MOL   H10028178   4.062   5.218   4.800  0.4058  0.3361  1.8911
  140MOL   H10128179   4.111   5.347   4.898 -2.2416  0.3027  0.8476
  140MOL   C10228180   3.911   5.366   4.799  0.5985  0.0143 -0.1362
  140MOL   C10328181   3.859   5.355   4.940  0.6031  0.4433 -0.1087
  140MOL  Cl10428182   3.764   5.222   4.951 -0.1503  0.4424 -0.0516
  140MOL   C10528183   3.878   5.443   5.041 -0.0474  0.7158  0.7073
  140MOL   C10628184   3.832   5.441   5.179  0.2781 -0.3072 -0.4684
  140MOL   H10728185   3.892   5.469   4.768  1.8624  1.0845  2.4268
  140MOL   H10828186   3.850   5.307   4.731  0.2928 -0.3362  0.4314
  140MOL   H10928187   3.936   5.532   5.023 -0.5283  0.4560 -2.3161
  140MOL   H11028188   3.831   5.546   5.207 -0.3604 -0.0166 -1.5469
  140MOL   H11128189   3.734   5.396   5.193 -0.6899  1.5319 -1.1237
  140MOL   C11228190   3.936   5.380   5.270  0.1597  0.4442  0.3257
  140MOL   C11328191   3.953   5.442   5.405  0.1432  0.0501 -0.3625
  140MOL  Cl11428192   3.917   5.338   5.534 -0.1520 -0.1824 -0.1092
  140MOL   C11528193   3.988   5.570   5.430 -0.3210  0.9332 -0.0632
  140MOL   C11628194   4.025   5.675   5.325 -0.2182 -0.0009  0.5424
  140MOL   H11728195   3.907   5.277   5.289  3.1804 -0.2708  1.2518
  140MOL   H11828196   4.038   5.383   5.233  0.6288 -1.1836  1.4419
  140MOL   H11928197   3.995   5.597   5.534 -0.1304  0.2702  0.1000
  140MOL   H12028198   4.045   5.624   5.230 -0.7398 -1.0138  0.9702
  140MOL   H12128199   4.125   5.716   5.343  0.4981 -2.4988  2.6296
  140MOL   C12228200   3.917   5.791   5.302 -0.6724  0.3086 -0.3149
  140MOL   C12328201   3.953   5.883   5.185 -0.3203  0.0561 -0.2666
  140MOL  Cl12428202   3.827   5.871   5.067  0.3726  0.2376  0.6193
  140MOL   C12528203   4.046   5.978   5.171 -0.2278 -0.4347 -0.3628
  140MOL   C12628204   4.159   6.008   5.267  0.0709 -0.8246 -0.0173
  140MOL   H12728205   3.820   5.744   5.283 -0.8848  0.2445  0.8932
  140MOL   H12828206   3.910   5.851   5.393 -5.0984 -1.5703  0.7547
  140MOL   H12928207   4.044   6.036   5.080 -1.8856 -0.3809 -0.3057
  140MOL   H13028208   4.162   6.108   5.310 -2.0313 -1.9244  2.8312
  140MOL   H13128209   4.165   5.929   5.342  2.2271  0.1336  0.8609
  140MOL   C13228210   4.295   6.007   5.182 -0.8300  0.3084  0.6202
  140MOL   C13328211   4.423   6.022   5.259 -0.2861 -0.0190  0.8551
  140MOL  Cl13428212   4.491   6.173   5.239  0.1211 -0.3599 -0.3993
  140MOL   C13528213   4.482   5.932   5.336  0.0757  0.6026 -0.2828
  140MOL   C13628214   4.440   5.789   5.367  0.1684 -0.4432 -0.1650
  140MOL   H13728215   4.297   5.916   5.123  1.3438  2.4154 -2.7171
  140MOL   H13828216   4.287   6.092   5.114  4.1613  0.2500 -0.1837
  140MOL   H13928217   4.572   5.969   5.382 -0.6705  0.6330  1.1602
  140MOL   H14028218   4.339   5.775   5.329  0.0654 -2.5049  0.7883
  140MOL   H14128219   4.501   5.723   5.305 -0.6836 -0.6597 -0.7702
  140MOL   C14228220   4.451   5.758   5.523  0.0067 -0.0376 -0.0336
  140MOL   C14328221   4.378   5.631   5.568 -0.7147 -0.3452 -0.4132
  140MOL  Cl14428222   4.319   5.635   5.731  0.5269 -0.0614 -0.1569
  140MOL   C14528223   4.349   5.525   5.493  0.0009 -0.0247  0.4228
  140MOL   C14628224   4.277   5.392   5.526  0.6766  0.5604  0.4080
  140MOL   H14728225   4.418   5.848   5.575  0.3892 -0.6878  1.3468
  140MOL   H14828226   4.558   5.753   5.542 -0.2540  2.1851  2.3247
  140MOL   H14928227   4.390   5.539   5.394  0.0481  0.0235  0.4491
  140MOL   H15028228   4.219   5.407   5.617 -1.1598  1.4771 -0.8856
  140MOL   H15128229   4.215   5.377   5.438  1.4497  1.2113 -0.2514
  140MOL   C15228230   4.376   5.277   5.542 -0.6840 -0.5242 -0.1659
  140MOL   C15328231   4.312   5.145   5.584 -0.4313 -0.2545 -0.8153
  140MOL  Cl15428232   4.397   5.060   5.704  0.4592 -0.2903  0.1209
  140MOL   C15528233   4.190   5.113   5.552 -0.3109  0.4994 -0.6321
  140MOL   C15628234   4.112   4.988   5.580  0.0175  0.7003  0.6823
  140MOL   H15728235   4.417   5.259   5.443 -1.8915 -0.8369 -0.6207
  140MOL   H15828236   4.447   5.313   5.617 -1.8274  1.5826 -0.0406
  140MOL   H15928237   4.137   5.173   5.479 -1.2661 -0.6532 -0.8994
  140MOL   H16028238   4.013   5.026   5.605  0.5735  1.4026  1.8601
  140MOL   H16128239   4.139   4.941   5.675  0.0300  1.2157  0.9343
  140MOL   C16228240   4.122   4.887   5.466 -0.6497 -0.0929 -0.2513
  140MOL   C16328241   4.022   4.774   5.479  0.3399  0.5066  0.5302
  140MOL  Cl16428242   4.092   4.637   5.556 -0.0467  0.2741 -0.0810
  140MOL   C16528243   3.892   4.768   5.431  0.3600  0.2612 -0.7293
  140MOL   C16628244   3.795   4.658   5.461  0.4458 -0.4204  0.8784
  140MOL   H16728245   4.106   4.936   5.370 -0.4956 -2.6726 -1.6113
  140MOL   H16828246   4.226   4.854   5.465 -1.0968 -1.5115 -0.6738
  140MOL   H16928247   3.861   4.854   5.375 -0.4267  0.9709  0.7586
  140MOL   H17028248   3.840   4.559   5.456 -0.4276 -0.8375  1.1644
  140MOL   H17128249   3.753   4.658   5.562 -1.1908  2.8024  0.2512
  140MOL   C17228250   3.682   4.659   5.360  0.4088 -0.1010  0.0951
  140MOL   C17328251   3.574   4.553   5.385 -0.4354 -0.6713 -1.0233
  140MOL  Cl17428252   3.630   4.397   5.336 -0.0968 -0.1911  0.1562
  140MOL   C17528253   3.453   4.570   5.436  0.3286 -0.2744  0.1244
  140MOL   C17628254   3.356   4.463   5.473  0.0012 -0.1214 -0.1733
  140MOL   H17728255   3.727   4.634   5.264  2.5568  0.3991  0.9515
  140MOL   H17828256   3.635   4.757   5.367 -1.0773 -0.7654 -0.3512
  140MOL   H17928257   3.426   4.670   5.466 -2.4740 -0.8681 -0.3262
  140MOL   H18028258   3.400   4.365   5.452  1.5555  0.0454  2.0707
  140MOL   H18128259   3.273   4.469   5.403  0.1316 -1.2098 -0.4249
  140MOL   C18228260   3.309   4.482   5.623  0.9263 -0.2806 -0.0431
  140MOL   C18328261   3.419   4.462   5.727  0.1449 -0.1863 -0.9694
  140MOL  Cl18428262   3.525   4.331   5.684 -0.0585  0.1110 -0.0811
  140MOL   C18528263   3.447   4.558   5.820 -0.3582  0.2469  0.0993
  140MOL   C18628264   3.561   4.544   5.916 -0.4698  0.2232  0.0392
  140MOL   H18728265   3.266   4.580   5.640 -1.4015 -1.1727 -0.6334
  140MOL   H18828266   3.223   4.418   5.641 -1.4150  2.8247  0.1995
  140MOL   H18928267   3.396   4.650   5.844 -0.4907 -0.0004  0.7776
  140MOL   H19028268   3.503   4.562   6.006 -1.3933 -0.3655 -0.4410
  140MOL   H19128269   3.595   4.441   5.918  3.5266  1.3297 -2.8661
  140MOL   C19228270   3.666   4.660   5.909  0.8355  0.0564 -0.6825
  140MOL   C19328271   3.787   4.639   5.988 -0.4342 -0.2426 -0.4983
  140MOL  Cl19428272   3.778   4.737   6.132 -0.2272  0.0113 -0.2134
  140MOL   C19528273   3.895   4.564   5.963  0.5654  0.3906  0.1007
  140MOL   C19628274   3.918   4.459   5.850  0.2075 -0.6345 -0.4507
  140MOL   H19728275   3.613   4.753   5.931 -3.5475 -3.1458  3.5088
  140MOL   H19828276   3.690   4.657   5.803 -1.4937  1.9073 -1.3090
  140MOL   H19928277   3.969   4.573   6.040 -1.7177 -0.9465  2.5261
  140MOL   H20028278   4.005   4.479   5.787  0.3438 -0.5688 -0.2429
  140MOL   H20128279   3.830   4.464   5.786 -0.3925 -0.3974  0.3827
  140MOL   H20228280   3.934   4.359   5.890 -0.2622 -0.2710  0.6550
  141MOL     C128281   3.372   8.174   1.323  0.1155 -0.5123 -0.6133
  141MOL     C228282   3.306   8.041   1.345 -0.5546 -0.2966  0.4239
  141MOL    Cl328283   3.236   8.027   1.497  0.0256 -0.1687  0.2044
  141MOL     C428284   3.298   7.939   1.259  0.2191 -0.3295 -0.1096
  141MOL     C528285   3.357   7.937   1.121  0.0456 -0.4607  0.3970
  141MOL     H628286   3.473   8.176   1.282  1.3558  3.3910  2.3093
  141MOL     H728287   3.387   8.227   1.417  0.5933  0.7827 -1.3970
  141MOL     H828288   3.242   7.856   1.298 -0.2367  0.5928  1.2084
  141MOL     H928289   3.377   8.039   1.089 -0.3139  0.1443  2.0598
  141MOL    H1028290   3.452   7.886   1.140 -0.2829 -1.8302 -1.4917
  141MOL    H1128291   3.301   8.240   1.273 -0.4314 -0.1661  0.5928
  141MOL    C1228292   3.265   7.864   1.029  0.9713 -0.5628  0.1335
  141MOL    C1328293   3.315   7.851   0.889  0.0832  0.1816 -0.1263
  141MOL   Cl1428294   3.383   7.696   0.869  0.2967  0.2980 -0.3097
  141MOL    C1528295   3.302   7.937   0.785  0.3775 -0.6195 -0.4425
  141MOL    C1628296   3.242   8.076   0.787  0.3324 -0.3952 -0.2085
  141MOL    H1728297   3.243   7.769   1.078 -0.7361 -1.0418 -1.4710
  141MOL    H1828298   3.175   7.926   1.022  0.8935 -0.4319  2.0667
  141MOL    H1928299   3.342   7.908   0.689  1.7773 -1.4152  0.3649
  141MOL    H2028300   3.145   8.088   0.738  0.4570  1.1019 -0.1296
  141MOL    H2128301   3.216   8.106   0.889  0.8278  0.7855 -0.4222
  141MOL    C2228302   3.338   8.182   0.724 -0.0747 -0.2487  0.4005
  141MOL    C2328303   3.283   8.320   0.723  0.2538 -0.5358  0.1485
  141MOL   Cl2428304   3.278   8.387   0.564  0.0256  0.0050  0.1649
  141MOL    C2528305   3.265   8.382   0.839  0.4567 -0.2412  0.5343
  141MOL    C2628306   3.218   0.107   0.840  0.4228  0.3696 -0.3190
  141MOL    H2728307   3.431   8.170   0.780  0.2075  1.5930  0.3570
  141MOL    H2828308   3.365   8.153   0.623 -0.7723  1.3982 -0.2693
  141MOL    H2928309   3.287   8.330   0.931 -0.7392  0.7655  1.4017
  141MOL    H3028310   3.213   0.153   0.741  0.6672 -0.2771 -0.6306
  141MOL    H3128311   3.114   0.112   0.873  0.3914 -0.3283 -0.3155
  141MOL    C3228312   3.300   0.192   0.940  0.2837 -0.3586 -0.4580
  141MOL    C3328313   3.326   0.138   1.077 -0.4008  0.3334  0.1653
  141MOL   Cl3428314   3.478   0.058   1.102  0.2597  0.4480 -0.7995
  141MOL    C3528315   3.236   0.145   1.173  0.3272  0.2078  0.2201
  141MOL    C3628316   3.258   0.098   1.318  0.4011 -0.0952  0.4864
  141MOL    H3728317   3.403   0.198   0.905  0.3861 -0.8843 -0.2514
  141MOL    H3828318   3.242   0.281   0.962 -1.2789 -1.5336  0.3137
  141MOL    H3928319   3.142   0.194   1.156 -0.6298 -1.7463 -0.2154
  141MOL    H4028320   3.175   0.033   1.348 -0.4472  1.2043  1.0053
  141MOL    H4128321   3.353   0.046   1.332  0.4945 -0.1441 -0.3442
  141MOL    C4228322   3.261   0.225   1.404 -0.1242 -0.1648  0.3568
  141MOL    C4328323   3.227   0.192   1.546 -0.0673 -0.2959 -0.3118
  141MOL   Cl4428324   3.061   0.216   1.583 -0.0499  0.2301  0.1160
  141MOL    C4528325   3.311   0.158   1.647 -0.6222  0.4625 -0.1648
  141MOL    C4628326   3.460   0.134   1.643  0.4181 -0.5006  0.1659
  141MOL    H4728327   3.356   0.279   1.399 -0.2061 -0.0355  0.1929
  141MOL    H4828328   3.182   0.289   1.366 -1.6897  0.1407  3.9705
  141MOL    H4928329   3.266   0.139   1.743  1.0250 -0.1231  0.5154
  141MOL    H5028330   3.473   0.028   1.663 -2.2868 -0.5086  2.1064
  141MOL    H5128331   3.490   0.149   1.539  1.2819 -2.1376  0.1698
  141MOL    C5228332   3.540   0.223   1.735 -0.3500  0.1683  0.5549
  141MOL    C5328333   3.520   0.375   1.722 -0.0314  0.1806 -0.0382
  141MOL   Cl5428334   3.536   0.417   1.559 -0.1744  0.4389 -0.2871
  141MOL    C5528335   3.480   0.461   1.820  0.2214  0.8406 -0.7458
  141MOL    C5628336   3.462   0.611   1.805 -0.2477 -0.2546 -0.5370
  141MOL    H5728337   3.513   0.195   1.837 -2.5819 -1.2172 -0.3604
  141MOL    H5828338   3.646   0.200   1.738 -0.4457 -0.6153 -1.3610
  141MOL    H5928339   3.459   0.421   1.918  0.5235  2.0680 -0.1681
  141MOL    H6028340   3.485   0.638   1.702 -2.8064 -0.7521 -1.2850
  141MOL    H6128341   3.357   0.634   1.825 -0.2766  0.2149 -1.1973
  141MOL    C6228342   3.536   0.719   1.886  0.3490  0.6381  0.1673
  141MOL    C6328343   3.482   0.857   1.874 -0.2036  0.0267 -0.2537
  141MOL   Cl6428344   3.572   0.952   1.762 -0.0413  0.4558 -0.1983
  141MOL    C6528345   3.390   0.902   1.958 -0.0270 -0.4720  0.2555
  141MOL    C6628346   3.319   1.040   1.970 -0.1144 -0.0421  0.6699
  141MOL    H6728347   3.532   0.680   1.988  1.2998  0.7463  0.2475
  141MOL    H6828348   3.643   0.728   1.869  0.2092  0.2780 -0.9576
  141MOL    H6928349   3.366   0.833   2.037  0.1779  0.9493  1.5841
  141MOL    H7028350   3.362   1.113   1.901  1.1077  0.5853  2.0543
  141MOL    H7128351   3.333   1.088   2.067 -0.1721 -0.5467  0.9258
  141MOL    C7228352   3.169   1.036   1.938 -0.5140 -0.7131 -0.1484
  141MOL    C7328353   3.102   1.174   1.930  0.3697  0.1624 -0.3589
  141MOL   Cl7428354   3.176   1.283   2.045  0.1515  0.1936 -0.0123
  141MOL    C7528355   3.019   1.213   1.830 -0.5086  0.0689  0.5305
  141MOL    C7628356   2.958   1.356   1.820 -0.2629 -0.5517 -0.4325
  141MOL    H7728357   3.111   0.991   2.018 -2.6510  1.7886 -0.2476
  141MOL    H7828358   3.136   0.976   1.853  0.2144 -0.0753 -0.9047
  141MOL    H7928359   2.989   1.134   1.762 -3.0895  0.9274  0.6012
  141MOL    H8028360   2.977   1.421   1.735  1.1245  0.7622  0.8553
  141MOL    H8128361   3.006   1.416   1.898 -1.5699  1.7831 -1.3901
  141MOL    C8228362   2.810   1.357   1.866 -0.2537 -0.0609  0.4946
  141MOL    C8328363   2.786   1.282   1.998  0.4879  0.4946  0.2084
  141MOL   Cl8428364   2.691   1.139   1.976  0.2646 -0.3837 -0.3938
  141MOL    C8528365   2.815   1.328   2.121 -0.4464  0.1577  0.0622
  141MOL    C8628366   2.775   1.262   2.247  0.7179 -0.6282 -0.1706
  141MOL    H8728367   2.734   1.320   1.798 -0.1449  0.2178  0.2185
  141MOL    H8828368   2.769   1.457   1.882 -0.5261 -0.2150  0.7791
  141MOL    H8928369   2.867   1.423   2.120  2.6853 -1.5057  0.1103
  141MOL    H9028370   2.715   1.174   2.222 -1.2658  0.7186 -0.2843
  141MOL    H9128371   2.865   1.232   2.301  2.0652 -1.9551 -3.0495
  141MOL    C9228372   2.695   1.360   2.338 -1.0040 -0.1669  0.6902
  141MOL    C9328373   2.649   1.300   2.477  0.4592 -0.1314  0.6045
  141MOL   Cl9428374   2.736   1.358   2.609 -0.6382  0.0948 -0.0572
  141MOL    C9528375   2.531   1.241   2.495  0.2262  0.0369  0.1443
  141MOL    C9628376   2.431   1.206   2.383  0.7518  0.4254  0.6574
  141MOL    H9728377   2.603   1.399   2.295 -2.9319 -1.9207  3.0943
  141MOL    H9828378   2.758   1.448   2.355  0.8255 -1.3577  0.2592
  141MOL    H9928379   2.497   1.213   2.594 -2.4745  2.0599 -0.1591
  141MOL   H10028380   2.346   1.273   2.392  0.6226  0.4305 -0.5099
  141MOL   H10128381   2.463   1.217   2.279 -1.1355 -1.8645 -0.2312
  141MOL   C10228382   2.389   1.058   2.391  0.1082 -0.9311 -0.6520
  141MOL   C10328383   2.323   0.997   2.271  0.2154 -0.6284  0.8336
  141MOL  Cl10428384   2.432   0.933   2.152  0.2532  0.1152  0.2081
  141MOL   C10528385   2.187   0.989   2.262 -0.8929 -0.4457 -0.3937
  141MOL   C10628386   2.118   0.944   2.134  0.2609 -0.1232  0.2040
  141MOL   H10728387   2.475   0.994   2.408 -0.1588 -2.0108 -3.0340
  141MOL   H10828388   2.327   1.040   2.478 -0.4857  1.0958 -0.6193
  141MOL   H10928389   2.117   1.022   2.337  0.5273 -0.1309  0.8228
  141MOL   H11028390   2.187   0.906   2.059 -1.5781  1.1288 -2.1805
  141MOL   H11128391   2.060   0.855   2.159  0.1224  0.7957  3.3770
  141MOL   C11228392   2.033   1.073   2.083 -0.4638  0.1634  0.1781
  141MOL   C11328393   1.981   1.051   1.944  0.2964 -0.2602  0.5238
  141MOL  Cl11428394   1.811   1.010   1.943 -0.2925  0.2346 -0.1744
  141MOL   C11528395   2.049   1.064   1.829  0.1220 -0.4038 -0.1640
  141MOL   C11628396   2.196   1.102   1.822  0.7661  0.0730  0.4381
  141MOL   H11728397   1.941   1.093   2.138 -0.5208  0.5456 -0.0555
  141MOL   H11828398   2.089   1.167   2.077  0.5744 -0.4303  0.5107
  141MOL   H11928399   1.995   1.052   1.736 -0.0272  1.1466 -0.2951
  141MOL   H12028400   2.237   1.025   1.757 -1.8426 -1.6353  0.7294
  141MOL   H12128401   2.243   1.096   1.920  0.5329  0.4233  0.5725
  141MOL   C12228402   2.205   1.244   1.760  0.3070 -0.4498 -0.0231
  141MOL   C12328403   2.352   1.282   1.740  0.1583  0.3469  0.1289
  141MOL  Cl12428404   2.422   1.316   1.889 -0.7691 -0.0712 -0.0405
  141MOL   C12528405   2.424   1.293   1.628  0.3093  0.0073 -0.0485
  141MOL   C12628406   2.367   1.273   1.487  0.3550 -0.0755  0.1339
  141MOL   H12728407   2.139   1.266   1.676  0.9585  0.6100 -0.2704
  141MOL   H12828408   2.165   1.308   1.839 -2.6611  0.0989 -1.8833
  141MOL   H12928409   2.529   1.318   1.626  0.8452 -1.7323  2.6438
  141MOL   H13028410   2.281   1.206   1.485 -1.5633  2.3388 -0.9726
  141MOL   H13128411   2.335   1.371   1.450 -1.8794  0.0579  2.2725
  141MOL   C13228412   2.467   1.218   1.393  0.1663  0.0919 -0.3694
  141MOL   C13328413   2.399   1.213   1.258  1.0056  0.0776 -0.2959
  141MOL  Cl13428414   2.323   1.065   1.233  0.2674  0.3112 -0.4162
  141MOL   C13528415   2.393   1.309   1.167  0.2102  0.4496 -0.1045
  141MOL   C13628416   2.459   1.446   1.185 -0.9203 -0.6186 -0.0670
  141MOL   H13728417   2.559   1.272   1.371 -0.9510  1.4586 -1.7270
  141MOL   H13828418   2.498   1.119   1.427  0.6828 -0.4203 -2.2512
  141MOL   H13928419   2.340   1.300   1.073  1.7169 -0.0468 -0.9122
  141MOL   H14028420   2.393   1.525   1.151  0.6690  0.3132 -1.0416
  141MOL   H14128421   2.488   1.471   1.287 -2.5247  1.4312 -0.1037
  141MOL   C14228422   2.588   1.456   1.109 -0.0822  0.3541  0.4128
  141MOL   C14328423   2.572   1.404   0.963 -0.1141 -0.5130  0.3014
  141MOL  Cl14428424   2.641   1.249   0.943 -0.4193 -0.1683  0.0521
  141MOL   C14528425   2.516   1.470   0.858 -0.3359 -0.0252  0.3997
  141MOL   C14628426   2.492   1.427   0.717 -0.1209  0.1108  0.0800
  141MOL   H14728427   2.666   1.395   1.155 -0.2761 -0.8980 -0.8736
  141MOL   H14828428   2.630   1.556   1.109  1.6100 -0.3353 -0.2069
  141MOL   H14928429   2.475   1.566   0.884  0.6247  0.8663 -1.3477
  141MOL   H15028430   2.531   1.503   0.649  0.4528 -0.2708 -0.0213
  141MOL   H15128431   2.536   1.331   0.691  1.2300  0.4328  1.0892
  141MOL   C15228432   2.345   1.397   0.683 -0.2610 -0.2754 -0.8111
  141MOL   C15328433   2.285   1.297   0.783  0.8888 -0.1804 -0.0277
  141MOL  Cl15428434   2.149   1.359   0.860  0.0845  0.3705 -0.0452
  141MOL   C15528435   2.337   1.173   0.798  0.3672 -0.7178  0.2167
  141MOL   C15628436   2.284   1.070   0.887 -1.0869 -0.2978 -0.0659
  141MOL   H15728437   2.286   1.489   0.688  1.1741  0.5718  1.2395
  141MOL   H15828438   2.332   1.355   0.583 -1.2383 -0.1561 -0.7391
  141MOL   H15928439   2.414   1.125   0.739 -1.2697 -0.5182 -2.1457
  141MOL   H16028440   2.268   1.117   0.984 -0.3704  0.4622 -0.3064
  141MOL   H16128441   2.346   0.981   0.896 -0.5425  0.1412  0.6585
  141MOL   C16228442   2.149   1.025   0.831 -0.0827 -0.0564 -0.3790
  141MOL   C16328443   2.089   0.902   0.896  0.2277 -0.3168 -0.0977
  141MOL  Cl16428444   2.031   0.793   0.775  0.3667  0.0931  0.3173
  141MOL   C16528445   2.077   0.876   1.026 -0.6403  0.0581 -0.2423
  141MOL   C16628446   2.027   0.738   1.085  0.0095 -0.3442 -0.5515
  141MOL   H16728447   2.073   1.101   0.848 -0.6951 -0.9184  0.7866
  141MOL   H16828448   2.151   1.012   0.722 -0.8647  0.6721 -0.4837
  141MOL   H16928449   2.099   0.947   1.105  0.3154 -0.3089 -0.1831
  141MOL   H17028450   1.984   0.758   1.184  1.1804 -1.2827  0.1674
  141MOL   H17128451   1.944   0.700   1.025  0.1780 -1.4561 -0.1021
  141MOL   C17228452   2.149   0.644   1.084  0.1107 -0.5384 -0.2258
  141MOL   C17328453   2.195   0.593   0.955 -0.7713 -0.0333 -0.4576
  141MOL  Cl17428454   2.104   0.453   0.910 -0.3790 -0.0923 -0.1885
  141MOL   C17528455   2.305   0.636   0.894 -0.2582 -0.2384  0.2718
  141MOL   C17628456   2.359   0.584   0.766  0.1622  0.6404 -0.6515
  141MOL   H17728457   2.133   0.562   1.153  2.0132  0.9572  2.0587
  141MOL   H17828458   2.219   0.705   1.141 -1.3427 -1.4058  2.5669
  141MOL   H17928459   2.368   0.717   0.927 -0.2814  0.5603 -1.5962
  141MOL   H18028460   2.286   0.518   0.719 -0.7269  2.4028 -1.8152
  141MOL   H18128461   2.434   0.511   0.796 -1.0938 -0.1907  0.5451
  141MOL   C18228462   2.423   0.689   0.674  0.0723  0.2757  0.3791
  141MOL   C18328463   2.492   0.621   0.556  0.1723  0.4016  0.7455
  141MOL  Cl18428464   2.628   0.514   0.589  0.2273 -0.6478  0.2616
  141MOL   C18528465   2.453   0.649   0.429 -0.8785 -0.0108 -0.2264
  141MOL   C18628466   2.499   0.567   0.309 -0.0611 -0.1176  0.1478
  141MOL   H18728467   2.344   0.744   0.623 -0.5933 -0.2075  0.8806
  141MOL   H18828468   2.496   0.755   0.721  1.1882 -1.1520  0.6879
  141MOL   H18928469   2.378   0.725   0.411 -1.6127 -0.8064 -0.5608
  141MOL   H19028470   2.568   0.624   0.246 -0.5836 -1.9787 -2.2106
  141MOL   H19128471   2.564   0.485   0.341 -1.9199 -2.7449 -2.4649
  141MOL   C19228472   2.379   0.515   0.233  0.5011  0.0829  0.1246
  141MOL   C19328473   2.419   0.430   0.111  0.7288 -0.1923 -0.9252
  141MOL  Cl19428474   2.428   0.523   8.383 -0.4588 -0.2251  0.2276
  141MOL   C19528475   2.465   0.302   0.116 -0.0478 -0.4106  0.3467
  141MOL   C19628476   2.474   0.219   0.243  0.7601  0.0762  0.3708
  141MOL   H19728477   2.307   0.588   0.198 -0.1134 -0.9082 -0.6959
  141MOL   H19828478   2.315   0.457   0.299 -2.0658  2.1220 -0.4857
  141MOL   H19928479   2.482   0.264   0.016  1.1970  2.0093 -0.4032
  141MOL   H20028480   2.409   0.132   0.238  1.1510 -0.2044  0.0353
  141MOL   H20128481   2.444   0.265   0.337  1.8432  0.4479  0.5421
  141MOL   H20228482   2.568   0.174   0.276  1.1786  1.2588  0.8127
  142MOL     C128483   3.683   3.854   4.028 -0.5710 -0.1190  0.3720
  142MOL     C228484   3.831   3.887   4.060  0.0791  0.0338  0.0355
  142MOL    Cl328485   3.898   3.990   3.947  0.1187  0.1400  0.0584
  142MOL     C428486   3.896   3.849   4.178  1.3611  0.0109 -0.5086
  142MOL     C528487   3.840   3.762   4.294  0.3532  0.3598 -0.1209
  142MOL     H628488   3.694   3.781   3.949  0.4995 -1.0414  1.3553
  142MOL     H728489   3.628   3.939   3.987 -1.2202 -1.3634 -1.3711
  142MOL     H828490   3.999   3.878   4.188  2.6005 -4.1950 -0.2745
  142MOL     H928491   3.871   3.804   4.390 -0.4410  1.2295 -0.2391
  142MOL    H1028492   3.731   3.771   4.289  0.4146  1.1517  0.0027
  142MOL    H1128493   3.636   3.796   4.108 -0.2169  0.4514  1.0046
  142MOL    C1228494   3.908   3.628   4.293  0.3574  0.1433 -0.5916
  142MOL    C1328495   3.848   3.535   4.399 -0.7526  0.1493  0.1331
  142MOL   Cl1428496   3.969   3.493   4.517 -0.4969  0.3281 -0.2799
  142MOL    C1528497   3.730   3.474   4.412 -0.5117 -0.5097  0.6614
  142MOL    C1628498   3.615   3.486   4.312 -0.1971 -0.4320  0.1469
  142MOL    H1728499   3.887   3.588   4.193 -2.2829  0.8445 -0.3491
  142MOL    H1828500   4.015   3.644   4.308 -0.0995  1.2581  1.5562
  142MOL    H1928501   3.717   3.404   4.493  1.2406  0.2989  1.6659
  142MOL    H2028502   3.635   3.572   4.249  0.0439 -1.0932 -0.6908
  142MOL    H2128503   3.622   3.392   4.258 -0.0137  0.4145 -1.3249
  142MOL    C2228504   3.485   3.503   4.389  0.0473  0.2987  0.4065
  142MOL    C2328505   3.494   3.628   4.479  0.4424 -0.0666 -0.4926
  142MOL   Cl2428506   3.500   3.592   4.645 -0.0961 -0.0146  0.0330
  142MOL    C2528507   3.498   3.757   4.441  0.0768  0.6225  0.1906
  142MOL    C2628508   3.510   3.887   4.531 -0.3538  0.7759 -0.1470
  142MOL    H2728509   3.406   3.514   4.314 -1.0168  0.9476  1.6047
  142MOL    H2828510   3.463   3.415   4.449 -2.4349  0.6289  0.0375
  142MOL    H2928511   3.510   3.782   4.337  1.2753 -1.4098 -0.1898
  142MOL    H3028512   3.466   3.875   4.630 -0.2372  1.8687  0.0480
  142MOL    H3128513   3.618   3.902   4.530 -0.1847 -0.4172 -0.0160
  142MOL    C3228514   3.442   4.006   4.457 -0.6237 -0.2788 -0.8444
  142MOL    C3328515   3.444   4.136   4.538  0.7709  0.0289 -0.3005
  142MOL   Cl3428516   3.560   4.255   4.480  0.0332  0.0871  0.3504
  142MOL    C3528517   3.355   4.175   4.639 -0.1543  0.5818 -0.2495
  142MOL    C3628518   3.369   4.301   4.716  0.2370  0.3607  0.4324
  142MOL    H3728519   3.475   4.024   4.354 -1.8024  0.5125 -1.0967
  142MOL    H3828520   3.337   3.991   4.434 -0.8641  0.9922 -0.5873
  142MOL    H3928521   3.286   4.094   4.659 -1.1917  1.8489  1.3967
  142MOL    H4028522   3.391   4.385   4.649  0.8044  0.3922  0.6560
  142MOL    H4128523   3.273   4.327   4.762  0.7981  0.1003  1.7557
  142MOL    C4228524   3.485   4.303   4.809 -0.2710 -0.8152  0.1616
  142MOL    C4328525   3.466   4.412   4.904  0.2954 -0.3147  0.1397
  142MOL   Cl4428526   3.417   4.340   5.057  0.0578  0.2896  0.1024
  142MOL    C4528527   3.487   4.543   4.898  0.1984 -0.0887 -0.6188
  142MOL    C4628528   3.522   4.620   4.772  0.2775 -0.1241  0.3705
  142MOL    H4728529   3.500   4.206   4.856  1.3822 -0.5391  0.2232
  142MOL    H4828530   3.575   4.329   4.753 -0.5968  0.4650  0.2198
  142MOL    H4928531   3.475   4.610   4.983  0.0548  0.4339 -1.0516
  142MOL    H5028532   3.519   4.583   4.669 -1.9228  0.0647  0.3435
  142MOL    H5128533   3.432   4.678   4.752 -0.6549 -1.4544  0.6526
  142MOL    C5228534   3.641   4.702   4.796  0.7784 -0.6834  0.3618
  142MOL    C5328535   3.659   4.799   4.686 -0.0802 -0.3470 -0.3728
  142MOL   Cl5428536   3.746   4.741   4.551  0.0965 -0.1186 -0.0689
  142MOL    C5528537   3.619   4.927   4.700  0.4740 -0.8973  0.2935
  142MOL    C5628538   3.624   5.045   4.599  0.2993 -0.2444  0.3410
  142MOL    H5728539   3.632   4.745   4.896  3.1009  0.6004  0.0466
  142MOL    H5828540   3.731   4.640   4.797  0.5686 -1.0227 -1.1493
  142MOL    H5928541   3.568   4.950   4.793 -3.9098 -0.8133 -1.9909
  142MOL    H6028542   3.706   5.106   4.637  0.8898  0.4203 -1.9077
  142MOL    H6128543   3.656   5.005   4.502 -0.7065 -0.1947 -0.0163
  142MOL    C6228544   3.491   5.130   4.596 -0.5055 -0.5866  0.3260
  142MOL    C6328545   3.495   5.229   4.478  0.2635  0.5587  0.1848
  142MOL   Cl6428546   3.527   5.388   4.546 -0.1663  0.0532 -0.3357
  142MOL    C6528547   3.449   5.213   4.353  0.2142  0.0708 -0.2394
  142MOL    C6628548   3.437   5.318   4.239 -0.3140 -0.0673 -0.4158
  142MOL    H6728549   3.415   5.058   4.565 -0.0166 -0.7369 -0.5259
  142MOL    H6828550   3.469   5.176   4.692  0.2387  1.0324 -0.2707
  142MOL    H6928551   3.423   5.115   4.316 -1.0549  0.1386  0.4219
  142MOL    H7028552   3.499   5.279   4.158 -0.3565 -2.9338  0.8678
  142MOL    H7128553   3.479   5.407   4.286  0.4339 -0.4858 -0.2752
  142MOL    C7228554   3.291   5.350   4.191  0.5612  0.0325 -0.3059
  142MOL    C7328555   3.267   5.494   4.149 -0.1410 -0.3521 -0.3030
  142MOL   Cl7428556   3.263   5.517   3.985 -0.1113 -0.1098  0.3495
  142MOL    C7528557   3.238   5.596   4.233  0.0142  0.7625 -0.2143
  142MOL    C7628558   3.191   5.735   4.197  0.6725 -0.7521  0.1260
  142MOL    H7728559   3.213   5.324   4.263  0.1056  1.2610 -0.3492
  142MOL    H7828560   3.262   5.287   4.107 -0.1056 -0.9871  0.6701
  142MOL    H7928561   3.236   5.577   4.339  1.4949 -0.5382 -0.4037
  142MOL    H8028562   3.082   5.732   4.195  0.6127  0.4385  1.3910
  142MOL    H8128563   3.223   5.762   4.096 -1.0668 -1.7526 -0.7248
  142MOL    C8228564   3.247   5.844   4.297 -0.4961 -0.4292 -1.1889
  142MOL    C8328565   3.215   5.990   4.267  0.4146 -0.6493  0.0636
  142MOL   Cl8428566   3.314   6.096   4.361 -0.3559 -0.0187  0.2685
  142MOL    C8528567   3.114   6.037   4.186  0.0678  0.6073 -0.3766
  142MOL    C8628568   3.083   6.180   4.151  0.2532  0.0909 -0.3417
  142MOL    H8728569   3.355   5.830   4.307 -0.9056 -1.9385  1.6130
  142MOL    H8828570   3.201   5.829   4.395  0.2753 -0.0741 -0.7653
  142MOL    H8928571   3.057   5.960   4.135  0.0496  0.7971 -0.6428
  142MOL    H9028572   2.975   6.191   4.147  0.2241  0.3726  0.9543
  142MOL    H9128573   3.118   6.233   4.240 -0.9774  0.2278  0.0671
  142MOL    C9228574   3.163   6.219   4.027  0.2444 -0.5049  0.4373
  142MOL    C9328575   3.163   6.370   4.000 -0.6610  0.0192 -0.7718
  142MOL   Cl9428576   3.305   6.455   4.057  0.3605  0.0940 -0.5853
  142MOL    C9528577   3.078   6.427   3.916  0.7335  1.0084  0.3041
  142MOL    C9628578   2.957   6.363   3.837  0.3687 -0.2492  0.2475
  142MOL    H9728579   3.137   6.171   3.933 -1.0314  0.5423  0.2310
  142MOL    H9828580   3.265   6.192   4.052  0.6887 -1.6809 -2.4764
  142MOL    H9928581   3.087   6.533   3.897  1.4549  0.9328  0.2019
  142MOL   H10028582   2.948   6.255   3.845  0.9986 -0.1407  2.9187
  142MOL   H10128583   2.868   6.407   3.883 -0.6492 -0.3335 -1.6051
  142MOL   C10228584   2.958   6.406   3.696 -0.0187  0.8022  0.5485
  142MOL   C10328585   2.831   6.361   3.626  0.1561 -0.8384  0.6177
  142MOL  Cl10428586   2.868   6.235   3.516 -0.3366  0.2143  0.0065
  142MOL   C10528587   2.712   6.411   3.651  0.1872 -0.2860  0.3766
  142MOL   C10628588   2.578   6.362   3.587  0.0727 -0.8680 -0.4032
  142MOL   H10728589   2.974   6.514   3.688 -0.1743  0.8960  1.4638
  142MOL   H10828590   3.039   6.353   3.647 -0.8363 -0.6297  0.7243
  142MOL   H10928591   2.697   6.488   3.725 -0.2827 -0.8330  0.8584
  142MOL   H11028592   2.586   6.258   3.557  1.6385 -0.8728 -0.0550
  142MOL   H11128593   2.515   6.369   3.676  2.1059 -3.0433  1.2715
  142MOL   C11228594   2.525   6.445   3.478  0.1932  0.1730 -0.2059
  142MOL   C11328595   2.386   6.417   3.425  0.5109  0.2864 -0.1069
  142MOL  Cl11428596   2.275   6.393   3.550  0.3796  0.0325  0.2410
  142MOL   C11528597   2.351   6.417   3.296  0.1742  0.4011  0.1832
  142MOL   C11628598   2.437   6.443   3.176 -0.6854  0.0975  0.3050
  142MOL   H11728599   2.534   6.550   3.506 -1.6868  0.9395 -2.2973
  142MOL   H11828600   2.592   6.446   3.392  1.4454 -1.3835  0.7319
  142MOL   H11928601   2.250   6.393   3.264  0.1137  0.2249  0.5088
  142MOL   H12028602   2.542   6.461   3.201 -0.6107 -1.5589  1.2284
  142MOL   H12128603   2.400   6.527   3.116  0.5897  1.1586  0.9722
  142MOL   C12228604   2.440   6.321   3.082 -0.2133  0.2532 -0.0185
  142MOL   C12328605   2.498   6.190   3.152  0.0213 -0.2460 -0.1142
  142MOL  Cl12428606   2.667   6.202   3.197  0.2283 -0.0586  0.0742
  142MOL   C12528607   2.432   6.077   3.174 -0.6002 -1.1178 -0.1550
  142MOL   C12628608   2.280   6.055   3.157 -1.0568 -0.7778 -0.2867
  142MOL   H12728609   2.341   6.307   3.040 -0.1658  0.9133 -0.3692
  142MOL   H12828610   2.507   6.353   3.002  0.2872 -0.5388  0.0759
  142MOL   H12928611   2.486   5.993   3.213 -0.9609 -1.0920  0.4064
  142MOL   H13028612   2.256   5.968   3.219  1.0623  0.6432  2.6643
  142MOL   H13128613   2.215   6.136   3.190 -1.4269 -1.4276  0.6401
  142MOL   C13228614   2.244   6.020   3.012  0.5370 -0.3034 -0.2492
  142MOL   C13328615   2.094   6.012   3.000  1.1000 -0.5339 -0.1664
  142MOL  Cl13428616   2.028   6.161   2.941 -0.1241  0.5322  0.0909
  142MOL   C13528617   2.009   5.917   3.037 -0.0070 -0.5661  0.0018
  142MOL   C13628618   2.053   5.783   3.106  0.5382 -0.5371 -0.6741
  142MOL   H13728619   2.274   6.102   2.946 -1.7940  0.0263 -0.9390
  142MOL   H13828620   2.290   5.926   2.981  0.5420 -0.0634 -0.9959
  142MOL   H13928621   1.903   5.928   3.019  0.0853 -0.8997 -0.7390
  142MOL   H14028622   2.021   5.698   3.046 -0.7902 -2.1321  2.1568
  142MOL   H14128623   2.161   5.770   3.113  0.3496 -1.5651  0.5619
  142MOL   C14228624   2.006   5.767   3.264 -0.0727  0.6666  0.2049
  142MOL   C14328625   2.055   5.632   3.319 -0.2590  0.0345 -0.2054
  142MOL  Cl14428626   2.177   5.654   3.440 -0.0792 -0.2943 -0.0583
  142MOL   C14528627   1.999   5.516   3.296  0.8972  0.1619 -0.2899
  142MOL   C14628628   2.037   5.383   3.361  0.4034 -0.1039  0.1266
  142MOL   H14728629   1.900   5.786   3.281 -0.1393  0.4888 -0.0186
  142MOL   H14828630   2.060   5.843   3.321  2.8452 -1.5454  0.5605
  142MOL   H14928631   1.920   5.510   3.223  1.9201  0.2022 -1.4125
  142MOL   H15028632   2.097   5.326   3.290  0.3027  2.7097 -2.2885
  142MOL   H15128633   2.096   5.383   3.452  0.3967  0.2373  0.1303
  142MOL   C15228634   1.919   5.300   3.409  0.5734 -0.1993  0.5872
  142MOL   C15328635   1.970   5.153   3.434 -0.0717 -0.5071 -0.2785
  142MOL  Cl15428636   2.000   5.125   3.604 -0.1435  0.3041  0.1866
  142MOL   C15528637   1.964   5.064   3.332 -0.2538  0.3124  0.5571
  142MOL   C15628638   1.989   4.922   3.340 -0.2926 -0.4325 -0.0136
  142MOL   H15728639   1.872   5.344   3.496 -2.1538  3.6880 -2.6473
  142MOL   H15828640   1.840   5.287   3.334  2.1347  0.8756 -1.2909
  142MOL   H15928641   1.930   5.102   3.236  0.8394  1.7425  0.7177
  142MOL   H16028642   1.898   4.870   3.309 -1.0958 -0.2256  1.9267
  142MOL   H16128643   2.009   4.883   3.440  0.6918 -0.4821 -0.2283
  142MOL   C16228644   2.102   4.879   3.250  0.9909  0.3924 -0.3646
  142MOL   C16328645   2.075   4.882   3.103  0.0489  0.1684 -0.2840
  142MOL  Cl16428646   1.961   4.753   3.053 -0.1387  0.3175 -0.3720
  142MOL   C16528647   2.143   4.966   3.018 -0.9520  0.8600  0.3916
  142MOL   C16628648   2.123   4.974   2.870 -0.1471  0.6497 -0.2228
  142MOL   H16728649   2.182   4.950   3.270 -0.0762  2.3352 -2.7406
  142MOL   H16828650   2.146   4.782   3.274 -0.9973 -1.0003 -2.1107
  142MOL   H16928651   2.220   5.032   3.057  1.1571 -1.1340 -0.2974
  142MOL   H17028652   2.048   4.898   2.849  2.3990 -1.2238 -2.8523
  142MOL   H17128653   2.084   5.074   2.849  0.0677  1.2093  1.8967
  142MOL   C17228654   2.258   4.946   2.804 -0.6508 -0.1243 -0.2240
  142MOL   C17328655   2.248   4.925   2.658  0.0032 -0.1297 -0.3500
  142MOL  Cl17428656   2.203   4.763   2.629  0.0289  0.2014 -0.2812
  142MOL   C17528657   2.272   5.019   2.565  0.1696  0.4351 -0.0893
  142MOL   C17628658   2.267   5.000   2.419  0.9966 -0.4087  0.1297
  142MOL   H17728659   2.307   4.862   2.854 -0.0401  0.5208  0.2765
  142MOL   H17828660   2.317   5.038   2.810  0.6015 -0.7590 -2.2687
  142MOL   H17928661   2.286   5.124   2.589  1.1143  1.0004 -2.9310
  142MOL   H18028662   2.265   4.895   2.392  0.8991 -0.3756  0.0073
  142MOL   H18128663   2.362   5.036   2.378 -0.0604 -0.3666 -2.3656
  142MOL   C18228664   2.158   5.083   2.350  0.2638  0.4256  0.3974
  142MOL   C18328665   2.017   5.038   2.376 -0.2109 -0.9948 -0.2451
  142MOL  Cl18428666   1.969   4.958   2.232 -0.1128  0.3520 -0.1886
  142MOL   C18528667   1.938   5.046   2.484  0.5401 -0.3459  0.3264
  142MOL   C18628668   1.796   4.986   2.494  0.1837  0.1206 -1.1277
  142MOL   H18728669   2.167   5.189   2.374  1.3804  0.8589 -1.7904
  142MOL   H18828670   2.179   5.090   2.243 -1.3911 -0.0947  0.0307
  142MOL   H18928671   1.971   5.095   2.574 -1.4399 -1.1664  1.5018
  142MOL   H19028672   1.747   5.067   2.547  2.2023  0.9672 -0.5020
  142MOL   H19128673   1.739   4.971   2.402 -0.0035 -0.4718 -0.9120
  142MOL   C19228674   1.794   4.858   2.586  0.9055 -0.2402 -0.4155
  142MOL   C19328675   1.686   4.750   2.560  0.5031  0.3855 -0.9909
  142MOL  Cl19428676   1.584   4.739   2.693 -0.0434  0.2850  0.0422
  142MOL   C19528677   1.676   4.668   2.456 -0.1301  0.2486 -0.6358
  142MOL   C19628678   1.778   4.668   2.345 -0.9751 -0.6571 -1.0745
  142MOL   H19728679   1.792   4.882   2.692 -1.6479 -1.5390 -0.1194
  142MOL   H19828680   1.891   4.809   2.574  2.6361  2.7844  0.6486
  142MOL   H19928681   1.589   4.604   2.454  0.5553 -0.8674  2.6644
  142MOL   H20028682   1.741   4.605   2.264 -1.1184  0.2819 -1.7483
  142MOL   H20128683   1.865   4.620   2.392 -1.9398 -0.5002  0.9254
  142MOL   H20228684   1.823   4.766   2.326 -0.2567 -0.5310  1.1775
  143MOL     C128685   2.022   6.123   7.654  0.0032  0.0540 -0.1178
  143MOL     C228686   2.123   6.080   7.552 -0.5171  0.8734  0.4780
  143MOL    Cl328687   2.245   5.974   7.609 -0.1093  0.3226 -0.2166
  143MOL     C428688   2.112   6.117   7.424  0.7985  0.3309  0.3862
  143MOL     C528689   1.998   6.204   7.369 -0.0241  0.2175 -0.5990
  143MOL     H628690   1.934   6.059   7.656  0.1747 -0.1846 -0.2490
  143MOL     H728691   2.006   6.229   7.637  2.5068  0.3272 -1.0194
  143MOL     H828692   2.188   6.088   7.353  0.4475  1.1207 -0.3119
  143MOL     H928693   1.910   6.185   7.431  1.6862 -0.4604  1.7296
  143MOL    H1028694   2.036   6.305   7.388  0.1019  0.2643 -1.0918
  143MOL    H1128695   2.077   6.131   7.748  0.2812 -0.7526 -0.2061
  143MOL    C1228696   1.972   6.163   7.224 -0.2439 -0.5700 -0.3377
  143MOL    C1328697   1.848   6.230   7.182 -0.4511  0.6170  0.1320
  143MOL   Cl1428698   1.885   6.372   7.093 -0.1533 -0.2755 -0.2928
  143MOL    C1528699   1.722   6.183   7.197 -0.1864 -0.1601 -0.5620
  143MOL    C1628700   1.675   6.051   7.264 -0.6403  0.1510  0.2634
  143MOL    H1728701   2.049   6.192   7.154 -0.7507 -0.5206 -0.8819
  143MOL    H1828702   1.956   6.056   7.205 -0.8010 -0.3731 -0.9848
  143MOL    H1928703   1.645   6.249   7.161 -0.6540 -0.9409 -1.0057
  143MOL    H2028704   1.631   5.991   7.185 -0.9322 -0.8073  1.1467
  143MOL    H2128705   1.764   6.000   7.300 -0.2117  0.4893 -0.3121
  143MOL    C2228706   1.586   6.070   7.383 -0.8176  0.4342 -0.0875
  143MOL    C2328707   1.520   5.944   7.437  0.2079 -0.4039 -0.1112
  143MOL   Cl2428708   1.343   5.946   7.410  0.1292  0.0578 -0.1648
  143MOL    C2528709   1.587   5.841   7.488 -0.0337 -0.1413 -0.4273
  143MOL    C2628710   1.538   5.703   7.530 -0.1604 -0.6995 -0.4746
  143MOL    H2728711   1.642   6.113   7.465 -0.9015 -0.8957  0.6904
  143MOL    H2828712   1.502   6.133   7.354  0.5181  1.3756 -2.0281
  143MOL    H2928713   1.694   5.855   7.492 -0.0957 -0.0999  1.5925
  143MOL    H3028714   1.435   5.683   7.501  0.0655 -1.1100 -0.9956
  143MOL    H3128715   1.600   5.635   7.472 -0.1465 -1.6578  0.6558
  143MOL    C3228716   1.542   5.668   7.681  0.3706  0.4252 -0.1124
  143MOL    C3328717   1.460   5.754   7.774  0.2240 -0.5744  0.2034
  143MOL   Cl3428718   1.550   5.784   7.914  0.0452 -0.2343  0.2729
  143MOL    C3528719   1.341   5.799   7.747  0.3293  0.0183  0.6547
  143MOL    C3628720   1.247   5.875   7.839 -0.6308  0.1186  0.3090
  143MOL    H3728721   1.489   5.573   7.687  1.4654 -0.2454 -1.0155
  143MOL    H3828722   1.646   5.661   7.713  0.9296 -2.1738 -2.2916
  143MOL    H3928723   1.295   5.784   7.650  1.6094 -2.3725  0.3912
  143MOL    H4028724   1.148   5.830   7.852 -0.5999 -0.1117 -0.2325
  143MOL    H4128725   1.284   5.872   7.941 -0.4011 -1.0077  0.2062
  143MOL    C4228726   1.211   6.016   7.796 -0.9242 -0.2831 -0.1330
  143MOL    C4328727   1.081   6.065   7.858 -0.3732  0.3402 -0.2891
  143MOL   Cl4428728   0.978   6.127   7.731  0.0534 -0.0863 -0.2360
  143MOL    C4528729   1.058   6.089   7.987 -0.5680  0.5632 -0.6538
  143MOL    C4628730   1.158   6.066   8.099  0.5677  1.1098 -0.6116
  143MOL    H4728731   1.289   6.083   7.831 -1.9204  0.0288  1.5678
  143MOL    H4828732   1.206   6.015   7.687 -0.7646 -0.6587 -0.1371
  143MOL    H4928733   0.965   6.138   8.011  0.3648  0.8095  2.7484
  143MOL    H5028734   1.259   6.070   8.057  0.2898 -1.6576 -1.5818
  143MOL    H5128735   1.179   6.155   8.159  3.7283  0.9950 -1.4436
  143MOL    C5228736   1.140   5.934   8.185  0.8142 -0.1435  0.4969
  143MOL    C5328737   1.231   5.930   8.309  0.8980 -0.0867 -0.3598
  143MOL   Cl5428738   1.164   5.854   0.028  0.1852 -0.0528  0.2541
  143MOL    C5528739   1.356   5.976   8.317  0.3873 -0.6590  0.2243
  143MOL    C5628740   1.459   5.946   0.004 -0.4723 -0.0985 -0.0652
  143MOL    H5728741   1.037   5.935   8.218  0.5912  1.3195 -0.1855
  143MOL    H5828742   1.151   5.842   8.128 -0.4576 -1.9278  3.0512
  143MOL    H5928743   1.392   6.032   8.232  1.2375  2.1735  2.3963
  143MOL    H6028744   1.537   6.022   8.420 -1.5990  0.9327 -3.4048
  143MOL    H6128745   1.415   5.951   0.104  0.6101 -1.7758  0.5294
  143MOL    C6228746   1.530   5.808   8.391  0.3317 -0.5047 -0.4324
  143MOL    C6328747   1.639   5.771   0.073 -0.2765  0.1972  0.5088
  143MOL   Cl6428748   1.750   5.660   0.006 -0.2512 -0.2885 -0.0658
  143MOL    C6528749   1.642   5.797   0.206  0.3316  0.5597  0.2987
  143MOL    C6628750   1.763   5.766   0.301  0.4059 -0.6769  0.8989
  143MOL    H6728751   1.461   5.723   8.393  0.7406 -0.8031  1.2660
  143MOL    H6828752   1.571   5.793   8.291 -1.2236 -0.7522 -1.0624
  143MOL    H6928753   1.558   5.848   0.250 -2.1656 -1.4847 -1.9194
  143MOL    H7028754   1.789   5.860   0.351 -1.9073  0.5889 -0.1946
  143MOL    H7128755   1.853   5.752   0.240 -0.1522 -1.4516  0.2439
  143MOL    C7228756   1.746   5.649   0.412  0.5460 -0.6486 -0.3546
  143MOL    C7328757   1.886   5.607   0.457  0.4378 -1.2582 -0.1173
  143MOL   Cl7428758   1.904   5.631   0.630 -0.0639  0.1876 -0.0087
  143MOL    C7528759   1.976   5.543   0.380  0.1124  0.6214  0.3632
  143MOL    C7628760   2.117   5.495   0.423 -0.8014  0.5601  0.4219
  143MOL    H7728761   1.706   5.554   0.375  1.1473 -1.1172  0.1872
  143MOL    H7828762   1.686   5.679   0.498 -0.5189 -0.2359 -1.2234
  143MOL    H7928763   1.956   5.529   0.275 -1.2745 -3.7730  1.1219
  143MOL    H8028764   2.164   5.559   0.498 -1.9078 -0.2473  1.8294
  143MOL    H8128765   2.165   5.504   0.326  1.1045  1.0984  1.3991
  143MOL    C8228766   2.121   5.340   0.463 -0.5264 -0.3272 -0.6221
  143MOL    C8328767   2.062   5.317   0.600  0.0845 -1.1492  0.1142
  143MOL   Cl8428768   2.183   5.352   0.714  0.1815 -0.1250 -0.2214
  143MOL    C8528769   1.943   5.263   0.633 -0.6352  0.4460  0.0415
  143MOL    C8628770   1.900   5.221   0.764  0.1201 -0.0511 -0.5389
  143MOL    H8728771   2.224   5.311   0.449 -0.3546 -0.2192  0.3530
  143MOL    H8828772   2.060   5.283   0.393 -0.7593 -1.4184  0.4561
  143MOL    H8928773   1.870   5.249   0.555  0.3633 -0.3443 -0.7630
  143MOL    H9028774   1.907   5.114   0.782  0.1496 -0.0087 -0.2951
  143MOL    H9128775   1.965   5.270   0.837 -1.9971 -0.0936  1.4387
  143MOL    C9228776   1.764   5.283   0.797  0.0628 -0.1751 -0.3982
  143MOL    C9328777   1.644   5.203   0.747 -0.3417 -0.0121 -0.6761
  143MOL   Cl9428778   1.551   5.293   0.637 -0.2109 -0.1145  0.0058
  143MOL    C9528779   1.601   5.093   0.810  0.7470  0.7994 -0.7541
  143MOL    C9628780   1.670   5.031   0.934 -0.3408 -0.4687  0.2684
  143MOL    H9728781   1.775   5.381   0.751  0.8104 -0.0219  0.0799
  143MOL    H9828782   1.759   5.305   0.904  0.1438 -0.0682 -0.4158
  143MOL    H9928783   1.515   5.037   0.777  1.9546 -0.9618 -0.9879
  143MOL   H10028784   1.701   4.930   0.909  1.6606  0.7739 -2.5972
  143MOL   H10128785   1.759   5.084   0.967 -0.2941 -0.0423 -0.5028
  143MOL   C10228786   1.588   5.020   1.060  0.0803  0.0577  0.8323
  143MOL   C10328787   1.658   4.987   1.188  0.2923  0.1049  0.5073
  143MOL  Cl10428788   1.738   5.126   1.247  0.3665 -0.0773  0.2364
  143MOL   C10528789   1.666   4.867   1.242 -0.4339  0.2993  0.0649
  143MOL   C10628790   1.742   4.835   1.373  0.2033 -0.1801 -0.3665
  143MOL   H10728791   1.546   5.119   1.073 -1.3122 -0.1529 -1.7677
  143MOL   H10828792   1.504   4.952   1.045  0.6671 -0.5349  0.1852
  143MOL   H10928793   1.615   4.789   1.188 -0.5891 -0.8363  1.7777
  143MOL   H11028794   1.736   4.923   1.438 -0.8681 -0.9098  0.5447
  143MOL   H11128795   1.693   4.762   1.437  0.4927 -0.3435 -0.3356
  143MOL   C11228796   1.884   4.788   1.350 -0.8535 -0.5364  0.4242
  143MOL   C11328797   1.975   4.796   1.475  0.1169 -0.3900 -0.5470
  143MOL  Cl11428798   2.099   4.920   1.461  0.4632 -0.3604  0.1304
  143MOL   C11528799   1.984   4.708   1.574  0.2732  0.2827 -0.0637
  143MOL   C11628800   1.901   4.581   1.596 -0.8269  0.3167 -0.3008
  143MOL   H11728801   1.883   4.693   1.298 -3.1918  0.4243 -1.4247
  143MOL   H11828802   1.928   4.850   1.271 -1.8472  1.4505  1.3748
  143MOL   H11928803   2.059   4.716   1.651 -0.6279 -0.6851  0.9416
  143MOL   H12028804   1.907   4.520   1.506 -0.5946  0.3402 -0.3013
  143MOL   H12128805   1.794   4.588   1.616 -0.3683  0.5745  2.2739
  143MOL   C12228806   1.963   4.490   1.708  0.3640 -0.3803  0.0854
  143MOL   C12328807   1.899   4.351   1.702 -0.2983  0.0800 -0.1238
  143MOL  Cl12428808   1.981   4.253   1.590  0.0047 -0.3342  0.1191
  143MOL   C12528809   1.802   4.296   1.775  0.2939  0.4564  0.2668
  143MOL   C12628810   1.726   4.357   1.891  0.4372  0.3294 -0.0304
  143MOL   H12728811   2.069   4.479   1.686  0.2262 -0.6595 -0.4375
  143MOL   H12828812   1.956   4.535   1.808 -0.2844  2.3812 -1.1384
  143MOL   H12928813   1.780   4.191   1.767  0.6449  0.3755  0.3303
  143MOL   H13028814   1.775   4.321   1.981 -0.0838  0.2219  0.2123
  143MOL   H13128815   1.741   4.465   1.892 -0.5655  0.4646  1.3935
  143MOL   C13228816   1.572   4.336   1.886  0.5347 -0.0753 -0.4074
  143MOL   C13328817   1.494   4.420   1.986  0.0215 -0.5662 -0.1082
  143MOL  Cl13428818   1.481   4.584   1.919  0.0637  0.0417  0.2948
  143MOL   C13528819   1.432   4.386   2.100 -0.1231  0.7966 -0.2163
  143MOL   C13628820   1.438   4.248   2.164 -0.2066 -0.4103 -0.0214
  143MOL   H13728821   1.544   4.365   1.785 -2.7613 -0.9087  0.2231
  143MOL   H13828822   1.552   4.231   1.907  0.3332  0.5479  2.7725
  143MOL   H13928823   1.383   4.456   2.167  1.2521 -0.2539  1.9698
  143MOL   H14028824   1.499   4.180   2.104 -0.1846  0.3723 -0.8910
  143MOL   H14128825   1.484   4.248   2.263  1.1779 -2.2539 -0.6343
  143MOL   C14228826   1.300   4.188   2.191 -0.0022  0.6170 -0.0619
  143MOL   C14328827   1.224   4.157   2.061  0.4530  0.1919  0.7881
  143MOL  Cl14428828   1.071   4.233   2.050  0.0992  0.1621  0.4056
  143MOL   C14528829   1.262   4.070   1.962 -1.2342 -0.4319 -0.0589
  143MOL   C14628830   1.199   4.028   1.828 -0.0353  0.5605  0.3050
  143MOL   H14728831   1.239   4.257   2.250 -4.6278 -1.2451 -2.3819
  143MOL   H14828832   1.316   4.092   2.241  2.6882  1.4347  0.7347
  143MOL   H14928833   1.357   4.022   1.983 -0.7163  1.2699  1.6466
  143MOL   H15028834   1.126   3.949   1.847 -1.2776  1.2852 -1.3752
  143MOL   H15128835   1.150   4.120   1.798 -2.4523 -0.7855  0.0257
  143MOL   C15228836   1.299   3.992   1.715  0.3599  0.5305  0.0102
  143MOL   C15328837   1.231   3.958   1.579 -0.4926  0.1669 -0.0773
  143MOL  Cl15428838   1.157   3.799   1.584  0.3658  0.2266 -0.0529
  143MOL   C15528839   1.231   4.046   1.478  0.6300 -0.8565  0.3332
  143MOL   C15628840   1.157   4.017   1.345  0.2868  0.4881  0.2574
  143MOL   H15728841   1.368   4.075   1.701 -0.6035  0.9724 -2.3266
  143MOL   H15828842   1.367   3.909   1.734  0.3716  0.1277 -1.7322
  143MOL   H15928843   1.281   4.141   1.492 -1.6054  0.0574  2.4433
  143MOL   H16028844   1.073   4.085   1.331 -0.4812 -0.5096 -0.0505
  143MOL   H16128845   1.114   3.917   1.345  1.8981 -0.2344  1.0147
  143MOL   C16228846   1.248   4.038   1.228  0.0615 -0.2059  0.4275
  143MOL   C16328847   1.188   4.023   1.090 -0.1182 -0.5572 -0.8971
  143MOL  Cl16428848   1.286   4.097   0.966 -0.1757 -0.2422  0.0067
  143MOL   C16528849   1.074   3.959   1.062 -0.3566  0.1422 -0.1518
  143MOL   C16628850   1.000   3.942   0.930  0.0672 -0.5038 -1.0686
  143MOL   H16728851   1.276   4.143   1.234  1.5192 -0.4996 -0.8763
  143MOL   H16828852   1.343   3.987   1.244 -0.7472 -1.8867 -0.0231
  143MOL   H16928853   1.032   3.894   1.138  0.6166 -1.9199 -1.3390
  143MOL   H17028854   0.904   3.994   0.927 -0.1059 -0.8579 -1.9449
  143MOL   H17128855   1.062   3.990   0.854  1.5688  0.5541  0.7811
  143MOL   C17228856   0.972   3.796   0.885  0.4369 -0.3544 -0.3092
  143MOL   C17328857   0.930   3.766   0.740  0.1621  0.3295 -0.2138
  143MOL  Cl17428858   1.012   3.624   0.686 -0.0504 -0.4710  0.1328
  143MOL   C17528859   0.831   3.828   0.666  0.2494 -0.3158 -0.4646
  143MOL   C17628860   0.802   3.793   0.519 -0.0022  0.2330 -0.0489
  143MOL   H17728861   0.889   3.769   0.950 -1.6754  0.3594 -2.6023
  143MOL   H17828862   1.052   3.732   0.922  2.3619  1.8393 -0.5953
  143MOL   H17928863   0.776   3.907   0.714  0.9353 -0.7129  1.0162
  143MOL   H18028864   0.801   3.686   0.496 -0.9745  0.1434  0.3821
  143MOL   H18128865   0.887   3.833   0.465  1.3387 -1.2754  0.8813
  143MOL   C18228866   0.668   3.856   0.469  0.5992 -0.9896 -0.1137
  143MOL   C18328867   0.646   3.818   0.323 -0.2389  0.5753  0.7951
  143MOL  Cl18428868   0.694   3.943   0.217  0.1286  0.3176 -0.4709
  143MOL   C18528869   0.592   3.704   0.279 -0.3277  0.2797 -0.4987
  143MOL   C18628870   0.551   3.665   0.142 -0.3794 -0.3939 -0.1070
  143MOL   H18728871   0.588   3.807   0.524  0.4074 -0.7436 -0.1650
  143MOL   H18828872   0.653   3.964   0.482 -1.7237 -1.3859  0.8688
  143MOL   H18928873   0.574   3.631   0.357  1.0970  0.9329  0.4673
  143MOL   H19028874   0.547   3.751   0.076  0.6566 -0.6002 -0.4589
  143MOL   H19128875   0.616   3.588   0.099 -0.1306 -1.1227  1.5153
  143MOL   C19228876   0.404   3.618   0.151 -0.0833  0.4923 -0.3719
  143MOL   C19328877   0.378   3.495   0.231 -0.4323  0.8674 -0.7475
  143MOL  Cl19428878   0.292   3.528   0.377  0.2203  0.5170  0.2584
  143MOL   C19528879   0.391   3.370   0.184 -0.4380  0.3248 -0.5431
  143MOL   C19628880   0.448   3.333   0.051  0.4392  0.2484 -0.5038
  143MOL   H19728881   0.378   3.591   0.048 -1.3723  0.4885 -0.0435
  143MOL   H19828882   0.331   3.694   0.174 -0.7518 -0.6824  1.4688
  143MOL   H19928883   0.359   3.293   0.253  0.0124 -0.0759 -0.7778
  143MOL   H20028884   0.366   3.282   0.001 -0.0321 -1.0458  1.5438
  143MOL   H20128885   0.530   3.263   0.067 -0.9016 -1.1100  0.5681
  143MOL   H20228886   0.491   3.407   8.404  1.2740  0.1189 -0.1225
  144MOL     C128887   2.738   7.501   7.762  0.5079 -0.5132  0.5403
  144MOL     C228888   2.674   7.598   7.667  0.5689 -0.5529  0.0260
  144MOL    Cl328889   2.785   7.663   7.550 -0.2715  0.2152  0.3740
  144MOL     C428890   2.545   7.636   7.664 -0.1214 -0.3427  0.0930
  144MOL     C528891   2.439   7.583   7.752  0.0006  0.2054 -0.3086
  144MOL     H628892   2.717   7.528   7.865 -2.5941 -1.1445  0.1350
  144MOL     H728893   2.841   7.481   7.731  1.1193  1.4614  1.2271
  144MOL     H828894   2.513   7.715   7.598 -1.4506 -2.1115 -1.4302
  144MOL     H928895   2.451   7.474   7.754 -1.5444  0.0029 -0.9793
  144MOL    H1028896   2.434   7.629   7.850 -1.5470 -2.5954  1.0070
  144MOL    H1128897   2.675   7.415   7.738 -1.3410  1.9437 -4.2338
  144MOL    C1228898   2.295   7.608   7.698  0.5054  0.9055 -0.5998
  144MOL    C1328899   2.188   7.533   7.779 -0.1287 -0.6448 -0.2368
  144MOL   Cl1428900   2.105   7.647   7.878  0.2623  0.2279  0.4205
  144MOL    C1528901   2.162   7.403   7.767  0.3443 -0.0717  0.2619
  144MOL    C1628902   2.230   7.307   7.679  0.1591 -0.4962 -0.1708
  144MOL    H1728903   2.270   7.715   7.695  1.6756  1.1519 -2.1635
  144MOL    H1828904   2.293   7.592   7.590  0.2152 -0.2777 -0.4210
  144MOL    H1928905   2.084   7.366   7.833  0.2118 -0.8215 -0.3123
  144MOL    H2028906   2.185   7.304   7.580  1.1411  1.2199 -0.6839
  144MOL    H2128907   2.330   7.347   7.664 -0.7284  0.5137 -3.9404
  144MOL    C2228908   2.232   7.166   7.736 -0.2097  0.0645  0.4484
  144MOL    C2328909   2.294   7.062   7.647 -0.7084  0.1395  0.6224
  144MOL   Cl2428910   2.407   6.968   7.737 -0.0412 -0.3831  0.2249
  144MOL    C2528911   2.285   7.054   7.514  0.0711 -0.4598  0.5621
  144MOL    C2628912   2.359   6.965   7.421 -0.3156 -0.2949 -0.0197
  144MOL    H2728913   2.272   7.178   7.837 -0.7307  1.2797  0.5294
  144MOL    H2828914   2.128   7.136   7.749  0.0890 -0.1452  2.6143
  144MOL    H2928915   2.211   7.115   7.465 -0.2822  0.3460  2.0591
  144MOL    H3028916   2.406   6.877   7.465  1.0200 -0.8682 -2.4890
  144MOL    H3128917   2.295   6.914   7.349  2.2946 -0.7753 -2.0807
  144MOL    C3228918   2.463   7.054   7.351 -0.3496  0.1856  0.1598
  144MOL    C3328919   2.578   7.088   7.446 -0.6271 -0.6462 -0.5730
  144MOL   Cl3428920   2.577   7.251   7.494  0.0142  0.0522 -0.0717
  144MOL    C3528921   2.688   7.011   7.467  0.1259 -0.1940  0.4248
  144MOL    C3628922   2.816   7.036   7.546 -0.3932 -0.0112 -0.1257
  144MOL    H3728923   2.498   7.004   7.261  0.0911  4.5184 -2.2190
  144MOL    H3828924   2.418   7.147   7.315 -1.1137 -0.6827 -1.1473
  144MOL    H3928925   2.690   6.915   7.416  1.1450  0.3430 -0.5829
  144MOL    H4028926   2.808   7.130   7.601 -1.2149  0.9156 -1.7729
  144MOL    H4128927   2.842   6.955   7.613 -2.6234 -0.2960  0.4366
  144MOL    C4228928   2.935   7.069   7.450 -0.0251  0.4356  0.1315
  144MOL    C4328929   3.078   7.090   7.509  0.0596 -0.4646  0.0356
  144MOL   Cl4428930   3.084   7.095   7.679  0.5482  0.0893  0.1081
  144MOL    C4528931   3.187   7.125   7.435 -0.1630  0.0442 -0.4149
  144MOL    C4628932   3.188   7.132   7.286 -0.3581 -0.0583  0.2610
  144MOL    H4728933   2.955   6.979   7.392  0.1708 -0.5671  1.7086
  144MOL    H4828934   2.914   7.151   7.382  0.1228  0.9890  0.7478
  144MOL    H4928935   3.279   7.136   7.492  0.5622  0.0340 -1.5662
  144MOL    H5028936   3.084   7.133   7.252 -0.2856 -0.8864  0.0222
  144MOL    H5128937   3.238   7.225   7.257 -0.6923 -0.1257 -0.5615
  144MOL    C5228938   3.283   7.018   7.237  0.5262 -0.0749  0.4185
  144MOL    C5328939   3.290   6.994   7.087  0.0402  0.6864  0.1614
  144MOL   Cl5428940   3.299   6.834   7.037  0.3713 -0.4421  0.3864
  144MOL    C5528941   3.332   7.097   7.008 -0.3464  0.4237  0.2247
  144MOL    C5628942   3.369   7.089   6.858  0.1301  0.0737 -0.2707
  144MOL    H5728943   3.388   7.032   7.260  1.7968 -1.0105 -4.2351
  144MOL    H5828944   3.245   6.924   7.279  1.4486 -0.4818  0.3569
  144MOL    H5928945   3.347   7.197   7.046 -2.5445  0.2974  1.5027
  144MOL    H6028946   3.476   7.109   6.850 -0.0955  2.1992  1.5456
  144MOL    H6128947   3.372   6.985   6.826  1.1262 -0.0533  0.2119
  144MOL    C6228948   3.296   7.178   6.763 -0.3122 -0.7465  0.5106
  144MOL    C6328949   3.346   7.185   6.620 -0.0621 -0.2079 -0.3412
  144MOL   Cl6428950   3.241   7.269   6.521 -0.4014 -0.2438 -0.4842
  144MOL    C6528951   3.447   7.111   6.566 -0.0497  0.0485 -0.3818
  144MOL    C6628952   3.485   7.116   6.415 -0.0332  0.1133  0.0447
  144MOL    H6728953   3.198   7.132   6.752 -1.1397  1.0978 -0.0271
  144MOL    H6828954   3.289   7.279   6.803  1.1555 -0.2771 -0.3877
  144MOL    H6928955   3.503   7.042   6.628  2.0335  1.4948 -0.5750
  144MOL    H7028956   3.584   7.160   6.415  0.7936 -1.7246  0.1589
  144MOL    H7128957   3.429   7.184   6.349  0.3497 -1.8536 -2.3844
  144MOL    C7228958   3.473   6.980   6.349  0.3660  0.3626  0.0115
  144MOL    C7328959   3.523   6.972   6.203  0.1925  0.4719 -0.2521
  144MOL   Cl7428960   3.449   7.096   6.109 -0.1226 -0.1192  0.0862
  144MOL    C7528961   3.621   6.893   6.158 -0.0730 -0.3212 -0.3250
  144MOL    C7628962   3.660   6.896   6.022  1.1130 -0.0815 -0.7796
  144MOL    H7728963   3.378   6.928   6.361  0.3270  0.6823  1.1478
  144MOL    H7828964   3.538   6.907   6.399  0.0219  0.9008  1.2670
  144MOL    H7928965   3.675   6.832   6.229 -0.8442 -1.3528 -0.6198
  144MOL    H8028966   3.697   6.996   6.000 -0.0782 -0.1989 -3.6649
  144MOL    H8128967   3.567   6.888   5.965  1.1437 -1.8899 -0.5898
  144MOL    C8228968   3.757   6.784   5.978  0.2727 -0.0834  0.0672
  144MOL    C8328969   3.783   6.795   5.827  0.4432 -0.0632  0.4646
  144MOL   Cl8428970   3.723   6.657   5.740  0.4143 -0.2446  0.4106
  144MOL    C8528971   3.826   6.907   5.757  0.0652 -0.1687  0.2453
  144MOL    C8628972   3.830   6.938   5.602  0.6363  0.4997 -0.0916
  144MOL    H8728973   3.719   6.685   6.001  0.0993  0.0297  0.2711
  144MOL    H8828974   3.859   6.805   6.013 -0.0358  1.4975  0.0888
  144MOL    H8928975   3.854   6.991   5.819 -2.2091  1.3217 -0.6682
  144MOL    H9028976   3.808   6.851   5.540  0.3247  0.2627  0.3488
  144MOL    H9128977   3.763   7.015   5.565 -1.8869 -0.9930  1.1476
  144MOL    C9228978   3.966   6.967   5.552 -0.4115 -0.2348 -0.3414
  144MOL    C9328979   3.963   7.071   5.445 -0.6081 -0.5154 -0.4086
  144MOL   Cl9428980   3.942   7.003   5.287 -0.3625  0.0167 -0.1460
  144MOL    C9528981   3.979   7.199   5.460 -0.6395 -0.1749 -0.0885
  144MOL    C9628982   3.992   7.263   5.592 -1.1948  0.2993 -0.0487
  144MOL    H9728983   4.022   6.878   5.525 -0.8132 -0.4128 -0.5837
  144MOL    H9828984   4.020   7.016   5.634 -0.2061  0.5769 -0.9541
  144MOL    H9928985   3.981   7.261   5.372 -1.8885 -0.1134 -0.0760
  144MOL   H10028986   3.960   7.367   5.591 -1.0412  0.3547  0.8869
  144MOL   H10128987   3.935   7.212   5.669  1.4292 -1.3843  0.8386
  144MOL   C10228988   4.135   7.267   5.642  0.7768 -0.0552 -0.1697
  144MOL   C10328989   4.149   7.338   5.775 -0.3802  0.3300  0.0356
  144MOL  Cl10428990   4.033   7.268   5.886 -0.4622  0.2093 -0.2465
  144MOL   C10528991   4.247   7.419   5.814  0.4877  0.1360 -0.2210
  144MOL   C10628992   4.268   7.488   5.951  0.1414  0.5707  0.9519
  144MOL   H10728993   4.179   7.174   5.678 -0.6280 -0.9318 -0.7080
  144MOL   H10828994   4.204   7.323   5.579  0.7094  2.9997  2.3163
  144MOL   H10928995   4.316   7.447   5.735 -1.7635  2.9014 -1.2805
  144MOL   H11028996   4.190   7.460   6.023 -2.7491  3.3387 -0.9717
  144MOL   H11128997   4.366   7.451   5.983 -0.5878  0.7984  3.6081
  144MOL   C11228998   4.282   7.636   5.961 -0.2232 -0.0931 -0.1988
  144MOL   C11328999   4.308   7.703   6.096 -0.8379 -0.3176  0.2656
  144MOL  Cl11429000   4.175   7.735   6.196 -0.0568 -0.0720  0.1898
  144MOL   C11529001   4.428   7.741   6.138 -0.3048 -0.5642  0.1142
  144MOL   C11629002   4.566   7.728   6.066 -0.2670 -0.0959  0.0762
  144MOL   H11729003   4.348   7.679   5.886  0.0334  0.2403  0.2169
  144MOL   H11829004   4.186   7.684   5.944 -0.2916  0.2010  0.9864
  144MOL   H11929005   4.433   7.777   6.239 -0.7471 -0.8165  0.2275
  144MOL   H12029006   4.553   7.682   5.968 -0.7559 -1.4607  0.7643
  144MOL   H12129007   4.610   7.637   6.106 -2.4696 -0.8776  0.7901
  144MOL   C12229008   4.649   7.851   6.075  0.0160  0.4110 -0.8367
  144MOL   C12329009   4.792   7.832   6.014 -0.4993 -0.3223 -0.1983
  144MOL  Cl12429010   4.898   7.781   6.137 -0.4668 -0.2134  0.0852
  144MOL   C12529011   4.830   7.870   5.891 -0.0968 -0.1473 -0.0332
  144MOL   C12629012   4.750   7.927   5.781  0.4692 -0.5608  0.5407
  144MOL   H12729013   4.601   7.937   6.028 -0.0969  0.6774 -0.2270
  144MOL   H12829014   4.657   7.882   6.179  1.9941 -0.2829 -0.7505
  144MOL   H12929015   4.935   7.857   5.868  0.5739  2.1790  1.4735
  144MOL   H13029016   4.643   7.926   5.801  0.2900 -1.8455 -0.3292
  144MOL   H13129017   4.785   8.029   5.788  1.5758 -0.8728 -0.2194
  144MOL   C13229018   4.773   7.854   5.644 -0.2059 -0.6104 -0.5936
  144MOL   C13329019   4.716   7.938   5.529 -0.4661 -0.8089 -0.3919
  144MOL  Cl13429020   4.602   7.851   5.432  0.0764  0.1704 -0.2123
  144MOL   C13529021   4.784   8.051   5.482  0.8281  0.3658  0.0607
  144MOL   C13629022   4.903   8.120   5.544 -0.0871 -0.3252 -0.2816
  144MOL   H13729023   4.877   7.841   5.613  0.3937 -0.8028  1.4658
  144MOL   H13829024   4.732   7.755   5.657 -1.0557 -0.2386 -0.4341
  144MOL   H13929025   4.754   8.104   5.393 -1.7279  0.1056  0.7145
  144MOL   H14029026   4.931   8.077   5.641 -2.1209 -0.8180  0.1075
  144MOL   H14129027   4.980   8.085   5.476 -2.0792 -0.8484 -2.3105
  144MOL   C14229028   4.885   8.273   5.550 -0.4181  0.2078  0.0086
  144MOL   C14329029   5.016   8.336   5.597  0.2018  0.3611 -0.1412
  144MOL  Cl14429030   5.001   8.378   5.763 -0.0071 -0.0600  0.4540
  144MOL   C14529031   5.118   8.359   5.510  0.0024 -0.5398 -0.1537
  144MOL   C14629032   5.249   0.012   5.545 -0.1675 -0.1891  0.3410
  144MOL   H14729033   4.801   8.283   5.619 -0.8935  0.0960 -0.5437
  144MOL   H14829034   4.841   8.325   5.465  0.3493  2.1956  0.7871
  144MOL   H14929035   5.109   8.331   5.406  1.0234  0.8842 -0.6394
  144MOL   H15029036   5.291   0.055   5.454  2.0974 -5.0450 -1.0496
  144MOL   H15129037   5.238   0.097   5.612  0.6802  0.8721 -0.8355
  144MOL   C15229038   5.363   8.338   5.596 -0.0983  0.2033 -0.2017
  144MOL   C15329039   5.483   8.409   5.653  0.3267  0.2960  0.0039
  144MOL  Cl15429040   5.492   8.348   5.810  0.1195  0.0366 -0.0493
  144MOL   C15529041   5.553   0.084   5.591  1.1932  0.5685 -1.1974
  144MOL   C15629042   5.670   0.161   5.643  0.1377  0.6411  0.4205
  144MOL   H15729043   5.322   8.265   5.667  2.6639 -1.0325  0.1665
  144MOL   H15829044   5.392   8.266   5.520  0.1977 -0.9054  0.9447
  144MOL   H15929045   5.512   0.101   5.493 -1.6899  0.2080 -0.0976
  144MOL   H16029046   5.706   0.112   5.733  2.0974 -0.4738 -0.9255
  144MOL   H16129047   5.637   0.261   5.671 -0.5518  0.8781 -1.2041
  144MOL   C16229048   5.787   0.161   5.550 -0.2554  0.3985  0.1720
  144MOL   C16329049   5.919   0.205   5.607 -0.2301  0.5697 -0.2313
  144MOL  Cl16429050   6.049   0.150   5.511  0.0593  0.0589 -0.6987
  144MOL   C16529051   5.923   0.282   5.717  0.0864  0.2773 -0.8841
  144MOL   C16629052   6.047   0.338   5.786 -0.5852  0.3192 -0.5289
  144MOL   H16729053   5.792   0.066   5.497  2.3302 -0.8677  2.5253
  144MOL   H16829054   5.770   0.225   5.463 -1.8367 -0.4091 -0.1275
  144MOL   H16929055   5.828   0.311   5.760 -0.2624 -2.4340  0.2800
  144MOL   H17029056   6.124   0.361   5.712  1.9201 -4.1841  0.5058
  144MOL   H17129057   6.030   0.434   5.835 -2.3182  0.4839 -1.4310
  144MOL   C17229058   6.116   0.237   5.881 -0.5071  0.5302 -0.4008
  144MOL   C17329059   6.206   0.308   5.977  0.1349 -0.3224 -0.6420
  144MOL  Cl17429060   6.184   0.247   6.141  0.1858  0.0320  0.6805
  144MOL   C17529061   6.298   0.408   5.951  0.3490 -0.0805 -0.0133
  144MOL   C17629062   6.383   0.476   6.062 -0.1599 -0.2542 -0.5743
  144MOL   H17729063   6.184   0.163   5.838  0.0738  0.7427  0.1417
  144MOL   H17829064   6.030   0.186   5.925 -1.3752  0.7231 -1.8303
  144MOL   H17929065   6.304   0.438   5.847  0.0013 -0.9241 -0.2841
  144MOL   H18029066   6.463   0.406   6.083 -0.7295 -0.8075 -0.2412
  144MOL   H18129067   6.326   0.496   6.153 -0.3864 -1.0486 -0.5366
  144MOL   C18229068   6.438   0.611   6.016  0.4424  0.2315 -0.3426
  144MOL   C18329069   6.329   0.710   6.019  0.1408  0.3457 -0.3776
  144MOL  Cl18429070   6.230   0.695   5.878 -0.2309  0.2194 -0.4177
  144MOL   C18529071   6.308   0.800   6.117  0.5367 -0.8607 -0.1230
  144MOL   C18629072   6.207   0.906   6.116  0.0931 -0.8632 -0.5728
  144MOL   H18729073   6.526   0.639   6.074 -0.7559 -1.0582  2.2201
  144MOL   H18829074   6.481   0.610   5.916  1.3782  1.9996  0.0212
  144MOL   H18929075   6.365   0.801   6.209 -1.6770 -0.4752  1.2961
  144MOL   H19029076   6.264   0.995   6.144 -1.6056  0.5469 -1.4896
  144MOL   H19129077   6.160   0.922   6.019 -0.5135 -2.4150 -0.5398
  144MOL   C19229078   6.095   0.883   6.216  0.5773  0.1160 -0.4631
  144MOL   C19329079   5.999   1.000   6.232  0.0361  0.0254  0.4966
  144MOL  Cl19429080   5.904   1.015   6.093  0.4448 -0.1517 -0.2915
  144MOL   C19529081   6.000   1.094   6.332 -0.8406  0.2907 -0.5959
  144MOL   C19629082   6.087   1.094   6.451 -0.5949 -0.4542 -1.2487
  144MOL   H19729083   6.130   0.860   6.317 -2.2119  0.7674  0.7220
  144MOL   H19829084   6.047   0.795   6.173  0.9738  0.6104 -1.9426
  144MOL   H19929085   5.934   1.179   6.325 -0.2308  0.7569 -0.6993
  144MOL   H20029086   6.166   1.020   6.453  1.5129  1.7385 -0.9632
  144MOL   H20129087   6.016   1.087   6.534  0.3526 -0.9034 -0.4690
  144MOL   H20229088   6.135   1.192   6.455 -1.9395  0.2039 -0.6405
  145MOL     C129089   1.814   2.575   6.375 -0.2562 -0.1415 -0.9854
  145MOL     C229090   1.776   2.518   6.511 -0.3602 -0.6282  0.2813
  145MOL    Cl329091   1.882   2.397   6.572  0.1346  0.0133  0.0808
  145MOL     C429092   1.662   2.548   6.578  0.8657  0.0218  0.3906
  145MOL     C529093   1.552   2.636   6.523 -0.1002 -0.0596 -0.3963
  145MOL     H629094   1.811   2.684   6.383  0.6816 -0.2373  0.7702
  145MOL     H729095   1.742   2.547   6.298  0.3244  0.1162 -1.6305
  145MOL     H829096   1.643   2.514   6.679  1.2436  0.1949  0.5251
  145MOL     H929097   1.539   2.711   6.601 -0.0246 -2.4186  1.9388
  145MOL    H1029098   1.587   2.689   6.434 -1.0654  1.2481 -0.0132
  145MOL    H1129099   1.912   2.542   6.343  0.6363  0.9092  0.6014
  145MOL    C1229100   1.424   2.559   6.482  0.0320 -0.0656  0.8845
  145MOL    C1329101   1.324   2.650   6.427 -0.1353 -0.2108 -0.0824
  145MOL   Cl1429102   1.229   2.704   6.562  0.3182 -0.2228 -0.0649
  145MOL    C1529103   1.300   2.693   6.305  0.2857  0.0070 -0.5421
  145MOL    C1629104   1.377   2.655   6.185 -0.2465  0.2886  0.0877
  145MOL    H1729105   1.451   2.489   6.403 -0.9395  0.7116 -0.1559
  145MOL    H1829106   1.379   2.506   6.565 -3.8407  2.0163  0.2363
  145MOL    H1929107   1.220   2.766   6.298  1.6663  1.6994  0.6351
  145MOL    H2029108   1.479   2.638   6.219  0.2485  0.6271 -1.1830
  145MOL    H2129109   1.342   2.557   6.153  1.0200 -0.1000 -0.1544
  145MOL    C2229110   1.393   2.769   6.076  0.6226  0.6047  0.1166
  145MOL    C2329111   1.488   2.716   5.969 -0.4963 -0.1628 -0.9639
  145MOL   Cl2429112   1.659   2.731   6.001 -0.2452  0.3052  0.2330
  145MOL    C2529113   1.446   2.673   5.849 -0.0811  0.1271  0.2752
  145MOL    C2629114   1.528   2.616   5.734  0.4395  0.4047  0.1759
  145MOL    H2729115   1.300   2.783   6.022  1.8621 -0.0196 -2.2631
  145MOL    H2829116   1.430   2.863   6.117 -1.3111  0.9006  1.2356
  145MOL    H2929117   1.340   2.673   5.828 -0.1241 -2.2045  0.4228
  145MOL    H3029118   1.469   2.632   5.644  1.8643  2.8158 -0.3505
  145MOL    H3129119   1.625   2.662   5.719 -0.1049  1.0708 -1.4238
  145MOL    C3229120   1.538   2.459   5.764 -0.0732 -0.5315  0.4061
  145MOL    C3329121   1.557   2.365   5.644  0.1237 -0.5407 -0.3021
  145MOL   Cl3429122   1.631   2.212   5.694  0.6005 -0.2653  0.3445
  145MOL    C3529123   1.499   2.383   5.524 -0.1895  0.3250  0.5057
  145MOL    C3629124   1.514   2.293   5.397  0.7394 -0.6199 -0.6051
  145MOL    H3729125   1.618   2.446   5.837 -0.3682  0.3332  0.8887
  145MOL    H3829126   1.444   2.424   5.807  0.3245 -1.8245  0.2554
  145MOL    H3929127   1.437   2.469   5.504 -1.2269 -0.4368  0.4121
  145MOL    H4029128   1.582   2.336   5.323 -0.0239 -0.8584 -1.4455
  145MOL    H4129129   1.569   2.202   5.420  1.4853 -0.4507 -1.6415
  145MOL    C4229130   1.388   2.247   5.320  0.2845 -0.3712 -0.0852
  145MOL    C4329131   1.425   2.138   5.213  0.0067 -0.0389 -0.4299
  145MOL   Cl4429132   1.447   2.207   5.048  0.0371 -0.2832  0.0133
  145MOL    C4529133   1.429   2.000   5.228 -0.0451 -0.1606  0.7308
  145MOL    C4629134   1.398   1.924   5.362 -0.3932  0.5100 -0.0325
  145MOL    H4729135   1.316   2.212   5.394  0.5362 -1.5366 -0.3850
  145MOL    H4829136   1.334   2.330   5.275 -1.3853 -0.8829  0.9123
  145MOL    H4929137   1.458   1.941   5.142 -2.7093  1.1533 -1.1232
  145MOL    H5029138   1.396   1.990   5.449 -0.5414 -0.6519  0.8605
  145MOL    H5129139   1.293   1.900   5.343  0.2693  0.2059 -3.5350
  145MOL    C5229140   1.487   1.794   5.383  0.3711  0.0141 -0.6674
  145MOL    C5329141   1.594   1.812   5.478 -0.3681  0.2435  0.1741
  145MOL   Cl5429142   1.565   1.749   5.631 -0.3982  0.1581 -0.2786
  145MOL    C5529143   1.718   1.859   5.439 -0.0601 -0.5178 -0.4374
  145MOL    C5629144   1.840   1.846   5.531  0.1143 -1.3687 -0.4227
  145MOL    H5729145   1.425   1.708   5.409  1.5477 -0.8993 -0.8866
  145MOL    H5829146   1.538   1.779   5.288  2.2953  1.5389  0.0953
  145MOL    H5929147   1.738   1.895   5.339 -0.3717  1.2628  0.1246
  145MOL    H6029148   1.817   1.906   5.620  1.1134 -2.0473  0.2952
  145MOL    H6129149   1.843   1.741   5.558 -0.8088 -1.1959  0.3831
  145MOL    C6229150   1.981   1.877   5.463 -0.0269  0.0115  0.5625
  145MOL    C6329151   2.095   1.885   5.562  0.5720 -0.0012 -0.6240
  145MOL   Cl6429152   2.163   1.728   5.575  0.1774 -0.1664 -0.2789
  145MOL    C6529153   2.146   1.999   5.611 -0.1212 -0.4735  0.1069
  145MOL    C6629154   2.261   2.010   5.709 -0.4275  0.0454 -0.4576
  145MOL    H6729155   2.013   1.794   5.399  2.0302  0.8791  0.4202
  145MOL    H6829156   1.980   1.962   5.396  2.4440 -0.3370  0.0291
  145MOL    H6929157   2.113   2.099   5.588  1.2687  0.2682  1.2147
  145MOL    H7029158   2.341   2.065   5.659 -1.5527  1.5652 -0.6060
  145MOL    H7129159   2.296   1.908   5.729  0.1710  0.3276 -0.0573
  145MOL    C7229160   2.224   2.087   5.834 -0.1326 -0.2057  0.1605
  145MOL    C7329161   2.188   2.229   5.813 -0.3319 -0.1344 -0.1785
  145MOL   Cl7429162   2.015   2.246   5.785 -0.3364 -0.2162  0.0132
  145MOL    C7529163   2.265   2.338   5.834 -0.2741  0.4961  0.5448
  145MOL    C7629164   2.213   2.477   5.835  0.6974  0.2262 -0.1311
  145MOL    H7729165   2.311   2.078   5.899  0.2041 -0.0559 -0.2606
  145MOL    H7829166   2.144   2.036   5.887  1.4741 -0.5480  2.3118
  145MOL    H7929167   2.370   2.322   5.852 -1.0601 -2.4694  2.8186
  145MOL    H8029168   2.106   2.485   5.814  0.6074  0.9485  0.5720
  145MOL    H8129169   2.255   2.523   5.745  2.5534 -1.5109 -0.2083
  145MOL    C8229170   2.253   2.554   5.960  0.6630  0.5878 -0.1667
  145MOL    C8329171   2.165   2.680   5.975 -0.8529 -0.6768 -0.4266
  145MOL   Cl8429172   2.050   2.642   6.096 -0.4060  0.1590 -0.2652
  145MOL    C8529173   2.183   2.804   5.917  0.0431  0.2125 -0.0591
  145MOL    C8629174   2.101   2.921   5.953 -0.1081  0.1974 -0.4440
  145MOL    H8729175   2.357   2.586   5.951  0.6807  0.1344 -1.6919
  145MOL    H8829176   2.228   2.484   6.039 -0.5844  0.6595 -0.4828
  145MOL    H8929177   2.262   2.813   5.844  0.0718  1.0364  0.0725
  145MOL    H9029178   2.036   2.947   5.870 -1.3805  1.9096  1.0534
  145MOL    H9129179   2.034   2.897   6.035  1.2202 -1.9730  0.0350
  145MOL    C9229180   2.196   3.033   5.985  0.1751 -0.3873  0.4357
  145MOL    C9329181   2.121   3.162   6.013 -0.6766 -0.0782  0.0304
  145MOL   Cl9429182   2.017   3.148   6.150 -0.3080 -0.0607 -0.4897
  145MOL    C9529183   2.125   3.272   5.942  0.0111 -0.4246  0.5410
  145MOL    C9629184   2.204   3.295   5.815  0.5133  0.7106  0.5316
  145MOL    H9729185   2.268   3.054   5.907  0.8244  0.5846  1.2716
  145MOL    H9829186   2.241   3.005   6.080 -3.1673 -0.9157  1.9454
  145MOL    H9929187   2.062   3.348   5.986 -1.2066 -1.0688 -0.0401
  145MOL   H10029188   2.249   3.203   5.779  3.2803  2.6273 -1.1212
  145MOL   H10129189   2.130   3.317   5.738  0.3719 -1.1407  0.1235
  145MOL   C10229190   2.304   3.409   5.835 -0.2249 -0.1116 -0.0329
  145MOL   C10329191   2.412   3.416   5.720  0.0939 -0.0638  0.5623
  145MOL  Cl10429192   2.407   3.555   5.620 -0.0912  0.0546  0.0936
  145MOL   C10529193   2.514   3.328   5.709  0.3614 -0.3829 -0.3081
  145MOL   C10629194   2.613   3.328   5.604 -0.3954  0.4420 -0.3018
  145MOL   H10729195   2.249   3.501   5.852  1.2868  0.6980  0.5481
  145MOL   H10829196   2.355   3.387   5.929 -2.1061 -0.3514  0.9446
  145MOL   H10929197   2.536   3.246   5.775 -1.3497 -2.1495 -1.8970
  145MOL   H11029198   2.607   3.230   5.556 -1.2063  0.3998 -0.1218
  145MOL   H11129199   2.596   3.399   5.524 -3.1601 -1.4048 -1.4199
  145MOL   C11229200   2.750   3.347   5.667 -0.5682  0.5900  0.7211
  145MOL   C11329201   2.853   3.399   5.559  0.7589 -0.4594  0.5083
  145MOL  Cl11429202   2.945   3.270   5.485 -0.0300 -0.1357 -0.2243
  145MOL   C11529203   2.872   3.529   5.527  0.0547  0.6873 -0.5966
  145MOL   C11629204   2.802   3.653   5.589  0.2838 -0.0673  0.1351
  145MOL   H11729205   2.754   3.429   5.738  3.4548  0.9359  0.2190
  145MOL   H11829206   2.789   3.251   5.701 -1.3697  0.4870  1.3562
  145MOL   H11929207   2.944   3.550   5.449 -1.0976 -0.0667 -1.8741
  145MOL   H12029208   2.876   3.700   5.654  0.4310 -2.3744  1.7015
  145MOL   H12129209   2.714   3.624   5.646  0.0044  1.3917  0.4775
  145MOL   C12229210   2.742   3.749   5.485  0.8943  0.6497  1.3264
  145MOL   C12329211   2.663   3.872   5.534  0.2089 -0.6032  0.2994
  145MOL  Cl12429212   2.501   3.871   5.491 -0.2874  0.1092  0.2975
  145MOL   C12529213   2.720   3.979   5.593  0.9138 -0.2466  0.4400
  145MOL   C12629214   2.864   4.005   5.625  0.4308  0.0563 -0.2286
  145MOL   H12729215   2.819   3.781   5.415  0.3629 -0.4322  0.2228
  145MOL   H12829216   2.684   3.683   5.420  2.8980  0.6459 -0.5029
  145MOL   H12929217   2.654   4.060   5.619  2.4429  0.2531  2.9641
  145MOL   H13029218   2.876   3.972   5.728 -2.1460 -0.7890 -0.1473
  145MOL   H13129219   2.925   3.934   5.571  1.3378  0.6587 -0.0104
  145MOL   C13229220   2.902   4.152   5.599 -0.1354  0.4199  0.1961
  145MOL   C13329221   3.029   4.189   5.679 -0.0371  0.4064 -0.2514
  145MOL  Cl13429222   2.993   4.303   5.800 -0.1156  0.1845 -0.1671
  145MOL   C13529223   3.153   4.140   5.664  0.6147 -0.3892 -0.4302
  145MOL   C13629224   3.191   4.042   5.555 -0.2647  0.0191  0.4902
  145MOL   H13729225   2.924   4.178   5.495 -0.3828 -0.6362 -0.1234
  145MOL   H13829226   2.824   4.225   5.622  0.0827  0.7264 -0.0183
  145MOL   H13929227   3.236   4.166   5.728 -0.9918  0.3046  1.4335
  145MOL   H14029228   3.232   3.956   5.606 -2.1857 -0.4684  1.2778
  145MOL   H14129229   3.098   4.008   5.509  0.2926 -1.1527  0.2002
  145MOL   C14229230   3.302   4.092   5.466 -0.1842 -0.2534  0.2826
  145MOL   C14329231   3.328   4.008   5.350 -0.4390  0.1426 -0.4271
  145MOL  Cl14429232   3.289   3.839   5.368  0.5481 -0.0603 -0.1090
  145MOL   C14529233   3.388   4.055   5.243  0.1112  0.4330  0.4373
  145MOL   C14629234   3.421   3.991   5.114  0.1409  0.0623 -0.3760
  145MOL   H14729235   3.393   4.101   5.527 -1.0047  0.3778  1.4390
  145MOL   H14829236   3.269   4.190   5.432 -1.3832 -0.5949  0.4380
  145MOL   H14929237   3.409   4.161   5.237  1.0058  0.3371  1.7545
  145MOL   H15029238   3.360   3.901   5.105 -1.8143  1.4941 -1.8339
  145MOL   H15129239   3.384   4.050   5.030 -1.2221 -2.3330 -1.5216
  145MOL   C15229240   3.564   3.941   5.098 -0.1796 -0.4965 -0.3294
  145MOL   C15329241   3.648   4.056   5.046 -0.2057 -0.1621  0.8055
  145MOL  Cl15429242   3.674   4.024   4.885 -0.2020  0.0997  0.1985
  145MOL   C15529243   3.710   4.154   5.116  0.6076  0.1837 -0.3068
  145MOL   C15629244   3.799   4.266   5.068  0.2318  0.1209 -0.1664
  145MOL   H15729245   3.610   3.907   5.190 -0.6907 -0.3685 -0.0207
  145MOL   H15829246   3.565   3.861   5.024 -0.2062  1.1417 -2.1290
  145MOL   H15929247   3.690   4.157   5.222 -1.1048 -0.5625 -0.5942
  145MOL   H16029248   3.765   4.368   5.086 -3.5258 -0.9368 -0.8379
  145MOL   H16129249   3.805   4.249   4.961 -2.4607  0.0654 -0.3351
  145MOL   C16229250   3.944   4.243   5.112 -0.0792  0.3845 -0.1705
  145MOL   C16329251   4.024   4.369   5.079  0.2861 -0.1621 -0.0968
  145MOL  Cl16429252   4.079   4.347   4.912  0.0445  0.0130 -0.2661
  145MOL   C16529253   4.033   4.485   5.153 -0.2711  0.1360  0.7814
  145MOL   C16629254   4.108   4.608   5.101  0.3510  1.2234 -0.1409
  145MOL   H16729255   3.964   4.214   5.215  4.3269  0.5949 -0.8554
  145MOL   H16829256   4.006   4.170   5.060  1.0023  0.7580  0.5719
  145MOL   H16929257   3.988   4.473   5.250 -2.7129  1.1839 -0.1936
  145MOL   H17029258   4.131   4.664   5.192 -3.0267 -0.9861  2.2373
  145MOL   H17129259   4.199   4.578   5.049  1.1149 -1.3565  2.4988
  145MOL   C17229260   4.025   4.691   4.993 -0.0404  0.5692 -0.5069
  145MOL   C17329261   4.085   4.824   4.954 -0.7072  0.5959  0.2290
  145MOL  Cl17429262   3.992   4.917   4.845 -0.3074  0.1336  0.3012
  145MOL   C17529263   4.196   4.878   5.009  0.2385  0.8740  0.4922
  145MOL   C17629264   4.255   5.010   4.987  0.0990  0.8312 -0.1163
  145MOL   H17729265   3.932   4.737   5.030  0.8283  0.9712  1.2595
  145MOL   H17829266   3.992   4.627   4.912 -0.3180 -0.9879  0.8068
  145MOL   H17929267   4.250   4.816   5.078 -0.9480 -1.9966 -1.1022
  145MOL   H18029268   4.204   5.076   4.916  2.8427  1.3945 -1.6387
  145MOL   H18129269   4.350   4.979   4.943 -1.8386 -4.0732 -1.1860
  145MOL   C18229270   4.294   5.075   5.124 -0.5437 -0.1899 -0.0647
  145MOL   C18329271   4.416   5.168   5.115  0.1892 -0.8468 -0.0234
  145MOL  Cl18429272   4.374   5.325   5.056  0.1796 -0.1407  0.1798
  145MOL   C18529273   4.547   5.129   5.119 -0.1564 -0.1575  0.5469
  145MOL   C18629274   4.666   5.221   5.103  0.7489 -0.6538 -0.0665
  145MOL   H18729275   4.214   5.137   5.165 -1.1357  0.6904 -2.4590
  145MOL   H18829276   4.329   5.006   5.200 -2.5070 -0.3634  0.7172
  145MOL   H18929277   4.575   5.027   5.142 -0.5810 -0.4193 -0.0809
  145MOL   H19029278   4.748   5.173   5.049  0.7040 -1.5090  0.6343
  145MOL   H19129279   4.640   5.304   5.037  2.1547 -0.0162  0.1617
  145MOL   C19229280   4.718   5.265   5.243  0.7749  0.4565  0.1960
  145MOL   C19329281   4.814   5.381   5.241 -0.5119  0.0263  0.4574
  145MOL  Cl19429282   4.735   5.533   5.272  0.0990  0.3224  0.2934
  145MOL   C19529283   4.948   5.375   5.245 -0.1461  0.3047 -0.6438
  145MOL   C19629284   5.033   5.252   5.248  0.0737  0.0490  0.8730
  145MOL   H19729285   4.764   5.180   5.293 -1.4462 -0.8298  0.0697
  145MOL   H19829286   4.640   5.303   5.310  0.8607  2.2604 -0.7006
  145MOL   H19929287   5.009   5.464   5.251  0.5047 -0.0971 -1.2975
  145MOL   H20029288   5.094   5.280   5.162 -1.2529  1.6448  0.4280
  145MOL   H20129289   4.979   5.160   5.228 -0.6989  0.1388  2.5441
  145MOL   H20229290   5.086   5.236   5.342 -2.4204 -0.8720  2.1445
  146MOL     C129291   6.826   2.282   0.407 -0.1194 -0.2274  0.6227
  146MOL     C229292   6.761   2.290   0.544  1.3885  0.1201  0.5907
  146MOL    Cl329293   6.707   2.447   0.575 -0.0923  0.4223 -0.3334
  146MOL     C429294   6.734   2.182   0.624 -0.0209 -0.4328  0.4309
  146MOL     C529295   6.777   2.036   0.604  0.2658 -0.3991 -0.5136
  146MOL     H629296   6.855   2.376   0.361 -0.9000 -1.7919 -3.2839
  146MOL     H729297   6.749   2.233   0.346 -0.0605  1.9777 -1.2996
  146MOL     H829298   6.682   2.204   0.717  0.6188  2.8999  0.0788
  146MOL     H929299   6.703   1.956   0.604  1.6317 -1.7344  1.3701
  146MOL    H1029300   6.821   2.030   0.504 -0.1177 -0.5074 -0.6772
  146MOL    H1129301   6.913   2.217   0.404  0.1500  0.1822 -1.3496
  146MOL    C1229302   6.891   2.000   0.692  0.3329  0.1714  0.4136
  146MOL    C1329303   6.931   1.856   0.679  0.0627  0.3616  0.0563
  146MOL   Cl1429304   6.915   1.775   0.826  0.5714  0.1910  0.2790
  146MOL    C1529305   7.007   1.799   0.584 -0.8310 -0.7662 -0.3372
  146MOL    C1629306   7.056   1.865   0.458  0.1119 -0.8992  0.4244
  146MOL    H1729307   6.991   2.033   0.667  0.1449  0.5715  0.1840
  146MOL    H1829308   6.865   2.026   0.795  0.7848  0.5583  0.4297
  146MOL    H1929309   7.044   1.698   0.590 -0.6509 -0.6084  1.5679
  146MOL    H2029310   7.050   1.971   0.483 -2.6169 -1.1707  1.0666
  146MOL    H2129311   7.162   1.857   0.434  0.1504  1.5864 -0.4021
  146MOL    C2229312   6.976   1.828   0.340 -0.3342 -0.6228 -0.3534
  146MOL    C2329313   7.020   1.909   0.218  0.0721  0.6491  0.2069
  146MOL   Cl2429314   7.144   1.840   0.131  0.2090 -0.2653  0.3801
  146MOL    C2529315   6.954   2.018   0.174  0.4189 -0.4472  0.5463
  146MOL    C2629316   6.982   2.112   0.055 -0.3768 -0.0942 -0.1844
  146MOL    H2729317   6.985   1.722   0.321  2.2321 -0.4238 -0.3197
  146MOL    H2829318   6.869   1.848   0.351  0.0730  1.7052 -0.3762
  146MOL    H2929319   6.865   2.058   0.220  0.6681  3.2230 -1.9558
  146MOL    H3029320   7.046   2.060   8.405  2.2216  1.7918  0.6843
  146MOL    H3129321   6.881   2.126   0.017 -0.6435 -0.6457  0.3123
  146MOL    C3229322   7.033   2.255   0.099 -0.1277  0.3580 -0.6446
  146MOL    C3329323   7.180   2.244   0.141 -0.0191  0.0738  0.0714
  146MOL   Cl3429324   7.271   2.246   8.417  0.1648 -0.3826 -0.1060
  146MOL    C3529325   7.223   2.223   0.267 -0.0266  0.4441  0.4293
  146MOL    C3629326   7.367   2.205   0.313  0.3410  0.8437  0.1824
  146MOL    H3729327   7.023   2.325   0.017  0.4684  0.4204 -0.6646
  146MOL    H3829328   6.985   2.304   0.185  1.2922  1.7696 -0.6418
  146MOL    H3929329   7.154   2.215   0.349 -0.8916 -1.1484 -0.4395
  146MOL    H4029330   7.432   2.184   0.228  0.8201 -1.6041  1.1025
  146MOL    H4129331   7.394   2.300   0.360 -0.2234  1.0492  0.0930
  146MOL    C4229332   7.391   2.089   0.418 -0.4008  0.1006  0.3862
  146MOL    C4329333   7.540   2.064   0.439  0.4611  0.2619 -0.6726
  146MOL   Cl4429334   7.580   1.927   0.342 -0.0113  0.1837 -0.2026
  146MOL    C4529335   7.624   2.131   0.519  0.3906 -0.0393 -0.0029
  146MOL    C4629336   7.586   2.252   0.592  0.8382  0.4893 -0.5600
  146MOL    H4729337   7.333   2.112   0.507  0.4008 -1.3374  1.3056
  146MOL    H4829338   7.351   1.992   0.388 -2.1823  0.9580 -0.0831
  146MOL    H4929339   7.728   2.104   0.526  0.5651  0.2080 -1.4125
  146MOL    H5029340   7.481   2.271   0.571  0.1317 -3.0920 -0.4861
  146MOL    H5129341   7.597   2.223   0.696 -0.5216 -1.4511 -0.9352
  146MOL    C5229342   7.675   2.374   0.564 -0.4347  0.5672  0.1082
  146MOL    C5329343   7.622   2.494   0.642  0.1367 -0.5939 -0.4242
  146MOL   Cl5429344   7.683   2.491   0.806 -0.3997 -0.1058  0.0472
  146MOL    C5529345   7.560   2.596   0.580 -0.7879  0.4138  0.1351
  146MOL    C5629346   7.526   2.724   0.650 -0.1889  0.0643  0.8107
  146MOL    H5729347   7.779   2.347   0.581  0.2683  2.3628 -1.1588
  146MOL    H5829348   7.676   2.400   0.458 -1.1835 -2.3334 -0.6426
  146MOL    H5929349   7.528   2.582   0.477 -1.8763 -1.1896  0.6729
  146MOL    H6029350   7.423   2.716   0.685 -1.3021  1.2803 -2.0277
  146MOL    H6129351   7.585   2.740   0.740  0.6920  2.1494 -0.1006
  146MOL    C6229352   7.537   2.851   0.560 -0.2851  0.5869  0.6742
  146MOL    C6329353   7.425   2.881   0.462 -0.4764  0.0865 -0.6932
  146MOL   Cl6429354   7.449   2.807   0.315  0.3165 -0.2882  0.1453
  146MOL    C6529355   7.328   2.970   0.491 -1.0779  0.3925  0.3216
  146MOL    C6629356   7.217   3.015   0.401  0.3408 -0.4512  0.9157
  146MOL    H6729357   7.548   2.940   0.622  0.7691  0.1051  1.1835
  146MOL    H6829358   7.629   2.845   0.502 -0.9111 -1.5421 -0.1168
  146MOL    H6929359   7.322   3.015   0.589 -0.4753  1.5390 -0.1635
  146MOL    H7029360   7.123   2.981   0.444  0.3971  2.7754  3.7650
  146MOL    H7129361   7.223   2.958   0.308 -0.7027 -0.3965  0.8155
  146MOL    C7229362   7.228   3.169   0.387  0.1529 -0.1355 -0.0261
  146MOL    C7329363   7.101   3.229   0.321  0.1938 -0.1776  0.3178
  146MOL   Cl7429364   6.982   3.275   0.433 -0.0192  0.0155 -0.1996
  146MOL    C7529365   7.079   3.229   0.188 -0.4707 -0.2315  0.1124
  146MOL    C7629366   6.962   3.288   0.109 -0.4525 -0.1006  0.2867
  146MOL    H7729367   7.316   3.193   0.328  0.6346 -1.6019  0.0782
  146MOL    H7829368   7.246   3.212   0.486  3.8461  2.3742 -1.7191
  146MOL    H7929369   7.140   3.190   0.107 -1.2702  3.1079 -2.1906
  146MOL    H8029370   6.997   3.352   0.028  0.9212  0.1505  1.0580
  146MOL    H8129371   6.924   3.360   0.182 -1.6472 -1.8223  1.3875
  146MOL    C8229372   6.859   3.185   0.062  0.1142  0.0442  0.4746
  146MOL    C8329373   6.759   3.155   0.171 -0.4780  0.6539  0.0814
  146MOL   Cl8429374   6.779   2.996   0.244 -0.0744  0.0279  0.1516
  146MOL    C8529375   6.650   3.232   0.193  0.3798 -0.3803 -0.2485
  146MOL    C8629376   6.542   3.203   0.287 -0.0012  0.7931 -0.1219
  146MOL    H8729377   6.907   3.092   0.030  1.6340  1.0614 -0.2576
  146MOL    H8829378   6.786   3.221   8.411  0.4220 -0.0907  0.0905
  146MOL    H8929379   6.633   3.318   0.130 -1.2694 -0.7511 -0.3186
  146MOL    H9029380   6.450   3.228   0.234  0.3257 -0.3906 -1.2545
  146MOL    H9129381   6.554   3.101   0.322 -1.1942  0.9200  0.6758
  146MOL    C9229382   6.549   3.305   0.402 -0.0788  0.2047  0.0500
  146MOL    C9329383   6.426   3.269   0.488  0.5484 -0.1945 -0.0785
  146MOL   Cl9429384   6.288   3.359   0.444 -0.2637 -0.3392 -0.4833
  146MOL    C9529385   6.423   3.200   0.602  0.2052  0.5093  0.3474
  146MOL    C9629386   6.541   3.117   0.654  0.1208  0.7703 -0.5693
  146MOL    H9729387   6.530   3.405   0.365  1.0953  1.0208  1.6002
  146MOL    H9829388   6.637   3.313   0.466 -0.1702 -0.1637  0.2250
  146MOL    H9929389   6.328   3.177   0.648  0.6380 -0.8482  0.5923
  146MOL   H10029390   6.634   3.168   0.629  0.5793 -1.2225 -3.0407
  146MOL   H10129391   6.536   3.113   0.763  0.8099 -0.9647 -0.5930
  146MOL   C10229392   6.557   2.980   0.601  0.1352  0.2517 -0.3747
  146MOL   C10329393   6.663   2.890   0.680 -0.3005  0.4680  0.2619
  146MOL  Cl10429394   6.598   2.744   0.744  0.1668 -0.0617 -0.1242
  146MOL   C10529395   6.794   2.920   0.683 -0.0709  0.5846 -0.6106
  146MOL   C10629396   6.904   2.837   0.743  0.4226  0.5708 -0.1170
  146MOL   H10729397   6.462   2.926   0.601  0.3972 -0.2101 -1.1339
  146MOL   H10829398   6.603   2.980   0.503 -1.8000  0.2914 -1.3102
  146MOL   H10929399   6.835   3.009   0.638  1.3662  0.8232  1.1270
  146MOL   H11029400   6.875   2.732   0.736 -2.2919  1.3135 -0.9498
  146MOL   H11129401   6.990   2.859   0.680 -0.1723  1.8013 -0.5324
  146MOL   C11229402   6.928   2.869   0.886  0.2037  0.0920 -0.5086
  146MOL   C11329403   7.040   2.787   0.945 -0.0500 -0.0095  0.3505
  146MOL  Cl11429404   7.192   2.872   0.933 -0.3129  0.3922  0.1374
  146MOL   C11529405   7.037   2.668   1.004  0.3334 -0.2036 -0.5908
  146MOL   C11629406   6.910   2.591   1.031  0.1099 -0.7371  0.4187
  146MOL   H11729407   6.942   2.977   0.896 -1.2086  0.2031  0.2902
  146MOL   H11829408   6.833   2.857   0.938  0.7951 -1.2809  0.2863
  146MOL   H11929409   7.128   2.621   1.037  0.5041 -0.4363 -1.3776
  146MOL   H12029410   6.822   2.631   0.980 -0.1604 -2.0199 -0.1269
  146MOL   H12129411   6.875   2.599   1.134 -1.7220  2.5607 -0.3900
  146MOL   C12229412   6.913   2.448   0.980  0.0965 -0.1939  0.1525
  146MOL   C12329413   6.808   2.364   1.040 -0.3515 -0.3237 -0.5631
  146MOL  Cl12429414   6.666   2.356   0.951 -0.0751  0.2018 -0.1398
  146MOL   C12529415   6.825   2.278   1.145  0.0630  0.0468  0.1227
  146MOL   C12629416   6.950   2.252   1.219  0.3316 -0.6978  0.3660
  146MOL   H12729417   6.898   2.452   0.872 -0.0912  0.4663  0.2016
  146MOL   H12829418   7.016   2.416   0.999  0.2201  0.2470  0.2523
  146MOL   H12929419   6.737   2.227   1.182 -2.6180  2.4384 -2.6735
  146MOL   H13029420   7.008   2.344   1.220  1.4968 -1.4231  0.8527
  146MOL   H13129421   6.925   2.219   1.320 -1.5244  0.6701  0.3927
  146MOL   C13229422   7.029   2.140   1.150 -0.2642  0.9890  0.2120
  146MOL   C13329423   7.167   2.118   1.214  0.1691 -0.1631 -0.8751
  146MOL  Cl13429424   7.198   2.206   1.355  0.1330  0.1249 -0.2849
  146MOL   C13529425   7.255   2.031   1.173  0.1180 -0.0763 -0.2960
  146MOL   C13629426   7.236   1.923   1.069 -0.4684 -0.3075 -0.0261
  146MOL   H13729427   6.961   2.054   1.147  0.3432  0.4978  0.3037
  146MOL   H13829428   7.053   2.154   1.045  0.2690 -0.7610  0.0834
  146MOL   H13929429   7.351   2.036   1.223 -0.2024  1.0294  0.2342
  146MOL   H14029430   7.224   1.828   1.121 -2.9313 -1.9894 -3.4451
  146MOL   H14129431   7.142   1.923   1.013  1.1868  1.2511 -2.9529
  146MOL   C14229432   7.355   1.905   0.981  0.1018 -1.0412  0.4139
  146MOL   C14329433   7.336   1.801   0.875  0.0127  0.2114 -0.6452
  146MOL  Cl14429434   7.312   1.881   0.724 -0.2131  0.1765  0.0744
  146MOL   C14529435   7.338   1.665   0.901  0.4787 -0.3790  0.4193
  146MOL   C14629436   7.316   1.559   0.798 -0.2839  0.2438  0.0175
  146MOL   H14729437   7.445   1.885   1.040  0.0832  3.5388  2.1995
  146MOL   H14829438   7.374   2.005   0.940  2.3228 -1.2597  0.8148
  146MOL   H14929439   7.352   1.640   1.006  0.0511  1.7407  1.0089
  146MOL   H15029440   7.275   1.607   0.710  0.5864 -0.3873 -0.7419
  146MOL   H15129441   7.406   1.501   0.776 -1.3333 -1.1144 -0.7434
  146MOL   C15229442   7.211   1.471   0.865 -0.9935 -0.2998  0.2087
  146MOL   C15329443   7.256   1.410   0.992 -0.3392  0.5330 -0.2504
  146MOL  Cl15429444   7.382   1.293   0.962 -0.2187  0.0690  0.1592
  146MOL   C15529445   7.213   1.443   1.112  0.5166 -0.4728  0.8454
  146MOL   C15629446   7.263   1.387   1.241  0.7968 -0.0732 -0.1218
  146MOL   H15729447   7.124   1.533   0.885  0.7090  1.7877  1.2542
  146MOL   H15829448   7.198   1.391   0.791  1.8184  0.3316 -1.0354
  146MOL   H15929449   7.136   1.516   1.127  0.1244 -0.4015 -1.3595
  146MOL   H16029450   7.361   1.347   1.217  0.5270  0.0136 -1.4506
  146MOL   H16129451   7.202   1.305   1.280  0.1189  1.6567  2.5599
  146MOL   C16229452   7.269   1.499   1.349 -0.9997 -0.2798 -0.0943
  146MOL   C16329453   7.321   1.450   1.483 -0.3268 -0.0152 -0.2649
  146MOL  Cl16429454   7.486   1.505   1.506  0.2051 -0.0164  0.1486
  146MOL   C16529455   7.252   1.373   1.568 -0.2921  0.4336  0.6900
  146MOL   C16629456   7.296   1.327   1.705  0.5302 -0.1431  0.4848
  146MOL   H16729457   7.328   1.578   1.303 -3.6483  2.5652  1.1845
  146MOL   H16829458   7.171   1.546   1.354 -0.5097  0.6832  0.6716
  146MOL   H16929459   7.151   1.343   1.547 -0.5134  1.6785 -0.0460
  146MOL   H17029460   7.276   1.220   1.703 -0.1314 -0.0059 -0.5668
  146MOL   H17129461   7.399   1.350   1.733  0.7524 -2.0225  1.2868
  146MOL   C17229462   7.202   1.375   1.818 -0.4307 -0.1181 -0.7677
  146MOL   C17329463   7.256   1.348   1.958 -0.1541  0.3203  0.6214
  146MOL  Cl17429464   7.384   1.464   1.993  0.2503 -0.3167 -0.1711
  146MOL   C17529465   7.209   1.264   2.050 -0.4009  0.3601 -1.0337
  146MOL   C17629466   7.270   1.236   2.179  0.3731  0.8484 -0.2734
  146MOL   H17729467   7.096   1.351   1.807 -0.3303 -0.7117 -0.4503
  146MOL   H17829468   7.193   1.483   1.814  0.3689  0.0028  0.4439
  146MOL   H17929469   7.121   1.202   2.042 -0.0222 -0.7439  2.2921
  146MOL   H18029470   7.235   1.309   2.252 -0.6251 -1.5684  1.7213
  146MOL   H18129471   7.377   1.255   2.169  1.1309 -2.8128  0.1399
  146MOL   C18229472   7.258   1.090   2.231 -0.1403  1.2634 -0.5159
  146MOL   C18329473   7.330   1.080   2.362  0.5887  0.0406 -0.2705
  146MOL  Cl18429474   7.231   1.146   2.492 -0.1666  0.6294  0.1666
  146MOL   C18529475   7.450   1.034   2.377 -0.0305 -0.1932  0.3731
  146MOL   C18629476   7.543   1.028   2.494  0.8917 -0.4105  0.6870
  146MOL   H18729477   7.153   1.058   2.228  0.1995 -0.1708  1.5963
  146MOL   H18829478   7.304   1.027   2.155 -0.4231 -2.5304  2.2788
  146MOL   H18929479   7.496   1.000   2.285  2.2270  2.9206  0.2910
  146MOL   H19029480   7.501   1.062   2.588  0.3806 -2.4225  1.2074
  146MOL   H19129481   7.564   0.923   2.512 -0.5356 -1.0174 -1.0586
  146MOL   C19229482   7.663   1.115   2.473 -0.1090 -0.2274 -0.0545
  146MOL   C19329483   7.624   1.259   2.467  0.3764 -0.2049  0.5478
  146MOL  Cl19429484   7.649   1.328   2.309  0.4259  0.0219  0.0223
  146MOL   C19529485   7.584   1.333   2.568 -0.4209  0.4472  0.2896
  146MOL   C19629486   7.557   1.292   2.714  0.1543  0.6813 -0.4077
  146MOL   H19729487   7.714   1.090   2.380 -1.7784 -0.5309 -0.8993
  146MOL   H19829488   7.744   1.108   2.546  1.1637  0.9051 -1.3372
  146MOL   H19929489   7.563   1.439   2.559  1.4098  0.8528  0.7046
  146MOL   H20029490   7.449   1.278   2.725  0.3983 -1.5358 -0.5955
  146MOL   H20129491   7.579   1.368   2.789 -0.9998 -0.0883  0.7387
  146MOL   H20229492   7.597   1.196   2.746 -2.5157  0.2190  1.8236
  147MOL     C129493   2.050   7.329   4.062 -0.6108 -0.3932 -0.0985
  147MOL     C229494   2.137   7.237   3.979  0.4264  0.4647 -0.2562
  147MOL    Cl329495   2.263   7.315   3.890  0.3907  0.0451 -0.1037
  147MOL     C429496   2.116   7.107   3.967 -0.3430 -0.3606 -0.8155
  147MOL     C529497   2.003   7.024   4.022  0.1742 -0.4990 -0.1564
  147MOL     H629498   2.069   7.433   4.036 -1.4559 -0.0871  0.4891
  147MOL     H729499   2.044   7.318   4.171 -1.0047  2.5328  0.2181
  147MOL     H829500   2.186   7.061   3.900  0.3491 -0.3749 -0.0952
  147MOL     H929501   2.050   6.961   4.098 -2.2893  0.4190  2.2002
  147MOL    H1029502   1.936   7.082   4.084 -1.5871 -2.6023 -0.0304
  147MOL    H1129503   1.949   7.319   4.023 -0.9294 -0.1620  0.6618
  147MOL    C1229504   1.930   6.941   3.921 -0.2689 -0.4254 -0.1747
  147MOL    C1329505   1.876   6.822   3.986  0.1458  0.3551 -0.1503
  147MOL   Cl1429506   1.707   6.842   4.010  0.1503  0.2201 -0.1564
  147MOL    C1529507   1.941   6.703   4.010 -0.0165  0.0432 -1.0268
  147MOL    C1629508   2.087   6.677   3.972  0.4589 -0.1870 -0.8546
  147MOL    H1729509   1.860   7.009   3.872 -1.6513 -1.9311 -0.3255
  147MOL    H1829510   1.997   6.903   3.844 -2.4435 -2.3064 -1.2175
  147MOL    H1929511   1.882   6.622   4.049  0.0493 -0.3450 -1.7331
  147MOL    H2029512   2.107   6.733   3.880  0.4170  2.0227  0.4486
  147MOL    H2129513   2.157   6.720   4.045  2.3620 -1.8736 -1.6302
  147MOL    C2229514   2.119   6.526   3.965 -0.0623  0.0528 -0.5532
  147MOL    C2329515   2.265   6.492   3.976 -0.8560 -0.2580 -0.3139
  147MOL   Cl2429516   2.337   6.531   3.826  0.2717 -0.0397  0.1356
  147MOL    C2529517   2.331   6.442   4.077 -0.0068 -0.0066 -0.7825
  147MOL    C2629518   2.480   6.413   4.095  0.1011 -0.3549  0.5310
  147MOL    H2729519   2.070   6.473   4.047  0.4015  0.9572  0.3119
  147MOL    H2829520   2.082   6.494   3.867  0.5930 -0.1479 -0.7330
  147MOL    H2929521   2.273   6.419   4.165 -0.6037 -1.3915 -1.5352
  147MOL    H3029522   2.499   6.327   4.030  2.6460  0.0432  0.7074
  147MOL    H3129523   2.541   6.493   4.052 -0.6137 -0.5880 -0.9688
  147MOL    C3229524   2.509   6.397   4.242  0.1433 -0.4940 -0.7081
  147MOL    C3329525   2.657   6.391   4.278  0.7876 -0.5922  0.6139
  147MOL   Cl3429526   2.744   6.297   4.168  0.4080  0.0883 -0.2778
  147MOL    C3529527   2.707   6.449   4.386  0.1274 -0.7358  0.2290
  147MOL    C3629528   2.851   6.452   4.433 -0.3627 -0.2839 -0.0623
  147MOL    H3729529   2.457   6.470   4.303  0.0197 -0.3099 -1.0334
  147MOL    H3829530   2.466   6.301   4.271  1.6920 -1.0533 -0.1846
  147MOL    H3929531   2.647   6.503   4.457 -1.3493 -3.3090  1.0291
  147MOL    H4029532   2.861   6.418   4.536 -2.4233  1.3284  0.7007
  147MOL    H4129533   2.911   6.377   4.380  3.0357 -0.0554  3.2338
  147MOL    C4229534   2.915   6.590   4.403 -0.5414  0.4568  0.2516
  147MOL    C4329535   3.050   6.609   4.467 -0.4951  0.5333 -0.2882
  147MOL   Cl4429536   3.179   6.545   4.362 -0.2493 -0.2017 -0.1046
  147MOL    C4529537   3.089   6.661   4.585  1.1426 -0.1025 -0.2746
  147MOL    C4629538   2.996   6.712   4.689 -0.3731  0.4731 -0.2780
  147MOL    H4729539   2.895   6.611   4.298 -1.8711  0.3892  0.4850
  147MOL    H4829540   2.846   6.660   4.451 -0.3252 -0.1891  1.5452
  147MOL    H4929541   3.194   6.675   4.605  1.0356 -0.6242  0.7088
  147MOL    H5029542   3.046   6.789   4.748 -2.6162  0.9594  1.0669
  147MOL    H5129543   2.916   6.763   4.636 -0.5141 -0.5687 -1.0782
  147MOL    C5229544   2.932   6.610   4.777  0.3272  0.5772  0.3096
  147MOL    C5329545   2.819   6.678   4.858  0.3682  0.0094  0.0997
  147MOL   Cl5429546   2.873   6.751   5.001 -0.2857  0.0562  0.0234
  147MOL    C5529547   2.696   6.680   4.807 -0.0947  0.5969  0.0048
  147MOL    C5629548   2.575   6.737   4.879 -0.0269 -0.3758  0.4327
  147MOL    H5729549   2.895   6.531   4.712 -0.2816 -0.6392  2.0925
  147MOL    H5829550   3.002   6.576   4.853  1.9406  1.2588 -0.8443
  147MOL    H5929551   2.677   6.636   4.710  0.1133  0.6974 -0.0808
  147MOL    H6029552   2.490   6.674   4.855  0.9202 -1.2351 -0.7725
  147MOL    H6129553   2.587   6.741   4.987 -0.4048 -1.2331  0.5100
  147MOL    C6229554   2.524   6.871   4.816 -0.0325  0.4562  0.5405
  147MOL    C6329555   2.418   6.936   4.896  0.0719 -0.2886  0.0433
  147MOL   Cl6429556   2.470   7.005   5.041  0.3300  0.4895 -0.5492
  147MOL    C6529557   2.294   6.950   4.849 -0.4889  0.3356 -0.4670
  147MOL    C6629558   2.184   7.019   4.925 -0.4251  0.1612  0.4813
  147MOL    H6729559   2.604   6.945   4.812 -0.3118  0.6673 -1.9036
  147MOL    H6829560   2.493   6.851   4.714  0.7264 -1.3247  0.6323
  147MOL    H6929561   2.271   6.912   4.750  1.0098  0.0949 -0.7319
  147MOL    H7029562   2.214   7.067   5.019  1.8897 -0.5075  0.1049
  147MOL    H7129563   2.112   6.944   4.958 -0.7325  0.2931  0.1127
  147MOL    C7229564   2.106   7.114   4.838 -0.2213 -0.3684  0.1518
  147MOL    C7329565   1.987   7.174   4.913 -0.3278  0.4901  0.0962
  147MOL   Cl7429566   1.832   7.127   4.847 -0.0080  0.0908  0.2181
  147MOL    C7529567   1.996   7.251   5.024  0.2579  0.1837  0.1742
  147MOL    C7629568   1.886   7.298   5.112  0.5755 -0.0148  0.5335
  147MOL    H7729569   2.066   7.048   4.761  0.4790 -0.8173  0.1670
  147MOL    H7829570   2.162   7.196   4.793  0.2963 -0.5813  0.4121
  147MOL    H7929571   2.098   7.280   5.039  0.6659  0.7496 -3.3177
  147MOL    H8029572   1.797   7.235   5.098  0.2020 -0.1007  3.1196
  147MOL    H8129573   1.854   7.399   5.086 -0.1957 -0.1908  0.7822
  147MOL    C8229574   1.928   7.285   5.264  1.1199 -0.0956  0.4522
  147MOL    C8329575   1.819   7.328   5.354  0.1258 -0.5534  0.1640
  147MOL   Cl8429576   1.779   7.490   5.332 -0.0621  0.1251  0.1934
  147MOL    C8529577   1.751   7.241   5.432  0.1238  0.1012  0.0582
  147MOL    C8629578   1.635   7.289   5.512  0.4919  0.4750 -0.7627
  147MOL    H8729579   2.017   7.344   5.288 -0.3801  1.9870  1.0310
  147MOL    H8829580   1.948   7.180   5.283  1.6740 -0.1513 -0.3937
  147MOL    H8929581   1.778   7.137   5.431 -1.9222 -0.4349  0.0471
  147MOL    H9029582   1.640   7.242   5.611  1.8387  0.0679 -1.0146
  147MOL    H9129583   1.652   7.394   5.534  0.8662  0.1388  0.6304
  147MOL    C9229584   1.503   7.286   5.439  0.3880 -0.1772 -0.2865
  147MOL    C9329585   1.458   7.150   5.407 -0.2105 -0.6097  0.5800
  147MOL   Cl9429586   1.439   7.131   5.237  0.1095  0.2567  0.1653
  147MOL    C9529587   1.405   7.058   5.490 -0.3366  0.4341 -0.0034
  147MOL    C9629588   1.391   7.062   5.638  0.1425  0.3478 -0.9081
  147MOL    H9729589   1.510   7.344   5.347 -0.4780  0.3544 -0.0247
  147MOL    H9829590   1.428   7.331   5.505  0.3754 -1.4380  0.5803
  147MOL    H9929591   1.369   6.964   5.452 -2.1378  1.1116 -0.0074
  147MOL   H10029592   1.413   7.165   5.666  1.4155  0.1238 -1.0724
  147MOL   H10129593   1.292   7.034   5.673 -0.1155  1.9151 -0.3110
  147MOL   C10229594   1.505   6.988   5.716  0.7276  0.4929  0.1204
  147MOL   C10329595   1.471   6.940   5.863 -0.4171 -0.6582 -0.5516
  147MOL  Cl10429596   1.561   6.794   5.890 -0.5065 -0.0377 -0.0256
  147MOL   C10529597   1.383   6.999   5.954 -0.0349 -0.7152  0.1605
  147MOL   C10629598   1.341   6.939   6.086  0.3691 -0.1414  0.1253
  147MOL   H10729599   1.527   6.904   5.651 -2.5837 -0.0474 -0.4114
  147MOL   H10829600   1.594   7.050   5.723  0.1807  1.1501  1.4100
  147MOL   H10929601   1.337   7.091   5.922 -3.1434 -2.7513 -1.5180
  147MOL   H11029602   1.241   6.897   6.072 -0.4942  1.0390  2.5067
  147MOL   H11129603   1.411   6.863   6.118  0.3602 -0.1284  0.1760
  147MOL   C11229604   1.308   7.043   6.196  0.3894 -0.6592  0.0058
  147MOL   C11329605   1.307   6.998   6.339 -0.1707 -0.0515 -0.2060
  147MOL  Cl11429606   1.213   6.860   6.366  0.2601 -0.3342  0.0091
  147MOL   C11529607   1.358   7.059   6.447 -0.7339 -0.0196  0.2084
  147MOL   C11629608   1.454   7.178   6.450 -0.1265 -0.0651  0.2176
  147MOL   H11729609   1.377   7.126   6.194 -2.3201  1.6540 -0.2043
  147MOL   H11829610   1.216   7.096   6.173  0.7750  1.0290  2.2307
  147MOL   H11929611   1.343   7.037   6.552  0.1538  2.1056  0.7923
  147MOL   H12029612   1.506   7.195   6.355 -2.3593 -2.1570 -1.4362
  147MOL   H12129613   1.542   7.147   6.507 -1.3420 -1.1598  1.5156
  147MOL   C12229614   1.384   7.297   6.506 -0.4573  0.4609 -0.2561
  147MOL   C12329615   1.478   7.417   6.511 -0.6349  0.2955 -0.7589
  147MOL  Cl12429616   1.479   7.490   6.355  0.1104  0.2309 -0.0942
  147MOL   C12529617   1.537   7.464   6.622  0.1565 -0.0230 -0.0162
  147MOL   C12629618   1.531   7.410   6.764 -0.1765  0.4711  0.0090
  147MOL   H12729619   1.297   7.308   6.441 -1.0006  0.8833  0.5313
  147MOL   H12829620   1.340   7.264   6.601 -1.0629 -1.4878 -1.1951
  147MOL   H12929621   1.600   7.552   6.618  0.6599 -0.3396  0.8328
  147MOL   H13029622   1.486   7.479   6.836 -1.1974  0.7728 -0.9205
  147MOL   H13129623   1.472   7.319   6.760  0.5216 -0.1248  2.3885
  147MOL   C13229624   1.670   7.380   6.822  0.3547  0.5203 -0.3103
  147MOL   C13329625   1.657   7.325   6.963 -0.4203  0.1362  0.7486
  147MOL  Cl13429626   1.660   7.438   7.085 -0.1816  0.5196 -0.0514
  147MOL   C13529627   1.642   7.197   7.006  0.4208  0.2925  0.6244
  147MOL   C13629628   1.626   7.071   6.921 -0.2110 -0.3455  0.2230
  147MOL   H13729629   1.718   7.318   6.746  1.2661  1.6602 -0.6629
  147MOL   H13829630   1.720   7.476   6.819  1.1212  0.1056 -1.0143
  147MOL   H13929631   1.640   7.193   7.114  1.2050 -1.5261  0.5896
  147MOL   H14029632   1.614   7.091   6.814 -1.3016  1.6243  0.6886
  147MOL   H14129633   1.721   7.020   6.933 -0.3387 -0.3699  1.1578
  147MOL   C14229634   1.511   6.978   6.964 -0.2580  0.5764  0.3684
  147MOL   C14329635   1.380   7.052   6.986 -0.3694  0.4401  0.3200
  147MOL  Cl14429636   1.361   7.069   7.158 -0.4680  0.2038  0.1566
  147MOL   C14529637   1.291   7.093   6.897 -0.1262 -0.1784  0.0974
  147MOL   C14629638   1.163   7.163   6.923  0.0681  0.1042  0.1341
  147MOL   H14729639   1.539   6.918   7.051 -1.2780  1.4878  1.3483
  147MOL   H14829640   1.487   6.910   6.883 -0.2844 -0.5161  1.2782
  147MOL   H14929641   1.312   7.066   6.794  2.7467 -1.8480  1.0752
  147MOL   H15029642   1.141   7.186   7.027  1.0054  2.7755 -0.2261
  147MOL   H15129643   1.167   7.257   6.868 -1.3602 -1.2946 -2.4679
  147MOL   C15229644   1.043   7.078   6.864  0.0817 -0.2484  0.0091
  147MOL   C15329645   1.038   7.067   6.715  0.2187  0.4578 -0.1261
  147MOL  Cl15429646   1.055   6.901   6.653 -0.3907  0.0257 -0.1001
  147MOL   C15529647   1.026   7.173   6.634 -0.5257 -0.1538  0.0322
  147MOL   C15629648   1.002   7.165   6.480 -0.0373 -0.0157  0.0860
  147MOL   H15729649   1.050   6.978   6.907  2.4764 -0.8191 -1.5919
  147MOL   H15829650   0.943   7.115   6.888  0.4613  0.6616  0.2130
  147MOL   H15929651   1.017   7.272   6.678  0.9932  1.1419 -2.4350
  147MOL   H16029652   1.018   7.067   6.434 -3.3159  0.3094 -1.9318
  147MOL   H16129653   1.088   7.207   6.427  0.7955 -0.0499  1.4055
  147MOL   C16229654   0.853   7.216   6.463  0.1667 -0.7400 -0.5475
  147MOL   C16329655   0.794   7.175   6.326  0.3771 -0.0905  0.6142
  147MOL  Cl16429656   0.629   7.117   6.346  0.0052  0.2060 -0.2046
  147MOL   C16529657   0.859   7.195   6.207  0.0227 -0.1688 -0.0286
  147MOL   C16629658   0.811   7.146   6.072 -0.2790 -0.2689 -0.2718
  147MOL   H16729659   0.786   7.164   6.531 -0.6787 -2.8288 -2.9084
  147MOL   H16829660   0.836   7.323   6.472  0.6275 -0.7077 -0.0036
  147MOL   H16929661   0.957   7.240   6.217  1.0902 -2.2734 -0.6744
  147MOL   H17029662   0.707   7.116   6.067 -0.4041 -0.0438  0.8934
  147MOL   H17129663   0.819   7.238   6.015  1.3456  1.0859  2.0382
  147MOL   C17229664   0.901   7.034   6.006 -1.5118 -0.3336  0.2175
  147MOL   C17329665   0.889   7.028   5.855  0.1135  0.0562  0.1930
  147MOL  Cl17429666   0.786   6.897   5.814 -0.1032 -0.4417 -0.2691
  147MOL   C17529667   0.954   7.098   5.763  0.7330 -0.9126  0.1814
  147MOL   C17629668   0.935   7.087   5.609  0.1455  0.4304 -0.7456
  147MOL   H17729669   0.873   6.936   6.045 -1.4087 -0.3782  0.1810
  147MOL   H17829670   1.003   7.053   6.041 -0.3004  0.1597 -3.3746
  147MOL   H17929671   1.014   7.182   5.796  0.7443 -0.3454 -1.2590
  147MOL   H18029672   0.936   7.189   5.570  1.7324  1.4847  1.9483
  147MOL   H18129673   0.838   7.037   5.599  0.0320  0.3470  0.6654
  147MOL   C18229674   1.050   7.011   5.543 -0.2698  0.2639 -0.9666
  147MOL   C18329675   1.032   6.975   5.398 -0.8683 -0.5430  0.5844
  147MOL  Cl18429676   1.088   7.100   5.286 -0.1826  0.1266  0.1587
  147MOL   C18529677   1.008   6.848   5.356  0.0796 -0.3013 -0.4492
  147MOL   C18629678   1.019   6.790   5.209 -0.0776  0.5117 -0.5524
  147MOL   H18729679   1.132   7.083   5.541  0.4157 -0.5133 -1.2269
  147MOL   H18829680   1.075   6.921   5.598  0.0651  1.7651  1.4353
  147MOL   H18929681   0.983   6.772   5.428 -1.1948 -2.4313 -3.0676
  147MOL   H19029682   1.014   6.875   5.140  0.6850  2.2691  1.4898
  147MOL   H19129683   1.109   6.731   5.192 -0.3563  0.0025 -0.2615
  147MOL   C19229684   0.897   6.699   5.172 -0.2445  0.0600 -0.3007
  147MOL   C19329685   0.907   6.670   5.025  0.1242 -0.1368 -0.1658
  147MOL  Cl19429686   0.849   6.805   4.927 -0.2237 -0.4732  0.0491
  147MOL   C19529687   0.968   6.554   4.976  0.0444  0.1499 -1.0153
  147MOL   C19629688   1.035   6.447   5.066 -0.3280  0.0259  0.4149
  147MOL   H19729689   0.804   6.750   5.197 -1.5972 -3.2706  1.8475
  147MOL   H19829690   0.896   6.606   5.230 -0.8423  0.6538  0.6589
  147MOL   H19929691   0.968   6.535   4.870  0.6946  2.2403 -1.4026
  147MOL   H20029692   1.103   6.490   5.139  0.0435  1.0590 -0.5291
  147MOL   H20129693   1.111   6.390   5.013  0.3370 -0.4662  1.8995
  147MOL   H20229694   0.971   6.373   5.114  0.4398 -0.1191  1.2212
  148MOL     C129695   1.240   6.634   5.642 -0.2356  0.1191  0.6621
  148MOL     C229696   1.298   6.586   5.511 -0.4464 -0.0986  0.1317
  148MOL    Cl329697   1.420   6.699   5.460  0.1395 -0.2661 -0.5954
  148MOL     C429698   1.261   6.482   5.441 -0.0319  0.1789 -0.0400
  148MOL     C529699   1.160   6.369   5.481  0.0762 -0.1337 -0.3863
  148MOL     H629700   1.294   6.721   5.679  1.1378 -1.1050  1.6007
  148MOL     H729701   1.247   6.564   5.725 -1.0561  0.1957  0.7933
  148MOL     H829702   1.305   6.473   5.343 -2.1356 -2.3857 -0.8127
  148MOL     H929703   1.219   6.285   5.518 -0.2565 -0.1754  0.0466
  148MOL    H1029704   1.101   6.414   5.561 -3.0196 -0.5096 -2.3977
  148MOL    H1129705   1.140   6.674   5.629  0.2168  1.1164  0.2196
  148MOL    C1229706   1.073   6.320   5.366 -0.1322 -0.9352  1.1519
  148MOL    C1329707   0.976   6.218   5.425  0.0451 -0.5387 -0.3318
  148MOL   Cl1429708   1.036   6.062   5.402  0.1358  0.4008  0.2645
  148MOL    C1529709   0.861   6.236   5.493 -0.2331 -0.1238  0.4282
  148MOL    C1629710   0.799   6.370   5.521  0.3997  0.1056  0.5905
  148MOL    H1729711   1.023   6.412   5.338  0.2997 -0.7882  0.8525
  148MOL    H1829712   1.139   6.279   5.290  0.2056  2.2807 -0.3160
  148MOL    H1929713   0.792   6.157   5.521  0.0057 -0.0018  1.3603
  148MOL    H2029714   0.768   6.369   5.626  1.4187  0.5231  0.9012
  148MOL    H2129715   0.867   6.454   5.506 -0.5362  0.5989 -1.0294
  148MOL    C2229716   0.677   6.393   5.432 -0.4555  0.4433 -0.9397
  148MOL    C2329717   0.585   6.502   5.477  0.3993  0.6535  0.7732
  148MOL   Cl2429718   0.630   6.658   5.420  0.0765  0.0525 -0.0120
  148MOL    C2529719   0.478   6.469   5.549 -0.2324 -0.5513 -0.3019
  148MOL    C2629720   0.377   6.568   5.600  0.0866  0.2389  0.5097
  148MOL    H2729721   0.710   6.409   5.329  2.6609  0.4508  0.0102
  148MOL    H2829722   0.619   6.301   5.436  1.3274 -0.6671 -0.1005
  148MOL    H2929723   0.458   6.368   5.583  0.7803 -0.9615 -0.9174
  148MOL    H3029724   0.401   6.661   5.548 -1.0722  1.3387  1.8924
  148MOL    H3129725   0.280   6.533   5.564  1.1092 -1.3438 -0.7838
  148MOL    C3229726   0.383   6.581   5.750  0.5289  0.0701  0.6965
  148MOL    C3329727   0.318   6.703   5.811 -0.1411 -0.3639 -0.5547
  148MOL   Cl3429728   0.160   6.664   5.872 -0.1890  0.4929 -0.0200
  148MOL    C3529729   0.359   6.830   5.811  0.1252 -0.4885 -0.3650
  148MOL    C3629730   0.283   6.937   5.889  0.4361  0.4544 -0.2209
  148MOL    H3729731   0.333   6.496   5.796 -0.1861  0.2891  0.3230
  148MOL    H3829732   0.491   6.585   5.770  0.9389 -2.1758 -0.8336
  148MOL    H3929733   0.453   6.858   5.766  0.3909 -1.8224 -0.6660
  148MOL    H4029734   0.187   6.907   5.931  0.3305 -1.4652 -1.7528
  148MOL    H4129735   0.329   6.979   5.978  0.3621 -0.9175  0.4725
  148MOL    C4229736   0.239   7.057   5.788 -0.5394  0.7118  0.9055
  148MOL    C4329737   0.165   7.169   5.866 -0.3251  0.1356 -0.6089
  148MOL   Cl4429738   8.418   7.164   5.831 -0.0320  0.2444  0.1317
  148MOL    C4529739   0.222   7.272   5.934 -0.0457 -0.0995  0.6196
  148MOL    C4629740   0.373   7.295   5.952  0.5722 -0.7713 -0.3202
  148MOL    H4729741   0.330   7.096   5.741 -0.3273  1.6885  2.0954
  148MOL    H4829742   0.177   7.028   5.704  1.4495  1.1817 -0.7718
  148MOL    H4929743   0.146   7.333   5.982 -0.1233 -0.6195  1.1645
  148MOL    H5029744   0.397   7.319   6.056 -1.0283 -1.5102  0.2446
  148MOL    H5129745   0.443   7.214   5.932  0.8363 -0.8912  1.0147
  148MOL    C5229746   0.416   7.409   5.862 -0.3606 -0.3176 -0.8148
  148MOL    C5329747   0.542   7.476   5.919  0.4205 -0.1615 -0.1830
  148MOL   Cl5429748   0.685   7.414   5.846  0.1940 -0.1195  0.2778
  148MOL    C5529749   0.542   7.578   6.004 -0.4783  0.4286 -0.7563
  148MOL    C5629750   0.672   7.641   6.052 -0.9381  0.3273 -0.8576
  148MOL    H5729751   0.447   7.367   5.767 -0.7421 -2.6782  0.0744
  148MOL    H5829752   0.342   7.488   5.846  0.0295  0.0759 -0.6755
  148MOL    H5929753   0.455   7.632   6.038 -1.0406 -0.0610 -1.4353
  148MOL    H6029754   0.705   7.613   6.152 -1.1309 -1.0733 -1.1662
  148MOL    H6129755   0.753   7.620   5.981  0.6369  0.4720  0.8670
  148MOL    C6229756   0.654   7.794   6.061 -0.1007 -0.2437 -0.2329
  148MOL    C6329757   0.780   7.864   6.102  0.0506 -0.3624  0.2994
  148MOL   Cl6429758   0.744   8.005   6.201  0.3552 -0.3168 -0.1233
  148MOL    C6529759   0.907   7.829   6.067 -0.5627 -0.7784  0.1780
  148MOL    C6629760   1.030   7.893   6.115 -0.0407  0.4173 -0.2286
  148MOL    H6729761   0.623   7.837   5.966  4.0821  1.9482 -0.7432
  148MOL    H6829762   0.573   7.811   6.132  0.2378 -0.1533  0.1351
  148MOL    H6929763   0.930   7.747   6.000  0.2516 -1.0531  0.7888
  148MOL    H7029764   1.013   7.946   6.209  2.0832 -0.0617  0.4626
  148MOL    H7129765   1.079   7.967   6.051  0.3163 -0.5702 -1.1131
  148MOL    C7229766   1.134   7.783   6.161  0.4458  1.0162 -0.7393
  148MOL    C7329767   1.086   7.682   6.258 -0.4506  0.8803  0.0882
  148MOL   Cl7429768   1.014   7.540   6.187 -0.0306 -0.0444  0.0246
  148MOL    C7529769   1.103   7.697   6.390  0.4892 -0.3353 -0.5000
  148MOL    C7629770   1.082   7.581   6.487 -0.4016  0.1663  0.7304
  148MOL    H7729771   1.226   7.832   6.195  0.7783 -0.3789  0.3959
  148MOL    H7829772   1.159   7.725   6.073  0.2186 -0.5253  0.1958
  148MOL    H7929773   1.140   7.788   6.436 -2.1426  0.0186  1.0219
  148MOL    H8029774   1.185   7.570   6.519 -0.6942 -0.9534  1.2902
  148MOL    H8129775   1.050   7.491   6.434  1.0729  0.9427 -1.5699
  148MOL    C8229776   0.997   7.618   6.605 -0.1172  0.5136 -0.2827
  148MOL    C8329777   0.880   7.702   6.568  0.2903 -0.0089 -0.5023
  148MOL   Cl8429778   0.752   7.620   6.488  0.0178  0.1240  0.1628
  148MOL    C8529779   0.870   7.828   6.608  0.1848  0.0160 -0.0386
  148MOL    C8629780   0.754   7.925   6.588  0.4742  0.1088  0.6583
  148MOL    H8729781   1.053   7.680   6.675 -0.0062  1.5713 -1.2834
  148MOL    H8829782   0.968   7.529   6.660  1.0605  0.2203 -0.1258
  148MOL    H8929783   0.957   7.870   6.656 -0.1750  1.3929 -0.5450
  148MOL    H9029784   0.700   7.887   6.501  1.3407  0.7188 -0.1517
  148MOL    H9129785   0.692   7.923   6.678 -1.7147 -2.0669 -0.8274
  148MOL    C9229786   0.798   8.070   6.566  0.0112 -0.2285 -0.9563
  148MOL    C9329787   0.684   8.162   6.526  1.3012  0.1339  0.2297
  148MOL   Cl9429788   0.530   8.086   6.502  0.1637 -0.3100 -0.5996
  148MOL    C9529789   0.684   8.294   6.513  0.3152  0.3778 -0.5119
  148MOL    C9629790   0.798   8.388   6.536  0.1017  0.4437 -0.7601
  148MOL    H9729791   0.867   8.073   6.481  0.8059 -2.0008 -0.3927
  148MOL    H9829792   0.850   8.104   6.655  0.4882 -0.2880 -1.2086
  148MOL    H9929793   0.599   8.351   6.480 -0.1013 -0.3698 -0.7517
  148MOL   H10029794   0.778   0.035   6.618 -2.4090  1.6713 -2.3197
  148MOL   H10129795   0.877   8.330   6.584  1.3329  2.0046 -0.8766
  148MOL   C10229796   0.843   0.046   6.406 -0.1003 -0.0797 -0.3902
  148MOL   C10329797   0.955   0.133   6.447  0.3964 -0.1783  0.2577
  148MOL  Cl10429798   0.917   0.306   6.423 -0.1435 -0.4922  0.3894
  148MOL   C10529799   1.075   0.091   6.494 -0.2511 -0.3418  0.0441
  148MOL   C10629800   1.191   0.168   6.547 -0.2767  0.1802 -0.1340
  148MOL   H10729801   0.874   8.403   6.323  1.5465 -0.0342  0.1867
  148MOL   H10829802   0.764   0.103   6.357 -1.5882 -1.9617 -0.2649
  148MOL   H10929803   1.101   8.407   6.501 -2.8236 -1.0102  0.4405
  148MOL   H11029804   1.271   0.187   6.475  0.9969 -2.0522  0.6605
  148MOL   H11129805   1.145   0.267   6.558  0.2101  0.4085 -0.1173
  148MOL   C11229806   1.241   0.120   6.679  0.4976  0.0551 -0.0895
  148MOL   C11329807   1.363   0.203   6.715  0.0707 -0.6622  0.8792
  148MOL  Cl11429808   1.323   0.310   6.838  0.0037 -0.1025 -0.2998
  148MOL   C11529809   1.488   0.198   6.656 -0.4887 -0.4211  0.2029
  148MOL   C11629810   1.524   0.112   6.530  0.0302 -0.2931 -0.3405
  148MOL   H11729811   1.159   0.119   6.750  0.5334 -0.6878 -0.0558
  148MOL   H11829812   1.284   0.020   6.679  4.1987  1.5207  1.2334
  148MOL   H11929813   1.563   0.264   6.697 -0.9742 -0.6041  1.4094
  148MOL   H12029814   1.522   0.175   6.441 -1.0159  0.1742  0.0043
  148MOL   H12129815   1.451   0.036   6.504 -0.2237  0.7118 -2.6577
  148MOL   C12229816   1.657   0.029   6.528  0.8262  0.2115 -0.5139
  148MOL   C12329817   1.665   8.344   6.416 -0.4178  0.0943 -0.0440
  148MOL  Cl12429818   1.629   8.186   6.475  0.5526 -0.1836  0.0836
  148MOL   C12529819   1.711   8.361   6.290 -0.2870 -0.1985 -0.2816
  148MOL   C12629820   1.759   0.067   6.225 -0.3594 -0.5040  0.1380
  148MOL   H12729821   1.741   0.095   6.508  1.0919  0.3941  1.0748
  148MOL   H12829822   1.671   8.405   6.627 -2.5732 -1.5766 -0.7439
  148MOL   H12929823   1.713   8.280   6.219  0.4138  0.6977 -1.2883
  148MOL   H13029824   1.760   0.160   6.282 -0.2729  0.0814 -0.8038
  148MOL   H13129825   1.865   0.048   6.208 -0.0854  0.4443  0.7652
  148MOL   C13229826   1.691   0.098   6.085 -0.3800 -0.3361  0.1777
  148MOL   C13329827   1.769   0.203   6.005  0.3095 -0.3067 -0.2089
  148MOL  Cl13429828   1.916   0.144   5.939 -0.1116 -0.0353 -0.3397
  148MOL   C13529829   1.732   0.333   6.000  0.3096  0.4223 -0.0818
  148MOL   C13629830   1.606   0.402   6.059  0.4084 -0.6578  0.0959
  148MOL   H13729831   1.685   0.008   6.024 -1.2152 -0.8818  1.0548
  148MOL   H13829832   1.589   0.135   6.097 -1.1032 -2.2479 -0.0261
  148MOL   H13929833   1.797   0.393   5.937 -2.1272  0.3440 -2.7591
  148MOL   H14029834   1.540   0.431   5.978 -0.4128 -1.7883  0.3489
  148MOL   H14129835   1.542   0.334   6.117 -0.3007  0.0392  0.1347
  148MOL   C14229836   1.630   0.530   6.141 -0.1560 -0.1397 -0.5602
  148MOL   C14329837   1.509   0.592   6.209 -0.1375 -0.3203  0.0997
  148MOL  Cl14429838   1.459   0.739   6.148 -0.1465  0.1483 -0.1010
  148MOL   C14529839   1.447   0.538   6.315  0.4479  0.0960  0.2468
  148MOL   C14629840   1.324   0.595   6.380 -1.3279  0.2800  0.0510
  148MOL   H14729841   1.681   0.610   6.087  0.2407 -1.6849 -2.5152
  148MOL   H14829842   1.704   0.505   6.216 -1.2380  0.2829  0.6620
  148MOL   H14929843   1.475   0.442   6.355  2.0157  1.7525  3.3488
  148MOL   H15029844   1.293   0.690   6.336  3.3465  2.5890  1.3871
  148MOL   H15129845   1.243   0.522   6.366 -2.1058  0.9755  0.8414
  148MOL   C15229846   1.339   0.618   6.527 -0.6997  0.5972  0.1967
  148MOL   C15329847   1.227   0.692   6.590 -0.0348  0.5947 -0.7717
  148MOL  Cl15429848   1.080   0.604   6.594 -0.2791 -0.0261  0.3460
  148MOL   C15529849   1.239   0.819   6.632  0.7814  0.1306  0.1866
  148MOL   C15629850   1.128   0.904   6.696 -0.1980  0.1708 -0.0173
  148MOL   H15729851   1.328   0.523   6.578  1.5061  1.7525  2.9797
  148MOL   H15829852   1.433   0.673   6.541 -0.4609  0.7513 -1.7783
  148MOL   H15929853   1.338   0.863   6.634  1.1474 -0.5310 -1.7945
  148MOL   H16029854   1.139   0.905   6.804  1.2196 -1.8199 -0.1226
  148MOL   H16129855   1.037   0.860   6.656  0.7331 -1.4243 -0.4554
  148MOL   C16229856   1.132   1.050   6.652  0.5066 -0.3626  0.3352
  148MOL   C16329857   1.025   1.153   6.705  0.1329  0.0206 -0.4142
  148MOL  Cl16429858   1.078   1.253   6.832  0.1035  0.4589  0.2120
  148MOL   C16529859   0.899   1.166   6.662 -0.0132  0.6070  0.2956
  148MOL   C16629860   0.786   1.249   6.706 -0.3293 -0.6415  0.1217
  148MOL   H16729861   1.235   1.081   6.667  0.4282  1.0046 -1.8265
  148MOL   H16829862   1.124   1.048   6.544  2.1898  1.4196  0.1466
  148MOL   H16929863   0.885   1.103   6.575  1.5735 -0.2828  0.6500
  148MOL   H17029864   0.811   1.338   6.763 -0.1012 -0.5172 -0.1738
  148MOL   H17129865   0.739   1.296   6.619 -0.0714 -1.8326 -0.6734
  148MOL   C17229866   0.673   1.156   6.770  1.2109  0.7648  0.2841
  148MOL   C17329867   0.714   1.109   6.910  0.0705  0.0409 -0.0917
  148MOL  Cl17429868   0.769   0.941   6.911  0.0010  0.6527 -0.0706
  148MOL   C17529869   0.710   1.185   7.022 -0.3012 -0.1952  0.2585
  148MOL   C17629870   0.758   1.140   7.160  0.2762  0.5903  0.0805
  148MOL   H17729871   0.642   1.074   6.705  0.6718  0.0693  1.4002
  148MOL   H17829872   0.579   1.206   6.791 -0.4269 -1.9180 -0.4925
  148MOL   H17929873   0.672   1.284   7.002  0.2882  0.4433  2.1686
  148MOL   H18029874   0.789   1.036   7.149  0.7717  0.4875  2.1637
  148MOL   H18129875   0.676   1.148   7.232  0.0084  0.4340 -0.2077
  148MOL   C18229876   0.894   1.205   7.198 -0.6349 -0.1556 -0.6613
  148MOL   C18329877   0.941   1.146   7.330 -0.4491  0.3820  0.2338
  148MOL  Cl18429878   0.873   1.231   7.456  0.1546  0.6008 -0.0514
  148MOL   C18529879   1.022   1.047   7.349 -0.3189  0.0206 -0.7795
  148MOL   C18629880   1.073   0.975   7.475 -0.4638 -0.4960  0.3955
  148MOL   H18729881   0.961   1.183   7.116 -0.2509 -1.3666 -0.0290
  148MOL   H18829882   0.878   1.311   7.216 -1.5147 -0.1511 -1.4164
  148MOL   H18929883   1.066   1.000   7.262  2.1516 -0.5500  0.7089
  148MOL   H19029884   1.173   0.945   7.442  0.6455  0.8728  2.4391
  148MOL   H19129885   1.083   1.041   7.561  0.3395  1.1350 -0.9039
  148MOL   C19229886   0.987   0.857   7.500 -0.2672 -1.0933  0.0288
  148MOL   C19329887   1.006   0.800   7.638 -0.1923  0.3628  0.1836
  148MOL  Cl19429888   0.911   0.879   7.758  0.4589  0.0468 -0.2537
  148MOL   C19529889   1.094   0.706   7.678  0.1278  0.3128 -0.3699
  148MOL   C19629890   1.189   0.625   7.589 -0.4161  0.0464 -0.5197
  148MOL   H19729891   1.015   0.781   7.428 -0.8888 -0.6955 -0.6319
  148MOL   H19829892   0.884   0.882   7.475  0.1839  0.4220 -0.3486
  148MOL   H19929893   1.099   0.685   7.784 -0.3644 -3.7491 -1.0976
  148MOL   H20029894   1.151   0.618   7.487  0.1887 -2.4331 -0.6177
  148MOL   H20129895   1.204   0.524   7.627  0.0450  0.4702  0.4433
  148MOL   H20229896   1.292   0.661   7.586 -0.5029  0.2242 -1.6069
  149MOL     C129897   6.280   0.900   3.298 -0.7135  0.4882  0.5339
  149MOL     C229898   6.248   0.998   3.406  0.4546 -0.4204  0.0188
  149MOL    Cl329899   6.386   1.020   3.515  0.1499  0.0559 -0.1540
  149MOL     C429900   6.128   1.062   3.429  0.8312 -0.4452 -0.3631
  149MOL     C529901   6.000   1.044   3.354 -0.2283 -0.2255 -0.2559
  149MOL     H629902   6.199   0.874   3.231 -0.4054  0.3520  0.2103
  149MOL     H729903   6.334   0.821   3.352 -2.6346  0.7285  2.8869
  149MOL     H829904   6.110   1.129   3.512  2.7496 -0.9709  0.4858
  149MOL     H929905   6.008   0.980   3.266  2.7868 -0.9844  0.5226
  149MOL    H1029906   5.933   0.997   3.426 -1.6855  1.1874 -0.6454
  149MOL    H1129907   6.351   0.950   3.232  0.1252 -0.9331  0.3258
  149MOL    C1229908   5.940   1.180   3.316  0.1056  0.3911  0.0757
  149MOL    C1329909   5.823   1.173   3.225 -0.3213  0.2192  0.5898
  149MOL   Cl1429910   5.862   1.200   3.065  0.1276  0.0221 -0.1167
  149MOL    C1529911   5.697   1.172   3.269 -0.0289 -0.9518 -0.4490
  149MOL    C1629912   5.648   1.160   3.405 -0.0908 -0.8193 -0.6981
  149MOL    H1729913   5.907   1.223   3.411  3.9959  1.2433  1.1338
  149MOL    H1829914   6.017   1.247   3.279  0.8346 -0.3117  0.3154
  149MOL    H1929915   5.620   1.185   3.194 -1.4556 -0.5559  1.0490
  149MOL    H2029916   5.567   1.087   3.411  0.5269 -1.3221  2.2608
  149MOL    H2129917   5.718   1.111   3.472  0.1173 -0.1485 -0.4224
  149MOL    C2229918   5.601   1.292   3.467  0.0905  0.2683  0.0263
  149MOL    C2329919   5.727   1.382   3.503  0.1174  0.9711  0.6868
  149MOL   Cl2429920   5.769   1.374   3.670 -0.1575 -0.0252  0.1368
  149MOL    C2529921   5.791   1.469   3.419  0.2258 -0.5617  0.3232
  149MOL    C2629922   5.908   1.555   3.464  0.1095  0.3112  0.0860
  149MOL    H2729923   5.519   1.339   3.412 -0.4078 -0.4801  0.1090
  149MOL    H2829924   5.559   1.268   3.565  0.5919 -0.4369  0.0709
  149MOL    H2929925   5.754   1.484   3.318  2.2995  0.5699 -0.3087
  149MOL    H3029926   5.929   1.547   3.570  0.3852 -1.7784 -0.1179
  149MOL    H3129927   5.999   1.518   3.417  0.8042  0.0828  1.5849
  149MOL    C3229928   5.892   1.705   3.437  0.4370  0.1969 -0.1967
  149MOL    C3329929   6.005   1.788   3.482  0.4183 -0.6099  0.5724
  149MOL   Cl3429930   5.962   1.853   3.631  0.2026 -0.1178  0.1208
  149MOL    C3529931   6.120   1.807   3.416 -0.8139  0.2110  0.3665
  149MOL    C3629932   6.232   1.895   3.461 -0.4940  0.2831 -0.3419
  149MOL    H3729933   5.862   1.718   3.333 -0.0901 -1.4685 -0.2721
  149MOL    H3829934   5.803   1.729   3.496  0.7634 -0.3497  0.5181
  149MOL    H3929935   6.134   1.756   3.321  1.4469  1.0509  0.2269
  149MOL    H4029936   6.289   1.943   3.381 -1.5867  2.6421  0.2466
  149MOL    H4129937   6.189   1.973   3.525 -0.3463 -1.8566  2.4597
  149MOL    C4229938   6.335   1.825   3.548 -0.7170  0.3444 -0.2341
  149MOL    C4329939   6.447   1.910   3.598  0.1803 -0.0568  0.1095
  149MOL   Cl4429940   6.591   1.902   3.494  0.3919  0.2660  0.1617
  149MOL    C4529941   6.438   1.985   3.708 -0.3271  0.3767 -0.2219
  149MOL    C4629942   6.315   2.025   3.785 -0.2352  0.5325 -0.4667
  149MOL    H4729943   6.294   1.777   3.637  0.5952  1.8278  1.2196
  149MOL    H4829944   6.381   1.750   3.485 -2.4740 -0.3704 -0.6898
  149MOL    H4929945   6.529   2.032   3.741  0.5371 -1.7002  0.4279
  149MOL    H5029946   6.237   1.957   3.751  2.1409 -0.6472 -3.8727
  149MOL    H5129947   6.332   2.007   3.891  0.2692 -2.2397 -0.9739
  149MOL    C5229948   6.292   2.166   3.753 -0.4186 -0.2758 -0.5416
  149MOL    C5329949   6.195   2.235   3.854 -0.4186  0.0015 -0.1094
  149MOL   Cl5429950   6.047   2.156   3.883 -0.2085  0.0522 -0.0002
  149MOL    C5529951   6.220   2.357   3.906  0.6749  0.1551 -0.2793
  149MOL    C5629952   6.127   2.428   4.005  0.1193 -0.0441 -0.4655
  149MOL    H5729953   6.384   2.224   3.745 -1.2678  1.2434  0.4226
  149MOL    H5829954   6.246   2.167   3.654 -1.4618  0.2306 -0.0551
  149MOL    H5929955   6.301   2.421   3.876  1.6061 -0.4191  0.9595
  149MOL    H6029956   6.034   2.374   4.021  1.5749 -1.4485  4.3161
  149MOL    H6129957   6.175   2.422   4.103 -0.8707 -0.5612 -0.0029
  149MOL    C6229958   6.116   2.566   3.961 -0.0878  0.5710 -0.0765
  149MOL    C6329959   6.015   2.646   4.046  0.1523  0.1070  0.2206
  149MOL   Cl6429960   6.103   2.748   4.159  0.5421  0.5332 -0.0574
  149MOL    C6529961   5.883   2.629   4.044  0.5662  0.0516 -0.5625
  149MOL    C6629962   5.780   2.694   4.135  0.7494  0.1914  0.9235
  149MOL    H6729963   6.214   2.613   3.966 -0.6003  1.6613 -0.0877
  149MOL    H6829964   6.083   2.569   3.857  0.3745  1.3345 -0.2118
  149MOL    H6929965   5.845   2.556   3.974  1.1424  0.1800 -1.0002
  149MOL    H7029966   5.698   2.737   4.078  2.3704 -0.0272 -1.6672
  149MOL    H7129967   5.831   2.779   4.181 -0.1436  2.1650 -1.6086
  149MOL    C7229968   5.735   2.609   4.249 -0.8571 -0.1137  0.2012
  149MOL    C7329969   5.676   2.480   4.209  0.0410  0.2023  0.0178
  149MOL   Cl7429970   5.506   2.513   4.196  0.3059 -0.5879  0.0055
  149MOL    C7529971   5.741   2.362   4.186 -0.5379  0.8497  0.2434
  149MOL    C7629972   5.684   2.232   4.135 -0.1078 -0.1526  0.0472
  149MOL    H7729973   5.670   2.662   4.319 -2.5475 -0.6716 -0.9104
  149MOL    H7829974   5.823   2.578   4.305  0.7398  0.4218 -1.9638
  149MOL    H7929975   5.848   2.350   4.189 -0.6252 -0.1037 -0.6417
  149MOL    H8029976   5.576   2.239   4.153 -0.6229 -2.9847 -1.6077
  149MOL    H8129977   5.714   2.139   4.184 -1.7719 -0.1510  1.1210
  149MOL    C8229978   5.687   2.218   3.984  0.2098 -0.2824 -0.0346
  149MOL    C8329979   5.596   2.109   3.923 -0.0672 -0.7607 -0.3180
  149MOL   Cl8429980   5.443   2.184   3.880  0.0398 -0.1458  0.6381
  149MOL    C8529981   5.630   1.982   3.888  0.2735 -0.1884 -0.7030
  149MOL    C8629982   5.529   1.888   3.820 -0.2322 -0.2794 -0.4286
  149MOL    H8729983   5.785   2.188   3.947  0.2862  1.2933 -1.1737
  149MOL    H8829984   5.679   2.314   3.933  3.1024 -0.7486 -1.5132
  149MOL    H8929985   5.732   1.953   3.904  0.2364  0.3492  0.5867
  149MOL    H9029986   5.524   1.801   3.885  0.4679  0.9978  1.3720
  149MOL    H9129987   5.429   1.930   3.819 -1.2654 -2.5997  1.2884
  149MOL    C9229988   5.587   1.826   3.689  0.5760 -0.5042 -0.2022
  149MOL    C9329989   5.496   1.724   3.624 -0.1543 -0.2576 -0.1586
  149MOL   Cl9429990   5.498   1.570   3.698 -0.2337 -0.2539  0.1307
  149MOL    C9529991   5.423   1.739   3.512  0.1347 -0.7752  0.0807
  149MOL    C9629992   5.398   1.863   3.426 -0.0247 -0.1259 -0.1631
  149MOL    H9729993   5.683   1.776   3.704  2.5807  3.4795  0.8096
  149MOL    H9829994   5.607   1.907   3.619  2.0175  0.7713  1.6471
  149MOL    H9929995   5.361   1.656   3.481  0.5095 -0.9177 -0.2898
  149MOL   H10029996   5.290   1.874   3.411 -0.1512 -0.7285  0.3044
  149MOL   H10129997   5.427   1.951   3.483 -1.2768  0.3206 -0.1972
  149MOL   C10229998   5.466   1.846   3.282  0.3067 -0.3065 -0.4576
  149MOL   C10329999   5.418   1.721   3.205 -0.2272 -0.0274  0.1250
  149MOL  Cl10430000   5.248   1.729   3.175  0.1622  0.1633  0.0237
  149MOL   C10530001   5.492   1.613   3.175  0.1215  0.1977 -0.1515
  149MOL   C10630002   5.448   1.480   3.114  0.6501 -0.2444 -0.5104
  149MOL   H10730003   5.427   1.922   3.214 -0.3137 -1.2413 -1.1636
  149MOL   H10830004   5.574   1.854   3.299  0.2084 -1.1157  0.6084
  149MOL   H10930005   5.599   1.613   3.189  0.1678 -0.0790 -0.5021
  149MOL   H11030006   5.480   1.398   3.178  0.1277 -0.5326 -0.6118
  149MOL   H11130007   5.339   1.477   3.118  0.7030 -0.7088  0.8228
  149MOL   C11230008   5.482   1.461   2.966  0.5087 -0.1206  0.2936
  149MOL   C11330009   5.433   1.335   2.900  0.5359  0.4069 -0.0932
  149MOL  Cl11430010   5.558   1.220   2.864 -0.0786 -0.0712 -0.0838
  149MOL   C11530011   5.311   1.317   2.851 -0.2230 -0.6093 -0.7066
  149MOL   C11630012   5.191   1.416   2.859 -0.1243 -0.0244 -0.3828
  149MOL   H11730013   5.438   1.541   2.907  0.7891 -1.3764 -1.6756
  149MOL   H11830014   5.591   1.464   2.962  0.5138 -0.1974  0.3679
  149MOL   H11930015   5.290   1.223   2.803 -0.4278 -2.4141  2.7796
  149MOL   H12030016   5.204   1.490   2.938  0.0265 -0.0200 -0.4132
  149MOL   H12130017   5.102   1.361   2.890  0.9870 -1.1192  0.9356
  149MOL   C12230018   5.154   1.469   2.712 -0.2584  0.3472 -0.5161
  149MOL   C12330019   5.248   1.586   2.668 -0.1399 -0.1680 -0.2644
  149MOL  Cl12430020   5.170   1.734   2.687 -0.1204  0.0921  0.2235
  149MOL   C12530021   5.369   1.588   2.613  0.2823  0.2858 -1.0391
  149MOL   C12630022   5.464   1.474   2.585 -0.0534 -0.0180 -0.5905
  149MOL   H12730023   5.168   1.386   2.642  0.3825  0.8253 -0.9628
  149MOL   H12830024   5.053   1.508   2.723 -1.1219 -2.6200  3.1597
  149MOL   H12930025   5.415   1.683   2.587  0.2251  0.3324 -0.9724
  149MOL   H13030026   5.542   1.470   2.660 -1.1438  1.4511  0.6476
  149MOL   H13130027   5.411   1.383   2.613  1.9933 -0.9052  0.4723
  149MOL   C13230028   5.512   1.471   2.436  0.3062 -0.1139  0.2814
  149MOL   C13330029   5.633   1.562   2.411 -0.2905 -0.0343  0.1638
  149MOL  Cl13430030   5.591   1.710   2.329 -0.3353  0.1932  0.1604
  149MOL   C13530031   5.759   1.526   2.433 -0.2565  0.0229 -0.0794
  149MOL   C13630032   5.817   1.394   2.488  0.5625  0.4860 -0.3135
  149MOL   H13730033   5.547   1.370   2.415  0.8631 -0.2994  2.0539
  149MOL   H13830034   5.435   1.500   2.365  1.0428 -0.7966 -0.8051
  149MOL   H13930035   5.837   1.596   2.408  1.4427 -2.0301 -0.6908
  149MOL   H14030036   5.737   1.329   2.523  2.1850 -1.3266  0.1303
  149MOL   H14130037   5.851   1.336   2.402 -0.7512 -1.0674  0.1905
  149MOL   C14230038   5.915   1.406   2.602 -0.0360  0.5953 -0.7290
  149MOL   C14330039   6.003   1.285   2.624  0.2947  0.1214  0.2344
  149MOL  Cl14430040   6.163   1.303   2.559 -0.7375 -0.3060 -0.1167
  149MOL   C14530041   5.956   1.168   2.683 -0.3974 -0.1655 -0.1074
  149MOL   C14630042   6.047   1.042   2.701 -0.7143  0.1646 -0.1057
  149MOL   H14730043   5.866   1.413   2.699 -0.2925  0.1744 -0.8260
  149MOL   H14830044   5.968   1.500   2.594  0.4385  0.4946  1.0506
  149MOL   H14930045   5.851   1.164   2.709 -0.5098  0.6206 -0.4232
  149MOL   H15030046   6.013   0.962   2.635  2.6557  0.9751 -2.9380
  149MOL   H15130047   6.143   1.066   2.657 -1.1153 -0.0350 -1.1029
  149MOL   C15230048   6.047   0.987   2.841 -0.6491 -0.4751 -1.1403
  149MOL   C15330049   6.139   0.863   2.856 -0.0370  0.9087  0.8296
  149MOL  Cl15430050   6.055   0.719   2.803  0.2161  0.0998 -0.0387
  149MOL   C15530051   6.261   0.862   2.902 -0.0795 -0.1136  0.2306
  149MOL   C15630052   6.361   0.747   2.903  0.8192 -0.6477  0.1606
  149MOL   H15730053   6.101   1.058   2.903 -1.3554 -1.0117  0.1099
  149MOL   H15830054   5.950   0.965   2.885 -0.4830  0.0853 -0.4733
  149MOL   H15930055   6.310   0.954   2.931  0.3945 -0.6146  1.0414
  149MOL   H16030056   6.433   0.767   2.823 -1.1966  0.3806 -1.4542
  149MOL   H16130057   6.303   0.656   2.893  0.7586 -0.4622 -1.2908
  149MOL   C16230058   6.437   0.729   3.035  0.4557 -0.3370 -0.2598
  149MOL   C16330059   6.541   0.618   3.031 -0.3401 -0.4888 -0.4650
  149MOL  Cl16430060   6.506   0.484   3.136  0.4021 -0.0623  0.1580
  149MOL   C16530061   6.650   0.624   2.956 -0.2075 -0.8171 -0.3620
  149MOL   C16630062   6.751   0.514   2.936 -0.0665 -0.3194  0.2461
  149MOL   H16730063   6.470   0.827   3.069 -1.0677  0.4364 -0.9533
  149MOL   H16830064   6.361   0.715   3.112  2.4901 -0.1844  1.8366
  149MOL   H16930065   6.673   0.702   2.885 -0.6264 -1.4092 -1.1578
  149MOL   H17030066   6.738   0.422   2.994 -0.0965 -0.5473 -0.1255
  149MOL   H17130067   6.735   0.490   2.831  0.3398  2.2207 -0.4343
  149MOL   C17230068   6.893   0.564   2.945  0.4567 -0.0461  0.8743
  149MOL   C17330069   6.921   0.619   3.080 -0.5390 -0.0812 -0.3766
  149MOL  Cl17430070   7.035   0.744   3.075  0.5823  0.1394  0.8042
  149MOL   C17530071   6.860   0.588   3.201 -0.5726 -0.1062 -0.2592
  149MOL   C17630072   6.895   0.646   3.339 -0.3653  0.0935  0.3814
  149MOL   H17730073   6.919   0.637   2.868  0.4603 -0.0377  0.8833
  149MOL   H17830074   6.974   0.491   2.933  2.4533  2.3547 -0.7314
  149MOL   H17930075   6.775   0.522   3.204 -1.0986  0.5473 -0.6033
  149MOL   H18030076   6.953   0.738   3.335  0.9357 -0.6904  1.0480
  149MOL   H18130077   6.958   0.570   3.386 -0.6997 -0.3686  0.0882
  149MOL   C18230078   6.768   0.685   3.417  0.1001  0.4230 -0.1341
  149MOL   C18330079   6.794   0.743   3.554  0.2746 -0.6548  0.0653
  149MOL  Cl18430080   6.933   0.692   3.642  0.5867  0.2941 -0.0803
  149MOL   C18530081   6.728   0.853   3.592  0.1488  0.3654 -0.5570
  149MOL   C18630082   6.749   0.938   3.717  0.9421 -0.5074 -0.2924
  149MOL   H18730083   6.722   0.767   3.361  0.0592 -0.3438 -1.2303
  149MOL   H18830084   6.700   0.601   3.424 -0.6080  0.9311 -0.8733
  149MOL   H18930085   6.645   0.893   3.536 -2.6262 -0.8740  2.4738
  149MOL   H19030086   6.850   0.926   3.758  1.3743  0.9864 -0.8571
  149MOL   H19130087   6.745   1.043   3.687  3.2046  0.1499  1.5264
  149MOL   C19230088   6.629   0.926   3.820 -0.2926 -0.3221 -0.2673
  149MOL   C19330089   6.631   0.792   3.890 -0.3392 -0.4927 -0.0758
  149MOL  Cl19430090   6.703   0.813   4.052  0.6947  0.4375 -0.4631
  149MOL   C19530091   6.561   0.683   3.865  0.3730 -0.0601  0.8183
  149MOL   C19630092   6.474   0.665   3.736  0.9610  0.2702  0.2256
  149MOL   H19730093   6.539   0.938   3.761  0.5229 -1.3695 -1.7678
  149MOL   H19830094   6.628   1.006   3.895  1.3957 -1.1913  0.7230
  149MOL   H19930095   6.566   0.602   3.936  0.1761 -0.9092 -0.1421
  149MOL   H20030096   6.527   0.619   3.653 -0.2755 -0.0142 -0.4148
  149MOL   H20130097   6.439   0.764   3.705  1.3084 -0.1431 -1.5395
  149MOL   H20230098   6.383   0.607   3.749  0.7143  0.9277  1.5251
  150MOL     C130099   0.299   0.313   3.325  0.2937  0.1238  0.1293
  150MOL     C230100   0.436   0.293   3.284 -0.0466 -0.4057  0.5548
  150MOL    Cl330101   0.530   0.209   3.406  0.0584  0.2593  0.2270
  150MOL     C430102   0.494   0.315   3.164  1.0807  0.2593 -0.7961
  150MOL     C530103   0.423   0.391   3.048 -0.4056  0.2377 -0.1987
  150MOL     H630104   0.293   0.421   3.327 -0.8718  0.1062 -1.3353
  150MOL     H730105   0.289   0.265   3.423  3.0798  0.6236  0.7005
  150MOL     H830106   0.597   0.285   3.148 -0.2767 -4.5811 -1.3895
  150MOL     H930107   0.449   0.329   2.962  0.2798 -0.5183  0.5530
  150MOL    H1030108   0.316   0.379   3.065  0.1997 -2.0450  2.3527
  150MOL    H1130109   0.221   0.272   3.260  0.4392 -1.3265  0.8362
  150MOL    C1230110   0.457   0.544   3.027 -0.3541  0.1327 -0.6405
  150MOL    C1330111   0.359   0.605   2.928  0.3365  1.1175 -0.4052
  150MOL   Cl1430112   0.207   0.652   3.003 -0.3222  0.1866 -0.0477
  150MOL    C1530113   0.376   0.603   2.798  0.6753 -0.4915  0.7455
  150MOL    C1630114   0.489   0.550   2.720 -0.6062  0.0525  0.5846
  150MOL    H1730115   0.434   0.601   3.117 -1.0988  0.8006 -1.2519
  150MOL    H1830116   0.564   0.563   3.014  0.0712  0.3553  2.5392
  150MOL    H1930117   0.294   0.641   2.738  1.9357  0.6646 -0.2735
  150MOL    H2030118   0.516   0.638   2.663 -2.6231 -0.6509 -1.5469
  150MOL    H2130119   0.573   0.529   2.787  1.3551  0.9240 -1.5454
  150MOL    C2230120   0.447   0.430   2.628  0.2027  0.1983 -0.8153
  150MOL    C2330121   0.555   0.387   2.534 -0.0098  0.1829 -0.2319
  150MOL   Cl2430122   0.492   0.348   2.381 -0.3134  0.5634  0.4380
  150MOL    C2530123   0.684   0.378   2.566 -0.4005 -0.1407  0.0998
  150MOL    C2630124   0.792   0.346   2.469 -0.3433 -0.0514 -0.1879
  150MOL    H2730125   0.419   0.345   2.690  1.1391  0.9162  0.6141
  150MOL    H2830126   0.359   0.455   2.568 -1.4291 -1.4287  0.8171
  150MOL    H2930127   0.718   0.394   2.668 -0.3678  2.7326 -0.3211
  150MOL    H3030128   0.755   0.318   2.370 -0.5636 -1.1120  0.1834
  150MOL    H3130129   0.831   0.447   2.458 -1.9655  0.4737 -1.2179
  150MOL    C3230130   0.894   0.246   2.528 -0.6017 -0.3468  0.1144
  150MOL    C3330131   1.013   0.191   2.436  0.1787  0.3444 -0.2382
  150MOL   Cl3430132   1.118   0.100   2.535  0.3490  0.4408 -0.3777
  150MOL    C3530133   1.033   0.220   2.305 -0.2643 -0.7687  0.0044
  150MOL    C3630134   1.147   0.175   2.219 -0.5675 -0.4141 -0.5437
  150MOL    H3730135   0.927   0.288   2.623 -1.0959 -1.1378  0.6405
  150MOL    H3830136   0.836   0.156   2.549 -0.4914 -0.4887 -0.1843
  150MOL    H3930137   0.961   0.287   2.259  0.8460  0.3166 -0.1910
  150MOL    H4030138   1.169   0.077   2.259 -1.3995 -0.4245 -0.1024
  150MOL    H4130139   1.104   0.160   2.121 -1.0867  1.0641 -0.5522
  150MOL    C4230140   1.264   0.273   2.229  0.0792  0.7860  0.0091
  150MOL    C4330141   1.395   0.238   2.155  0.4239  0.0783 -0.5256
  150MOL   Cl4430142   1.408   0.343   2.019 -0.1295  0.0930 -0.0252
  150MOL    C4530143   1.499   0.156   2.190  0.1452  0.4188 -0.4452
  150MOL    C4630144   1.506   0.066   2.314  0.2280 -0.0882  0.1315
  150MOL    H4730145   1.227   0.368   2.190 -0.7331  1.3048  1.9968
  150MOL    H4830146   1.291   0.286   2.333  1.0794 -0.3193 -0.1039
  150MOL    H4930147   1.592   0.156   2.135 -0.6143 -1.1890 -1.7681
  150MOL    H5030148   1.406   0.051   2.354  0.2233  1.1988  0.6307
  150MOL    H5130149   1.541   8.390   2.277  2.4147  1.2844 -1.5283
  150MOL    C5230150   1.596   0.115   2.426 -0.3263 -0.1230 -0.1987
  150MOL    C5330151   1.603   0.035   2.554  0.2171  0.0753 -0.1088
  150MOL   Cl5430152   1.707   0.113   2.676  0.0756  0.4115 -0.5009
  150MOL    C5530153   1.514   8.363   2.587 -0.1333 -0.3775  0.8305
  150MOL    C5630154   1.501   8.292   2.720 -0.0447  0.4164  0.1581
  150MOL    H5730155   1.697   0.119   2.384 -0.0417  2.0777  0.6504
  150MOL    H5830156   1.578   0.220   2.450  0.9671  0.9147 -3.3930
  150MOL    H5930157   1.450   8.333   2.505 -0.9047  1.4108  0.7445
  150MOL    H6030158   1.557   8.199   2.717  0.4824  0.7668 -1.8649
  150MOL    H6130159   1.558   8.346   2.795 -1.4909 -0.2241  1.7414
  150MOL    C6230160   1.348   8.271   2.745  0.2659 -0.2563  0.2063
  150MOL    C6330161   1.309   8.216   2.886  0.2709 -0.4967  0.0501
  150MOL   Cl6430162   1.137   8.229   2.916 -0.5101  0.3972  0.2131
  150MOL    C6530163   1.394   8.184   2.985 -0.2682  0.0833  1.0817
  150MOL    C6630164   1.368   8.142   3.133  0.0985  0.0483 -0.5444
  150MOL    H6730165   1.303   8.367   2.722  0.5475 -0.0898  0.3455
  150MOL    H6830166   1.316   8.195   2.674  0.9436  0.9882 -1.4704
  150MOL    H6930167   1.502   8.177   2.974 -0.4183 -0.6016  0.0181
  150MOL    H7030168   1.442   8.066   3.160  1.8261  1.7178 -0.5027
  150MOL    H7130169   1.269   8.100   3.151  0.2190 -0.3092 -0.7084
  150MOL    C7230170   1.361   8.268   3.224 -0.3333  0.2458 -0.4891
  150MOL    C7330171   1.344   8.226   3.372  0.1467  0.7106  1.0222
  150MOL   Cl7430172   1.187   8.275   3.443  0.1027  0.0032 -0.2018
  150MOL    C7530173   1.439   8.154   3.438 -0.0055 -0.0468 -0.4191
  150MOL    C7630174   1.436   8.097   3.579  0.0943 -0.5091 -0.1238
  150MOL    H7730175   1.262   8.311   3.206 -1.1216 -0.6652  1.4534
  150MOL    H7830176   1.446   8.335   3.217 -0.3642  0.4071  0.5373
  150MOL    H7930177   1.530   8.136   3.384  1.6728  1.5942  1.7793
  150MOL    H8030178   1.339   8.118   3.625  2.1821 -0.0928  4.3109
  150MOL    H8130179   1.507   8.145   3.646 -3.4237 -0.4332  3.7604
  150MOL    C8230180   1.458   7.944   3.569  0.5012  0.2972  0.0378
  150MOL    C8330181   1.437   7.856   3.689 -0.8369 -0.1931 -0.6673
  150MOL   Cl8430182   1.592   7.804   3.754 -0.0485 -0.2268 -0.0785
  150MOL    C8530183   1.315   7.803   3.718  0.1203 -0.4170  0.2210
  150MOL    C8630184   1.285   7.691   3.815  1.2806  0.3202 -0.5860
  150MOL    H8730185   1.552   7.912   3.524  0.4424 -0.4722  0.4495
  150MOL    H8830186   1.392   7.906   3.492 -0.3392  0.0576  0.8702
  150MOL    H8930187   1.226   7.842   3.671  0.2758 -0.5770 -0.2118
  150MOL    H9030188   1.372   7.651   3.867  0.1234 -1.5157 -0.0112
  150MOL    H9130189   1.219   7.745   3.883  1.7430 -1.2524  1.1265
  150MOL    C9230190   1.198   7.584   3.741 -0.2160  0.2094  0.1825
  150MOL    C9330191   1.132   7.475   3.828 -0.2336  0.0747  0.7974
  150MOL   Cl9430192   1.221   7.321   3.827 -0.4385  0.0399 -0.0212
  150MOL    C9530193   1.030   7.487   3.916  0.1206 -0.8467  0.9301
  150MOL    C9630194   0.951   7.613   3.960 -0.1255  0.5849  0.6296
  150MOL    H9730195   1.267   7.535   3.672 -1.2072 -0.6742 -0.2050
  150MOL    H9830196   1.120   7.637   3.686 -1.0200  1.2327  2.2464
  150MOL    H9930197   1.012   7.390   3.962 -0.3243 -0.8888  0.6741
  150MOL   H10030198   0.960   7.694   3.888  0.5653 -0.4942 -0.5102
  150MOL   H10130199   0.847   7.587   3.979  0.4636 -2.5942 -0.2025
  150MOL   C10230200   1.006   7.654   4.094 -0.0320 -0.3865  0.4386
  150MOL   C10330201   0.950   7.788   4.144 -0.0478  0.2349 -0.3890
  150MOL  Cl10430202   0.821   7.754   4.253  0.2645  0.1638 -0.1528
  150MOL   C10530203   0.985   7.914   4.119  0.9251 -0.7987  0.5096
  150MOL   C10630204   0.927   8.049   4.179  0.0283  0.6062  0.5071
  150MOL   H10730205   0.987   7.575   4.167  0.1946 -0.6289  0.2342
  150MOL   H10830206   1.114   7.660   4.089  0.1427  0.6315  4.0667
  150MOL   H10930207   1.065   7.917   4.046  1.1478  0.5519  0.8110
  150MOL   H11030208   0.865   8.040   4.269 -1.3552  4.1016 -0.0191
  150MOL   H11130209   1.015   8.104   4.214  0.1052  1.7459 -1.4087
  150MOL   C11230210   0.861   8.130   4.070  1.0673  0.9775 -0.0283
  150MOL   C11330211   0.786   8.256   4.123  0.7355  0.2331 -0.7475
  150MOL  Cl11430212   0.646   8.211   4.215 -0.1114 -0.3943  0.1235
  150MOL   C11530213   0.820   8.392   4.106  1.0632 -0.6077  0.4092
  150MOL   C11630214   0.933   0.030   4.035 -0.2943 -0.3261  0.6605
  150MOL   H11730215   0.934   8.165   3.997  1.7949  0.5910  0.4987
  150MOL   H11830216   0.774   8.087   4.021  1.7672 -1.0810  0.4941
  150MOL   H11930217   0.751   0.048   4.136  0.6665  0.1341 -2.2395
  150MOL   H12030218   0.884   0.104   3.972  0.3585 -0.8860 -0.5300
  150MOL   H12130219   0.970   8.379   3.962  2.5222  1.0941  0.6367
  150MOL   C12230220   1.053   0.073   4.130  1.0799  0.8838 -0.4268
  150MOL   C12330221   1.159   0.152   4.057  0.0501 -0.6212  0.2249
  150MOL  Cl12430222   1.185   0.312   4.113  0.1097  0.2589 -0.1446
  150MOL   C12530223   1.235   0.098   3.965 -0.0386  0.4561  0.2127
  150MOL   C12630224   1.230   8.369   3.921 -0.6689 -0.4350 -0.3387
  150MOL   H12730225   1.006   0.121   4.216 -1.2538  0.1689 -1.2633
  150MOL   H12830226   1.096   8.396   4.155 -0.8547  0.1786  0.2611
  150MOL   H12930227   1.309   0.165   3.923  0.2465  0.2867  0.4366
  150MOL   H13030228   1.151   8.306   3.960 -0.2040 -1.1419 -0.5340
  150MOL   H13130229   1.209   8.364   3.814  1.1860 -0.5911 -0.7106
  150MOL   C13230230   1.355   8.295   3.956 -0.2834  0.0130 -0.2371
  150MOL   C13330231   1.483   8.339   3.893 -0.5852 -0.4366 -0.2517
  150MOL  Cl13430232   1.465   0.024   3.750 -0.2993  0.0806  0.1216
  150MOL   C13530233   1.602   8.310   3.940  1.7479  0.0932 -0.5315
  150MOL   C13630234   1.638   8.215   4.056  0.3934 -0.0620  0.2296
  150MOL   H13730235   1.363   8.309   4.064  1.1078  0.3598 -0.3729
  150MOL   H13830236   1.342   8.187   3.963 -1.1762  0.1179 -0.2588
  150MOL   H13930237   1.689   8.353   3.893  2.2878  0.5349  0.8347
  150MOL   H14030238   1.548   8.200   4.115  0.7715  0.7696  1.0345
  150MOL   H14130239   1.670   8.120   4.015 -1.8092 -0.9094  0.4273
  150MOL   C14230240   1.755   8.258   4.141  0.0018 -0.4513 -0.0255
  150MOL   C14330241   1.787   8.158   4.251 -0.0821 -0.1759  0.1372
  150MOL  Cl14430242   1.889   8.032   4.188  0.1116  0.2442 -0.0712
  150MOL   C14530243   1.738   8.152   4.374 -0.2425 -0.1276 -0.2010
  150MOL   C14630244   1.760   8.046   4.483  0.2037 -0.5098  0.1062
  150MOL   H14730245   1.724   8.355   4.182  2.0539  0.7062 -1.1422
  150MOL   H14830246   1.841   8.280   4.078  0.8967 -0.1155  1.2884
  150MOL   H14930247   1.670   8.231   4.403  0.1676  0.5883 -1.2017
  150MOL   H15030248   1.678   7.976   4.477 -0.3816  0.1971 -0.1893
  150MOL   H15130249   1.850   7.986   4.468  0.1579 -0.4205 -0.5513
  150MOL   C15230250   1.738   8.090   4.626  0.0719 -0.5205  0.5348
  150MOL   C15330251   1.758   7.980   4.721 -0.7504 -0.7719 -0.0700
  150MOL  Cl15430252   1.614   7.893   4.745  0.2607 -0.2100  0.2759
  150MOL   C15530253   1.879   7.945   4.772 -0.4571 -0.3266 -0.1962
  150MOL   C15630254   1.900   7.837   4.874  0.9731  0.2327  0.3926
  150MOL   H15730255   1.803   8.175   4.642  2.0286 -1.9745  0.4988
  150MOL   H15830256   1.632   8.114   4.637 -0.8141 -3.7799 -0.1356
  150MOL   H15930257   1.967   8.001   4.743  0.8173 -1.7757  0.8021
  150MOL   H16030258   1.908   7.754   4.803  0.4714 -0.7321  1.4492
  150MOL   H16130259   1.811   7.812   4.932  0.8653  1.1355  0.6127
  150MOL   C16230260   2.024   7.863   4.969  0.4084 -0.4746  0.1771
  150MOL   C16330261   2.033   7.758   5.080  0.1186 -0.6160  0.0374
  150MOL  Cl16430262   1.900   7.777   5.189  0.5410 -0.1124  0.3511
  150MOL   C16530263   2.139   7.690   5.107 -0.5612 -0.2695  0.1798
  150MOL   C16630264   2.169   7.618   5.240  0.0608  0.4496  0.0437
  150MOL   H16730265   2.115   7.871   4.909 -0.2992  1.0492 -0.7283
  150MOL   H16830266   2.022   7.956   5.026 -0.7724 -2.2062  3.0495
  150MOL   H16930267   2.220   7.683   5.036 -0.0579 -0.1977  0.7429
  150MOL   H17030268   2.095   7.658   5.310 -0.6706 -1.4942  0.4029
  150MOL   H17130269   2.138   7.518   5.211 -0.2931  0.4819  0.3040
  150MOL   C17230270   2.318   7.636   5.289  0.0272 -0.5966 -0.4189
  150MOL   C17330271   2.372   7.526   5.392 -0.2840 -0.4848  0.1672
  150MOL  Cl17430272   2.238   7.467   5.482 -0.4646  0.0324  0.1874
  150MOL   C17530273   2.501   7.483   5.405  0.0459  0.5732 -0.2373
  150MOL   C17630274   2.550   7.386   5.516 -0.3482 -0.2477 -0.2046
  150MOL   H17730275   2.325   7.721   5.358  0.4441 -1.4550  0.6062
  150MOL   H17830276   2.394   7.663   5.215  2.0332 -0.6626  1.5579
  150MOL   H17930277   2.572   7.524   5.335  1.1214 -2.7380 -1.2308
  150MOL   H18030278   2.478   7.314   5.556  0.9634 -0.8160  1.2068
  150MOL   H18130279   2.567   7.443   5.608  1.9638 -0.6251 -0.3641
  150MOL   C18230280   2.684   7.315   5.479 -0.6140  0.1849  0.7376
  150MOL   C18330281   2.715   7.178   5.543  0.4460 -0.3838  0.5200
  150MOL  Cl18430282   2.700   7.170   5.713 -0.1452  0.3472  0.0931
  150MOL   C18530283   2.750   7.069   5.471  0.1643 -0.3115  0.1314
  150MOL   C18630284   2.763   6.927   5.514 -0.4968  0.2373  0.4792
  150MOL   H18730285   2.684   7.317   5.370 -0.2157  0.1459  0.7382
  150MOL   H18830286   2.767   7.377   5.511  0.3391  0.4817 -2.1063
  150MOL   H18930287   2.775   7.103   5.371 -0.1384  2.2791  0.8853
  150MOL   H19030288   2.736   6.898   5.615  1.0392 -1.2890  0.4817
  150MOL   H19130289   2.697   6.876   5.443  1.4266 -1.3299 -0.2307
  150MOL   C19230290   2.915   6.882   5.489  0.4776  0.0058  0.0051
  150MOL   C19330291   2.939   6.734   5.509  0.7244  0.7869 -0.1567
  150MOL  Cl19430292   2.959   6.652   5.361  0.2313 -0.0089  0.0909
  150MOL   C19530293   2.955   6.669   5.629 -0.5363 -0.5774 -0.1426
  150MOL   C19630294   2.943   6.731   5.769  0.3736  0.5163  0.7052
  150MOL   H19730295   2.985   6.935   5.552 -0.5446 -0.6189  1.6990
  150MOL   H19830296   2.942   6.910   5.387 -0.3875  2.0761  0.3305
  150MOL   H19930297   2.980   6.564   5.627 -1.4005 -0.7698 -1.6777
  150MOL   H20030298   2.884   6.664   5.831  0.1712 -0.3537 -0.4122
  150MOL   H20130299   2.896   6.829   5.771 -1.2556 -0.1520 -2.1448
  150MOL   H20230300   3.040   6.753   5.814 -0.5860  0.7410  2.7485
  151MOL     C130301   0.048   6.788   1.954 -0.4052 -0.2406 -0.9457
  151MOL     C230302   0.134   6.670   1.994 -0.7846  0.0533  0.1452
  151MOL    Cl330303   0.223   6.689   2.142 -0.0148  0.2140  0.4038
  151MOL     C430304   0.121   6.552   1.934 -0.1583  0.0102 -0.0675
  151MOL     C530305   0.041   6.525   1.815 -0.1674 -0.5382 -0.2264
  151MOL     H630306   0.046   6.812   1.848 -0.8416 -1.3762 -1.1925
  151MOL     H730307   0.084   6.878   2.005 -1.1284  0.1185 -1.0595
  151MOL     H830308   0.172   6.464   1.969 -0.2826  0.9909  2.7580
  151MOL     H930309   8.380   6.470   1.862  1.0688 -1.9268  0.3321
  151MOL    H1030310   8.417   6.618   1.779 -0.9621  0.1992  2.5452
  151MOL    H1130311   8.368   6.777   1.995  0.1064  0.5217  0.5943
  151MOL    C1230312   0.130   6.440   1.719  0.5155  0.2908  0.3292
  151MOL    C1330313   0.056   6.377   1.601  0.3200 -0.2078 -0.2763
  151MOL   Cl1430314   8.345   6.473   1.550  0.2769 -0.3130 -0.0524
  151MOL    C1530315   0.090   6.263   1.547  0.4840 -0.2214  0.1365
  151MOL    C1630316   0.205   6.177   1.582 -1.0466  0.0038 -0.4443
  151MOL    H1730317   0.201   6.512   1.678 -0.7872  2.0582  1.1573
  151MOL    H1830318   0.187   6.368   1.778  0.2578  0.3325  0.6273
  151MOL    H1930319   0.040   6.226   1.459  0.8522 -1.5210  0.4575
  151MOL    H2030320   0.277   6.179   1.500 -0.6303  0.0009 -0.0827
  151MOL    H2130321   0.266   6.214   1.665 -0.3917 -2.9739  0.4643
  151MOL    C2230322   0.165   6.037   1.632  0.2361 -0.3565  1.2616
  151MOL    C2330323   0.280   5.941   1.663 -0.4504 -0.0777 -0.0131
  151MOL   Cl2430324   0.275   5.806   1.557  0.2785 -0.0480  0.1497
  151MOL    C2530325   0.348   5.943   1.773 -0.7632 -0.2308  0.3861
  151MOL    C2630326   0.464   5.851   1.815 -0.2107 -0.1098 -0.3539
  151MOL    H2730327   0.120   6.059   1.729  0.3252  2.8135  0.6346
  151MOL    H2830328   0.084   5.996   1.572  1.3153  1.3015 -1.4324
  151MOL    H2930329   0.320   6.014   1.850 -0.6250 -0.7849  0.9543
  151MOL    H3030330   0.420   5.787   1.890  0.7488  2.1073  2.1724
  151MOL    H3130331   0.485   5.778   1.737  2.9511 -0.2373  0.5575
  151MOL    C3230332   0.590   5.931   1.864  0.2695 -0.3274  0.3524
  151MOL    C3330333   0.707   5.847   1.900 -0.1397  0.3021 -0.6274
  151MOL   Cl3430334   0.668   5.743   2.033  0.1139  0.0789 -0.0579
  151MOL    C3530335   0.831   5.858   1.849  0.3105  0.1160 -0.3070
  151MOL    C3630336   0.948   5.775   1.908 -0.2825  0.2203 -0.1526
  151MOL    H3730337   0.617   6.012   1.796 -0.1765 -0.3522  0.1430
  151MOL    H3830338   0.561   5.989   1.953  1.3656  1.1813 -0.2539
  151MOL    H3930339   0.864   5.936   1.783 -0.9586  1.4254  0.5538
  151MOL    H4030340   0.914   5.685   1.960 -1.5072  0.8505  0.1454
  151MOL    H4130341   1.010   5.726   1.833  0.9709  1.7795 -0.1641
  151MOL    C4230342   1.041   5.859   1.995  0.6309  0.2656 -0.3639
  151MOL    C4330343   1.073   5.997   1.947 -0.0583  0.6112 -0.4441
  151MOL   Cl4430344   1.008   6.120   2.046  0.4190  0.1812  0.0578
  151MOL    C4530345   1.145   6.021   1.836 -0.2179  0.4547  0.7962
  151MOL    C4630346   1.213   5.920   1.739  0.3202  0.2370 -0.3221
  151MOL    H4730347   0.986   5.866   2.088 -1.7297 -0.1211 -1.6908
  151MOL    H4830348   1.133   5.804   2.015  0.4040 -1.2020 -2.9890
  151MOL    H4930349   1.152   6.128   1.822 -0.5858  0.1807 -1.6166
  151MOL    H5030350   1.313   5.959   1.718 -0.5753  1.0233 -3.4332
  151MOL    H5130351   1.225   5.823   1.786 -0.4165  0.7586  0.9627
  151MOL    C5230352   1.165   5.903   1.597 -0.7250 -0.8503  0.3349
  151MOL    C5330353   1.277   5.864   1.497 -0.7880 -0.1944 -0.1748
  151MOL   Cl5430354   1.276   5.698   1.454 -0.0619  0.1153 -0.2711
  151MOL    C5530355   1.367   5.949   1.449 -0.3598 -0.1970  0.1976
  151MOL    C5630356   1.486   5.924   1.354 -0.5628  0.0890  0.0004
  151MOL    H5730357   1.092   5.823   1.591  0.0415 -1.5414  0.2125
  151MOL    H5830358   1.132   6.003   1.566  3.0731  0.7534  1.2078
  151MOL    H5930359   1.357   6.051   1.485 -0.0479 -0.2148  0.3315
  151MOL    H6030360   1.489   5.816   1.338 -3.1385 -0.0902  0.5842
  151MOL    H6130361   1.454   5.971   1.261 -1.4350 -1.5424 -0.5385
  151MOL    C6230362   1.619   5.969   1.414 -0.2312  0.1380 -0.1228
  151MOL    C6330363   1.731   5.966   1.314 -0.5554 -0.3128  0.3184
  151MOL   Cl6430364   1.701   6.094   1.207 -0.3873  0.2807  0.1024
  151MOL    C6530365   1.834   5.879   1.313  0.7889  0.1288 -0.2279
  151MOL    C6630366   1.951   5.868   1.213  0.2251 -0.1897  0.6768
  151MOL    H6730367   1.604   6.070   1.451  0.5210  0.2467 -0.0924
  151MOL    H6830368   1.648   5.901   1.495  0.5756  1.6514  0.8762
  151MOL    H6930369   1.846   5.806   1.392 -1.1935  0.7876  0.7085
  151MOL    H7030370   2.050   5.856   1.257  1.1415 -3.1853 -1.9670
  151MOL    H7130371   1.944   5.961   1.156 -0.6847  0.1307  1.2964
  151MOL    C7230372   1.930   5.735   1.127  0.4889 -0.0361  0.7727
  151MOL    C7330373   2.034   5.710   1.017  0.5394 -0.5920  0.4035
  151MOL   Cl7430374   2.084   5.550   1.006  0.1913 -0.1531  0.1585
  151MOL    C7530375   2.071   5.804   0.925 -0.5887  0.2530 -0.4246
  151MOL    C7630376   2.168   5.786   0.807 -0.3184  0.4415  0.2349
  151MOL    H7730377   1.829   5.738   1.087  1.7188  1.3179 -2.4416
  151MOL    H7830378   1.941   5.646   1.189  3.2728 -0.8625 -0.7851
  151MOL    H7930379   2.032   5.904   0.930  0.6428  0.6597  1.8955
  151MOL    H8030380   2.098   5.797   0.724  2.0444  1.4185 -1.6906
  151MOL    H8130381   2.206   5.684   0.807  1.3273  1.0212 -1.0963
  151MOL    C8230382   2.294   5.876   0.797 -0.3171 -0.9168  0.7467
  151MOL    C8330383   2.370   5.874   0.665 -0.1134 -0.0089  0.2711
  151MOL   Cl8430384   2.406   5.712   0.623 -0.5372 -0.2347 -0.1294
  151MOL    C8530385   2.402   5.979   0.584 -0.1601  1.2000  0.0866
  151MOL    C8630386   2.474   5.963   0.455  0.0978  0.4704  0.5634
  151MOL    H8730387   2.362   5.842   0.875  1.2547 -1.6459 -0.9233
  151MOL    H8830388   2.258   5.978   0.812  0.5573 -0.4915 -0.0422
  151MOL    H8930389   2.374   6.080   0.612 -0.6076  0.9719  0.4615
  151MOL    H9030390   2.561   6.028   0.450 -0.7260  1.5735  0.2863
  151MOL    H9130391   2.508   5.860   0.455 -1.6409 -0.1266 -0.9916
  151MOL    C9230392   2.382   5.993   0.333 -0.0089  0.4278 -0.0407
  151MOL    C9330393   2.263   5.896   0.326 -0.4070 -0.1128  0.8387
  151MOL   Cl9430394   2.293   5.759   0.231 -0.1989 -0.1276  0.3164
  151MOL    C9530395   2.139   5.919   0.364 -0.3924 -0.6898 -0.0585
  151MOL    C9630396   2.081   6.039   0.440 -0.4734 -0.2294 -1.0178
  151MOL    H9730397   2.447   5.997   0.246  1.7295  1.0416  1.2622
  151MOL    H9830398   2.345   6.096   0.326  0.4628  0.5281 -1.1454
  151MOL    H9930399   2.066   5.842   0.346 -1.2478  0.1934 -0.3892
  151MOL   H10030400   2.019   6.007   0.523  1.8341  0.1237  0.9212
  151MOL   H10130401   2.158   6.103   0.484  0.6402 -2.7841  0.8955
  151MOL   C10230402   1.992   6.130   0.354 -0.5990  0.2403 -0.5633
  151MOL   C10330403   1.964   6.271   0.399 -0.3391 -0.0720 -0.1121
  151MOL  Cl10430404   1.962   6.374   0.260  0.0066 -0.1147  0.0727
  151MOL   C10530405   1.957   6.316   0.523  0.5380 -0.6099  0.4734
  151MOL   C10630406   1.937   6.462   0.564  0.3415  0.0396 -0.4347
  151MOL   H10730407   2.037   6.136   0.255  0.0186 -0.6142 -0.3388
  151MOL   H10830408   1.895   6.079   0.348 -0.8505  0.4288  1.3915
  151MOL   H10930409   1.966   6.249   0.608 -0.5340 -1.1977  0.1321
  151MOL   H11030410   2.025   6.490   0.622 -0.7327  3.3575 -0.2892
  151MOL   H11130411   1.935   6.520   0.472  1.8836 -1.0736 -1.1887
  151MOL   C11230412   1.813   6.486   0.657  0.3378 -0.3477  1.3258
  151MOL   C11330413   1.784   6.634   0.678 -0.1142  0.0756  0.1591
  151MOL  Cl11430414   1.921   6.738   0.662  0.2119  0.3563 -0.2115
  151MOL   C11530415   1.660   6.684   0.708  0.8777  0.6240 -0.5020
  151MOL   C11630416   1.538   6.595   0.725  0.7308 -0.0587 -0.4771
  151MOL   H11730417   1.732   6.439   0.601 -1.0399  3.1834  0.1976
  151MOL   H11830418   1.830   6.444   0.756  0.1377  0.0255  1.5195
  151MOL   H11930419   1.663   6.792   0.715 -0.2604  0.5594  1.1167
  151MOL   H12030420   1.574   6.513   0.786  1.7715  0.6713 -0.0753
  151MOL   H12130421   1.500   6.566   0.627 -2.4157  3.9166 -0.5707
  151MOL   C12230422   1.422   6.665   0.804  0.1011 -0.2821 -0.3342
  151MOL   C12330423   1.306   6.571   0.841  0.3563  0.0576  0.1599
  151MOL  Cl12430424   1.170   6.614   0.736  0.0264  0.5907  0.1335
  151MOL   C12530425   1.305   6.459   0.914 -0.5608  1.0828 -0.2946
  151MOL   C12630426   1.427   6.400   0.991  0.5207  0.2016 -0.2432
  151MOL   H12730427   1.458   6.694   0.903  0.0947  1.4446 -0.8209
  151MOL   H12830428   1.391   6.757   0.753 -0.3119  0.0074  0.4361
  151MOL   H12930429   1.217   6.398   0.922  0.4194 -0.3080 -0.0087
  151MOL   H13030430   1.509   6.469   1.013 -0.8971  1.6007  0.7757
  151MOL   H13130431   1.397   6.371   1.092 -0.6432  0.6899 -0.4327
  151MOL   C13230432   1.475   6.270   0.922 -0.2388  0.0412 -0.1571
  151MOL   C13330433   1.364   6.172   0.881  0.3794 -0.3845 -0.0700
  151MOL  Cl13430434   1.328   6.071   1.012 -0.4196 -0.5288  0.0820
  151MOL   C13530435   1.299   6.162   0.763 -0.9656 -0.7419 -0.3493
  151MOL   C13630436   1.318   6.249   0.637 -0.2903  0.0800  0.0949
  151MOL   H13730437   1.536   6.285   0.833  0.4672 -1.3023  0.0831
  151MOL   H13830438   1.544   6.220   0.991  0.7940  0.2778 -1.0108
  151MOL   H13930439   1.218   6.090   0.756 -0.2329 -1.4410 -1.8496
  151MOL   H14030440   1.223   6.299   0.620 -0.2299 -0.6387 -2.6525
  151MOL   H14130441   1.404   6.314   0.651  0.4784 -0.7935 -0.4813
  151MOL   C14230442   1.350   6.159   0.516 -0.5008  0.2669 -0.1011
  151MOL   C14330443   1.392   6.240   0.399  0.3941 -0.5949  0.5744
  151MOL  Cl14430444   1.566   6.270   0.400 -0.1283  0.3531  0.1379
  151MOL   C14530445   1.314   6.282   0.302 -0.0042  0.1616 -0.4787
  151MOL   C14630446   1.363   6.362   0.185  0.0258  0.6812 -0.4669
  151MOL   H14730447   1.254   6.113   0.491 -1.5237  1.8254  0.8919
  151MOL   H14830448   1.426   6.084   0.540 -1.4928 -0.5305  0.5944
  151MOL   H14930449   1.209   6.256   0.300 -0.5888  2.2905  0.3969
  151MOL   H15030450   1.309   6.457   0.189 -2.1943 -0.5450 -0.1531
  151MOL   H15130451   1.467   6.389   0.203  0.0906 -0.0970  0.3387
  151MOL   C15230452   1.348   6.280   0.059  0.1742 -0.0579  0.1888
  151MOL   C15330453   1.420   6.340   8.362 -0.0017  0.7503  0.0556
  151MOL  Cl15430454   1.577   6.280   8.338 -0.4113  0.2237  0.3334
  151MOL   C15530455   1.365   6.448   8.294 -0.2933 -0.3025  0.4303
  151MOL   C15630456   1.417   6.528   8.172 -0.4653  0.1960  0.2701
  151MOL   H15730457   1.395   6.185   0.084  0.2375  0.1799  1.0006
  151MOL   H15830458   1.243   6.256   0.038  0.2857  0.2818 -0.7634
  151MOL   H15930459   1.269   6.488   8.321 -0.1971  1.3008 -1.5376
  151MOL   H16030460   1.373   6.493   8.079  0.5770  0.0083 -0.1549
  151MOL   H16130461   1.522   6.498   8.171 -0.1130  1.4078 -0.1240
  151MOL   C16230462   1.397   6.679   8.192  0.6724  0.2302 -0.6850
  151MOL   C16330463   1.463   6.757   8.078 -0.3339  0.1306  0.4146
  151MOL  Cl16430464   1.348   6.803   7.957  0.4117 -0.5206  0.4148
  151MOL   C16530465   1.591   6.796   8.073 -0.4591 -0.3746 -0.3004
  151MOL   C16630466   1.655   6.886   7.972  0.2999  0.2654  0.2388
  151MOL   H16730467   1.294   6.712   8.198  0.0355 -1.7470 -0.5382
  151MOL   H16830468   1.442   6.717   8.284  2.7157 -0.4594 -1.3541
  151MOL   H16930469   1.662   6.762   8.147 -0.5422  0.1287  0.0140
  151MOL   H17030470   1.574   6.944   7.926  0.1165 -1.4850 -1.7328
  151MOL   H17130471   1.728   6.947   8.025  1.8894 -0.0549 -1.5014
  151MOL   C17230472   1.741   6.823   7.859 -0.1557  0.0823  0.4764
  151MOL   C17330473   1.797   6.905   7.743 -0.4968 -0.1740 -0.2265
  151MOL  Cl17430474   1.948   6.842   7.688  0.1907 -0.2194 -0.1940
  151MOL   C17530475   1.733   7.009   7.684  0.0111  0.2874 -1.1417
  151MOL   C17630476   1.793   7.098   7.579  0.3247  0.4856  0.4638
  151MOL   H17730477   1.680   6.754   7.800 -1.4526  1.4244  0.2078
  151MOL   H17830478   1.816   6.760   7.907  0.1337 -0.4241 -0.6388
  151MOL   H17930479   1.635   7.044   7.714  0.0350  0.5924 -1.4111
  151MOL   H18030480   1.894   7.056   7.576 -0.3986 -1.2514 -0.3310
  151MOL   H18130481   1.791   7.203   7.608  1.2943  0.5646  0.2557
  151MOL   C18230482   1.732   7.077   7.437 -0.5530  0.0030 -0.1009
  151MOL   C18330483   1.728   6.932   7.380 -0.1667  0.0549 -0.9174
  151MOL  Cl18430484   1.885   6.879   7.346  0.0978  0.0954 -0.0224
  151MOL   C18530485   1.619   6.857   7.344 -1.1335  0.0127 -0.1211
  151MOL   C18630486   1.632   6.725   7.264  0.0922  0.4908  0.5651
  151MOL   H18730487   1.634   7.126   7.438 -0.6914 -0.0311 -4.1420
  151MOL   H18830488   1.787   7.140   7.368  1.5613 -1.5551  0.1201
  151MOL   H18930489   1.519   6.893   7.359 -2.3752 -2.2581 -2.4019
  151MOL   H19030490   1.581   6.733   7.167  1.8414 -1.0122 -0.5150
  151MOL   H19130491   1.738   6.722   7.238 -0.1041  1.7770 -0.4451
  151MOL   C19230492   1.583   6.593   7.334  0.2145 -0.6266  0.2317
  151MOL   C19330493   1.664   6.555   7.459  0.4889 -0.3145  0.0059
  151MOL  Cl19430494   1.806   6.471   7.425 -0.2338  0.1750 -0.0731
  151MOL   C19530495   1.630   6.582   7.584  0.6516 -0.2913  0.0532
  151MOL   C19630496   1.511   6.669   7.636 -0.2746  0.6119 -0.2140
  151MOL   H19730497   1.599   6.516   7.259  1.7947  1.3870 -1.5775
  151MOL   H19830498   1.479   6.581   7.362  1.1194 -2.4175  3.1017
  151MOL   H19930499   1.700   6.548   7.659  1.9094 -1.3086 -1.5445
  151MOL   H20030500   1.544   6.773   7.645  0.3942  0.3433  0.4832
  151MOL   H20130501   1.484   6.632   7.735  0.5499  0.3795 -0.0776
  151MOL   H20230502   1.420   6.674   7.577  0.2504  1.2943 -0.9819
  152MOL     C130503   1.649   5.954   0.641 -0.5285 -0.5372 -0.0233
  152MOL     C230504   1.567   5.867   0.739  0.5232  0.2489 -0.2487
  152MOL    Cl330505   1.622   5.885   0.900  0.0905 -0.5034 -0.0539
  152MOL     C430506   1.464   5.789   0.713 -0.1251 -0.6765  0.2766
  152MOL     C530507   1.407   5.770   0.578  0.4823 -0.9653  0.2549
  152MOL     H630508   1.657   6.059   0.669  1.4782  0.3491 -3.6016
  152MOL     H730509   1.608   5.957   0.540 -1.9430 -0.9221  0.5295
  152MOL     H830510   1.422   5.741   0.800 -2.2303  0.2860 -0.1626
  152MOL     H930511   1.450   5.839   0.505 -0.6576 -0.7201 -0.1910
  152MOL    H1030512   1.436   5.672   0.542  2.4786 -0.4883  0.4671
  152MOL    H1130513   1.747   5.909   0.627  0.5857  1.3335  1.3893
  152MOL    C1230514   1.256   5.794   0.586  0.1348 -0.1185  0.2003
  152MOL    C1330515   1.178   5.747   0.467  0.1554  0.3070 -0.6618
  152MOL   Cl1430516   1.155   5.883   0.361 -0.3915  0.0583  0.2331
  152MOL    C1530517   1.147   5.618   0.436  0.3813  0.2074  0.2042
  152MOL    C1630518   1.176   5.500   0.537  0.8080 -0.3369 -0.2414
  152MOL    H1730519   1.213   5.725   0.658 -0.1907 -0.0665  0.0599
  152MOL    H1830520   1.222   5.893   0.616 -1.5851 -0.6863  0.1858
  152MOL    H1930521   1.103   5.596   0.340 -1.8090  0.1539  1.1971
  152MOL    H2030522   1.198   5.423   0.463 -1.6933 -0.5599 -0.8201
  152MOL    H2130523   1.271   5.515   0.589  0.3410 -0.0709  0.5428
  152MOL    C2230524   1.051   5.470   0.625  0.7066  0.1047 -0.0574
  152MOL    C2330525   1.054   5.333   0.687 -0.5776  0.1465 -0.6552
  152MOL   Cl2430526   0.984   5.208   0.589 -0.1416  0.1694  0.0932
  152MOL    C2530527   1.098   5.305   0.815 -0.0443 -0.0415 -0.5655
  152MOL    C2630528   1.076   5.183   0.894  0.4449  0.1508  0.4947
  152MOL    H2730529   1.052   5.546   0.703 -2.4244 -0.7488  0.8842
  152MOL    H2830530   0.957   5.485   0.572  0.5076 -1.4947 -0.1730
  152MOL    H2930531   1.151   5.380   0.872 -0.1826 -0.6603  0.4002
  152MOL    H3030532   1.034   5.204   0.992 -1.0520  2.4666 -0.5980
  152MOL    H3130533   1.019   5.103   0.845  1.5694 -2.0061  2.5926
  152MOL    C3230534   1.212   5.118   0.924  0.0257  1.4214  0.5105
  152MOL    C3330535   1.198   4.983   1.003 -0.8815 -1.2121 -0.0828
  152MOL   Cl3430536   1.258   4.993   1.170 -0.2793 -0.1044 -0.1610
  152MOL    C3530537   1.152   4.869   0.950  0.1432  0.1599  0.7416
  152MOL    C3630538   1.140   4.739   1.019 -0.3962  0.3719  0.1101
  152MOL    H3730539   1.265   5.078   0.838 -3.0231 -2.0721  0.1185
  152MOL    H3830540   1.279   5.175   0.988 -0.7243  2.4091  0.4352
  152MOL    H3930541   1.134   4.859   0.844  1.7698  0.2492  0.4446
  152MOL    H4030542   1.168   4.741   1.124  2.4781 -3.7019 -0.4681
  152MOL    H4130543   1.033   4.717   1.013 -0.6369  1.6893 -0.6181
  152MOL    C4230544   1.217   4.625   0.957 -0.0365 -0.1941  0.3844
  152MOL    C4330545   1.252   4.505   1.047 -0.8661  0.1599  0.6225
  152MOL   Cl4430546   1.421   4.458   1.036 -0.0005 -0.1350 -0.0393
  152MOL    C4530547   1.163   4.428   1.110  0.8472  0.4106  0.5673
  152MOL    C4630548   1.013   4.425   1.100 -0.1008  0.2896  0.2014
  152MOL    H4730549   1.181   4.580   0.864  4.7312  0.2613 -1.8626
  152MOL    H4830550   1.317   4.658   0.928 -0.3840  1.0121  0.5499
  152MOL    H4930551   1.197   4.352   1.178 -1.8650 -0.6257  0.8496
  152MOL    H5030552   0.982   4.471   1.194  0.0483 -0.9348  0.8620
  152MOL    H5130553   0.976   4.488   1.020  1.9636 -0.7673 -1.6378
  152MOL    C5230554   0.959   4.282   1.094  0.0858  0.4156  0.1570
  152MOL    C5330555   0.810   4.284   1.080  0.2423  0.5364  0.4053
  152MOL   Cl5430556   0.733   4.336   1.222  0.1679  0.0458  0.1548
  152MOL    C5530557   0.733   4.241   0.975  0.6998 -0.0336 -0.4136
  152MOL    C5630558   0.579   4.237   0.965  0.1988  0.0902  0.1282
  152MOL    H5730559   0.995   4.231   1.005 -2.9838  2.2794 -2.2784
  152MOL    H5830560   0.994   4.225   1.180  1.3916 -0.1941 -0.7674
  152MOL    H5930561   0.781   4.209   0.884 -0.6211  1.1741 -1.5573
  152MOL    H6030562   0.546   4.141   0.926 -1.5768  1.3063 -1.4471
  152MOL    H6130563   0.535   4.245   1.064 -0.3910  1.9819 -0.2699
  152MOL    C6230564   0.523   4.349   0.873 -0.0824  0.0015 -0.1922
  152MOL    C6330565   0.374   4.363   0.861  0.8989 -0.3195 -0.0366
  152MOL   Cl6430566   0.325   4.400   0.697  0.5347  0.3255 -0.0104
  152MOL    C6530567   0.283   4.375   0.962  0.1425  1.0011 -0.0476
  152MOL    C6630568   0.135   4.411   0.957 -0.0635  0.1323 -0.6269
  152MOL    H6730569   0.556   4.444   0.915  0.0163 -0.1088 -0.0199
  152MOL    H6830570   0.563   4.351   0.771  1.0812  0.2505  0.2641
  152MOL    H6930571   0.323   4.348   1.059 -2.9116  0.8595  1.2119
  152MOL    H7030572   0.107   4.472   0.872  1.8485  1.7789 -0.1163
  152MOL    H7130573   0.136   4.478   1.043  2.7204 -1.2430  0.4924
  152MOL    C7230574   0.039   4.294   0.974  0.5759  0.1306  0.1723
  152MOL    C7330575   0.035   4.199   0.849 -0.1741  0.3608 -0.1496
  152MOL   Cl7430576   0.089   4.036   0.878 -0.2399 -0.2241 -0.3739
  152MOL    C7530577   8.414   4.241   0.729  0.1670 -0.2424  0.1329
  152MOL    C7630578   8.404   4.160   0.603 -0.5569 -0.0747 -0.1358
  152MOL    H7730579   8.361   4.338   0.987  0.1790 -1.0594  1.2983
  152MOL    H7830580   0.054   4.235   1.064 -1.1511  0.6794  0.8380
  152MOL    H7930581   8.377   4.342   0.720 -0.6341 -0.5910 -0.6258
  152MOL    H8030582   8.354   4.227   0.534 -0.1386  0.4894  0.1015
  152MOL    H8130583   8.346   4.071   0.631 -0.8920  0.1015 -0.2691
  152MOL    C8230584   0.114   4.139   0.534  0.2654 -0.0610 -1.1716
  152MOL    C8330585   0.110   4.026   0.431  0.2127  0.3954 -0.4144
  152MOL   Cl8430586   0.241   3.910   0.448 -0.1781  0.1747  0.1632
  152MOL    C8530587   0.008   4.005   0.346  0.9515  0.7004 -0.7565
  152MOL    C8630588   8.413   3.890   0.248  0.6960  0.2008 -0.0185
  152MOL    H8730589   0.202   4.118   0.597 -1.0732 -1.0791  0.4144
  152MOL    H8830590   0.136   4.232   0.483  0.4425  0.2075 -0.6140
  152MOL    H8930591   8.347   4.076   0.345 -0.3704 -0.8057 -0.7917
  152MOL    H9030592   0.059   3.807   0.272  2.6365  1.5747 -0.5527
  152MOL    H9130593   8.313   3.853   0.270  0.1416  0.7064 -1.6819
  152MOL    C9230594   0.005   3.933   0.101 -0.2879 -0.6597 -0.2736
  152MOL    C9330595   8.400   3.811   0.017 -0.3169 -0.1144  0.3010
  152MOL   Cl9430596   0.128   3.749   8.374 -0.1975 -0.2172 -0.1313
  152MOL    C9530597   8.278   3.769   8.401 -0.1025  0.2792 -0.0849
  152MOL    C9630598   8.139   3.821   0.021 -0.3340  0.1611 -0.9893
  152MOL    H9730599   0.106   3.966   0.080 -0.5401  0.0081 -0.4499
  152MOL    H9830600   8.350   4.005   0.069  1.1175  0.7804 -0.3714
  152MOL    H9930601   8.272   3.692   8.326 -1.3481  2.0869 -1.9023
  152MOL   H10030602   8.079   3.736   0.051  1.0564  0.6043  3.4651
  152MOL   H10130603   8.151   3.892   0.103  0.4837 -1.4085  0.2722
  152MOL   C10230604   8.065   3.878   8.318 -0.0933 -0.2134  0.3475
  152MOL   C10330605   7.917   3.889   8.347  0.1144  0.6884  0.1018
  152MOL  Cl10430606   7.841   3.815   8.207 -0.0487  0.1847  0.3572
  152MOL   C10530607   7.840   3.934   0.026  0.0091 -0.0747 -0.7302
  152MOL   C10630608   7.687   3.923   0.038 -0.3878 -0.1108 -0.0499
  152MOL   H10730609   8.109   3.974   8.290  1.9765 -1.5893 -1.2608
  152MOL   H10830610   8.080   3.803   8.240 -0.6576 -1.0655  1.0414
  152MOL   H10930611   7.897   3.987   0.101  0.0189 -1.3232  0.1691
  152MOL   H11030612   7.650   4.025   0.047  0.9673  0.3066  1.0035
  152MOL   H11130613   7.645   3.883   8.367 -0.9240 -0.9390  0.5460
  152MOL   C11230614   7.638   3.847   0.161 -0.1133  0.2225  0.0252
  152MOL   C11330615   7.489   3.866   0.184  0.2616  0.2592  0.0424
  152MOL  Cl11430616   7.447   3.978   0.316 -0.0559  0.3725 -0.1794
  152MOL   C11530617   7.392   3.785   0.126 -0.4138  0.5108 -0.3392
  152MOL   C11630618   7.418   3.670   0.035  0.4770  0.1425  0.4368
  152MOL   H11730619   7.652   3.739   0.156  1.8766  0.4599 -0.0408
  152MOL   H11830620   7.687   3.879   0.253 -2.1146  1.8581  0.5592
  152MOL   H11930621   7.291   3.801   0.160 -0.0936 -0.2009  1.0115
  152MOL   H12030622   7.524   3.649   0.019  0.2688 -0.8501  0.2973
  152MOL   H12130623   7.376   3.684   8.356  2.0610 -0.7000 -0.3685
  152MOL   C12230624   7.356   3.540   0.089  0.0608 -0.2691  0.3135
  152MOL   C12330625   7.412   3.500   0.226 -0.2534  0.1438 -0.5058
  152MOL  Cl12430626   7.580   3.441   0.211  0.5434 -0.3501  0.1381
  152MOL   C12530627   7.362   3.517   0.350 -0.0430 -0.3040  0.1006
  152MOL   C12630628   7.225   3.575   0.386 -0.0447 -0.7876 -0.6267
  152MOL   H12730629   7.247   3.546   0.087  0.0035 -0.4123  2.1914
  152MOL   H12830630   7.367   3.453   0.025 -3.2562  0.5622 -1.5168
  152MOL   H12930631   7.420   3.482   0.434 -0.9912  2.4549  1.9979
  152MOL   H13030632   7.172   3.606   0.296  0.5169  0.4050 -0.5597
  152MOL   H13130633   7.164   3.495   0.428 -0.9828 -0.2746 -0.9806
  152MOL   C13230634   7.228   3.706   0.485 -0.2512 -0.1983 -0.5296
  152MOL   C13330635   7.091   3.747   0.529 -0.3310 -0.2218 -0.3195
  152MOL  Cl13430636   6.961   3.655   0.463 -0.1135 -0.2885 -0.1522
  152MOL   C13530637   7.058   3.839   0.623 -0.4306  0.0757 -0.3576
  152MOL   C13630638   7.154   3.931   0.694 -0.0621 -0.1659 -0.6464
  152MOL   H13730639   7.282   3.673   0.574 -4.7395 -0.8157  2.1197
  152MOL   H13830640   7.278   3.787   0.432 -0.1695  1.5432  2.1040
  152MOL   H13930641   6.952   3.842   0.647 -0.1924 -0.1012  0.7540
  152MOL   H14030642   7.256   3.924   0.656 -0.0587  1.1093 -0.9105
  152MOL   H14130643   7.127   4.031   0.658  0.0112 -0.5665 -1.8399
  152MOL   C14230644   7.149   3.928   0.850 -0.7024 -0.2348  0.3100
  152MOL   C14330645   7.248   4.018   0.922  0.5250 -0.1120  0.3097
  152MOL  Cl14430646   7.296   3.936   1.065 -0.4521  0.1335 -0.1384
  152MOL   C14530647   7.279   4.145   0.890  0.0478 -0.3504  0.4088
  152MOL   C14630648   7.390   4.223   0.961 -0.1517 -0.3951  1.3223
  152MOL   H14730649   7.166   3.826   0.885  0.6239 -1.1679 -2.9233
  152MOL   H14830650   7.047   3.955   0.880 -0.2704  2.3290 -0.5147
  152MOL   H14930651   7.229   4.193   0.807 -0.2025 -2.1060 -0.4700
  152MOL   H15030652   7.349   4.310   1.011  2.2824  1.4713  0.1563
  152MOL   H15130653   7.438   4.167   1.042 -1.3023 -1.5248  1.2364
  152MOL   C15230654   7.484   4.272   0.859 -0.2608  0.1270  0.1289
  152MOL   C15330655   7.580   4.383   0.907  0.2941 -1.1242 -0.1578
  152MOL  Cl15430656   7.605   4.396   1.082  0.0407  0.0997  0.0752
  152MOL   C15530657   7.655   4.458   0.823 -0.4765  0.7373  0.5763
  152MOL   C15630658   7.767   4.547   0.869  0.2120 -0.0040  0.1095
  152MOL   H15730659   7.549   4.192   0.823 -0.5121 -0.7772  1.6466
  152MOL   H15830660   7.435   4.305   0.767 -1.2981  0.6444  0.8558
  152MOL   H15930661   7.638   4.444   0.717 -1.8693  0.9177  0.7564
  152MOL   H16030662   7.794   4.526   0.973  1.1178  1.2001  0.1350
  152MOL   H16130663   7.728   4.647   0.849  0.9848  0.1614 -0.6168
  152MOL   C16230664   7.890   4.533   0.782  0.4711  0.3856  1.0303
  152MOL   C16330665   8.007   4.616   0.823 -0.2259 -0.1197 -0.3641
  152MOL  Cl16430666   8.150   4.527   0.845  0.0371  0.2721 -0.2101
  152MOL   C16530667   8.006   4.754   0.828  0.2118 -0.6085 -0.3916
  152MOL   C16630668   8.120   4.844   0.857  0.0589  0.3926 -0.4306
  152MOL   H16730669   7.921   4.429   0.777  0.6168  0.4043  1.5258
  152MOL   H16830670   7.856   4.558   0.681  0.3202  3.3056  1.7703
  152MOL   H16930671   7.912   4.802   0.808  0.1718 -0.6301 -0.2520
  152MOL   H17030672   8.095   4.915   0.935  1.2633 -0.3215  0.6222
  152MOL   H17130673   8.197   4.781   0.902 -1.3398 -0.1228  1.2461
  152MOL   C17230674   8.168   4.929   0.739  0.4226  0.1703 -0.6895
  152MOL   C17330675   8.187   4.860   0.610 -0.2975  0.2588  0.1318
  152MOL  Cl17430676   8.120   4.944   0.475  0.2521  0.2480 -0.0929
  152MOL   C17530677   8.251   4.748   0.604 -0.0437 -0.0726 -0.6876
  152MOL   C17630678   8.269   4.660   0.479 -0.2131 -0.9049  0.1845
  152MOL   H17730679   8.254   4.991   0.765  0.8669  0.5363 -2.9393
  152MOL   H17830680   8.093   5.005   0.715 -1.2269 -1.0215  0.5837
  152MOL   H17930681   8.297   4.718   0.697  1.6290 -0.1526 -1.5098
  152MOL   H18030682   8.365   4.609   0.467  1.3865  2.3775 -1.5791
  152MOL   H18130683   8.266   4.726   0.393 -2.2054  1.5904  2.0925
  152MOL   C18230684   8.154   4.564   0.447  0.4616  0.6367  0.2703
  152MOL   C18330685   8.148   4.520   0.300  0.1782  0.9548  0.1262
  152MOL  Cl18430686   8.247   4.380   0.280  0.3514 -0.0896 -0.0867
  152MOL   C18530687   8.096   4.592   0.200 -0.5592 -0.1295 -0.1904
  152MOL   C18630688   8.109   4.551   0.053  0.3469  0.0660 -0.5850
  152MOL   H18730689   8.164   4.479   0.514 -1.3970  1.1707  1.2354
  152MOL   H18830690   8.058   4.610   0.470 -1.4403 -2.0508 -1.9678
  152MOL   H18930691   8.043   4.683   0.226  0.0696  0.6078 -1.3988
  152MOL   H19030692   8.132   4.644   0.002  0.8729  0.3585  0.1864
  152MOL   H19130693   8.188   4.477   0.043 -0.0473 -0.4263 -0.0797
  152MOL   C19230694   7.969   4.504   0.008 -0.4723  0.0833  0.3912
  152MOL   C19330695   7.967   4.444   8.290  0.0338 -0.4071 -0.4229
  152MOL  Cl19430696   7.906   4.556   8.173  0.0842  0.4239 -0.0269
  152MOL   C19530697   8.017   4.326   8.257 -0.1396  0.3207  0.7098
  152MOL   C19630698   8.085   4.229   8.355 -0.8373  0.0617 -0.3807
  152MOL   H19730699   7.893   4.581   0.020 -0.2710  0.4554 -0.6548
  152MOL   H19830700   7.932   4.418   0.064  1.8530 -1.3407 -0.1950
  152MOL   H19930701   8.022   4.283   8.158 -0.5626  0.0332  0.8136
  152MOL   H20030702   8.102   4.280   0.029 -1.7012  2.3067 -1.3943
  152MOL   H20130703   8.182   4.199   8.314 -1.2923  1.7806 -2.8549
  152MOL   H20230704   8.006   4.156   8.372 -1.5955  1.0746  0.4752
  153MOL     C130705   4.709   6.520   4.107  0.9864  0.4015  0.3057
  153MOL     C230706   4.851   6.488   4.110 -1.3146  0.2649 -0.6820
  153MOL    Cl330707   4.942   6.625   4.152 -0.1161 -0.1031  0.1602
  153MOL     C430708   4.912   6.374   4.067 -0.2984 -0.4206 -0.2496
  153MOL     C530709   4.842   6.251   4.004 -0.0874 -0.0733  0.2671
  153MOL     H630710   4.668   6.510   4.006  2.5836  0.8230 -0.3933
  153MOL     H730711   4.676   6.614   4.152 -0.1436 -0.2251  0.8087
  153MOL     H830712   5.020   6.375   4.072 -0.3286 -1.0822  0.8116
  153MOL     H930713   4.735   6.259   4.024  0.4025 -0.6037  3.2408
  153MOL    H1030714   4.838   6.265   3.896  0.6711 -1.8898 -0.0259
  153MOL    H1130715   4.661   6.445   4.170  0.8586  0.7567  0.6309
  153MOL    C1230716   4.894   6.112   4.045  0.0401  0.0176 -1.1405
  153MOL    C1330717   4.798   6.008   3.991 -0.8233 -0.0235 -0.2691
  153MOL   Cl1430718   4.870   5.929   3.853 -0.2087  0.0278 -0.2547
  153MOL    C1530719   4.672   5.978   4.044 -0.1840  0.3971 -0.2373
  153MOL    C1630720   4.605   6.042   4.165  0.4052 -0.5039 -0.5147
  153MOL    H1730721   4.999   6.097   4.019  0.7741  1.7568  0.6791
  153MOL    H1830722   4.895   6.099   4.153 -1.0998  0.1388 -1.1142
  153MOL    H1930723   4.617   5.891   4.009  0.6504 -0.1774 -0.1433
  153MOL    H2030724   4.679   6.101   4.220  0.8182  0.7415 -2.3470
  153MOL    H2130725   4.549   6.124   4.121  0.2094 -0.6238 -0.4892
  153MOL    C2230726   4.513   5.965   4.258  0.5414  0.7731 -0.3241
  153MOL    C2330727   4.586   5.850   4.338  1.2668  0.2001 -0.1572
  153MOL   Cl2430728   4.670   5.915   4.478 -0.1683 -0.2738 -0.2320
  153MOL    C2530729   4.580   5.721   4.310 -0.2010 -0.4801 -0.4068
  153MOL    C2630730   4.643   5.618   4.409  0.1261 -0.2092  0.6028
  153MOL    H2730731   4.456   6.034   4.320  0.4646  1.6597 -1.3656
  153MOL    H2830732   4.439   5.926   4.189 -1.1243  0.8698  1.3856
  153MOL    H2930733   4.522   5.691   4.224 -0.9905  0.7023 -0.3083
  153MOL    H3030734   4.748   5.643   4.421 -0.1124  0.7184  0.7679
  153MOL    H3130735   4.582   5.640   4.496 -0.2326  0.0521  0.2877
  153MOL    C3230736   4.643   5.477   4.347  0.3337 -0.2364  0.1143
  153MOL    C3330737   4.677   5.374   4.455  0.0164  0.3343  0.4989
  153MOL   Cl3430738   4.842   5.386   4.511  0.5528  0.3134  0.6461
  153MOL    C3530739   4.591   5.280   4.498 -0.0766  0.4404  0.5888
  153MOL    C3630740   4.619   5.176   4.602  0.3463  0.2099  0.4521
  153MOL    H3730741   4.550   5.446   4.299  0.7221  0.7858 -1.3040
  153MOL    H3830742   4.709   5.479   4.261 -1.5003 -0.2742 -1.3169
  153MOL    H3930743   4.496   5.276   4.446 -0.2726 -2.4565  1.1212
  153MOL    H4030744   4.719   5.197   4.640 -0.6005  1.4642  2.3357
  153MOL    H4130745   4.561   5.176   4.695 -0.1658  0.7350  0.1399
  153MOL    C4230746   4.611   5.030   4.549  0.4319  0.1566  0.3253
  153MOL    C4330747   4.650   4.919   4.648  0.3150  0.3260 -0.2975
  153MOL   Cl4430748   4.517   4.855   4.745  0.2612  0.3578  0.1959
  153MOL    C4530749   4.771   4.866   4.652  0.0552 -0.0929  0.3151
  153MOL    C4630750   4.892   4.903   4.563  0.5349 -0.0662 -0.6187
  153MOL    H4730751   4.511   5.000   4.517  0.8161 -0.6346 -0.1531
  153MOL    H4830752   4.665   5.026   4.454 -2.0470 -0.5448 -1.0985
  153MOL    H4930753   4.786   4.789   4.726 -0.1213  0.0389  0.4874
  153MOL    H5030754   4.878   5.005   4.527 -2.9212  0.1592  1.1884
  153MOL    H5130755   4.970   4.922   4.637  0.5459 -0.7105 -0.4605
  153MOL    C5230756   4.941   4.804   4.448  0.1833 -0.1266 -0.3783
  153MOL    C5330757   4.970   4.669   4.501 -0.1037 -0.1552  0.2729
  153MOL   Cl5430758   5.118   4.663   4.589  0.1453 -0.1705  0.3794
  153MOL    C5530759   4.887   4.560   4.479  0.2285 -0.1977 -0.4325
  153MOL    C5630760   4.912   4.419   4.541 -0.1300  0.4704 -0.3125
  153MOL    H5730761   4.849   4.796   4.391  0.4225 -1.3420 -0.5994
  153MOL    H5830762   5.025   4.841   4.389 -0.1167  0.5291 -0.4032
  153MOL    H5930763   4.808   4.579   4.409 -1.4708  1.0607  1.7480
  153MOL    H6030764   5.014   4.412   4.579 -0.3246  0.1935  0.1605
  153MOL    H6130765   4.850   4.403   4.630 -0.7129  3.3226 -0.1427
  153MOL    C6230766   4.874   4.307   4.438  0.0131 -0.6409  0.1353
  153MOL    C6330767   4.987   4.286   4.331  0.0825 -0.8354 -0.4472
  153MOL   Cl6430768   4.937   4.375   4.195  0.2881  0.2558  0.3997
  153MOL    C6530769   5.103   4.215   4.351  0.8971 -0.5864 -0.0679
  153MOL    C6630770   5.208   4.199   4.246  0.7760 -0.2701 -0.2310
  153MOL    H6730771   4.860   4.213   4.491  2.9158 -2.2201 -1.7444
  153MOL    H6830772   4.780   4.327   4.386 -1.2561  0.0120  2.6512
  153MOL    H6930773   5.125   4.168   4.446  0.0103  0.5735  0.7301
  153MOL    H7030774   5.205   4.277   4.169 -3.7511 -0.8010 -0.7284
  153MOL    H7130775   5.181   4.102   4.204  2.1984 -0.5442 -0.5250
  153MOL    C7230776   5.350   4.199   4.311 -0.0578 -0.6384 -0.1127
  153MOL    C7330777   5.462   4.187   4.211 -0.0907 -0.3984 -0.4851
  153MOL   Cl7430778   5.570   4.320   4.207  0.2438 -0.2780  0.9088
  153MOL    C7530779   5.481   4.076   4.139 -0.5245  0.5419 -0.1472
  153MOL    C7630780   5.597   4.045   4.049  0.0007 -0.4060  0.1679
  153MOL    H7730781   5.357   4.118   4.385 -1.3568  0.6275  1.4399
  153MOL    H7830782   5.375   4.290   4.366 -1.7975 -0.7611  0.9245
  153MOL    H7930783   5.409   3.999   4.164 -1.1505  0.9908 -0.5513
  153MOL    H8030784   5.639   4.139   4.013 -1.5565  0.1864 -0.1195
  153MOL    H8130785   5.556   3.989   3.965 -1.1203 -0.1046  0.5106
  153MOL    C8230786   5.698   3.966   4.124 -0.1105 -0.3445 -0.2631
  153MOL    C8330787   5.647   3.834   4.187  0.1398  0.9189 -0.8055
  153MOL   Cl8430788   5.764   3.783   4.298  0.5835 -0.3802 -0.0299
  153MOL    C8530789   5.543   3.761   4.155  0.0406  0.1574 -0.1872
  153MOL    C8630790   5.495   3.633   4.230  0.5251 -0.2707  0.0929
  153MOL    H8730791   5.745   4.032   4.196 -0.4053  0.1435 -0.5196
  153MOL    H8830792   5.779   3.933   4.058  0.1011 -0.6223  0.1350
  153MOL    H8930793   5.485   3.797   4.071  1.0677  0.9616 -0.5593
  153MOL    H9030794   5.455   3.570   4.151  0.5871  0.0003 -0.1544
  153MOL    H9130795   5.571   3.581   4.288  1.0610  1.4612  0.9864
  153MOL    C9230796   5.387   3.674   4.331 -0.2610 -0.2673 -0.6645
  153MOL    C9330797   5.361   3.567   4.443 -0.3166 -0.0172 -0.6332
  153MOL   Cl9430798   5.204   3.503   4.425 -0.7147  0.4209  0.2958
  153MOL    C9530799   5.441   3.540   4.547 -0.1763  0.3518 -0.2532
  153MOL    C9630800   5.571   3.596   4.575 -0.6284 -0.2848 -0.6342
  153MOL    H9730801   5.297   3.717   4.288 -0.5503  1.0396  1.2234
  153MOL    H9830802   5.409   3.763   4.391 -0.8062 -0.6361  0.0926
  153MOL    H9930803   5.422   3.462   4.619 -0.4547  0.8230  0.1800
  153MOL   H10030804   5.596   3.672   4.501  0.0601 -0.1583 -0.2779
  153MOL   H10130805   5.553   3.656   4.664  2.6154 -0.1532 -0.0085
  153MOL   C10230806   5.678   3.486   4.596  0.4899 -0.1528 -0.0035
  153MOL   C10330807   5.822   3.546   4.585  0.1601 -0.0379 -0.1003
  153MOL  Cl10430808   5.931   3.415   4.580 -0.4930  0.0235  0.4023
  153MOL   C10530809   5.858   3.678   4.605  0.3917 -0.0397  0.7161
  153MOL   C10630810   5.998   3.733   4.607 -0.6364  0.1499  0.1090
  153MOL   H10730811   5.657   3.443   4.694  0.7387  0.2152  0.2155
  153MOL   H10830812   5.671   3.402   4.527 -1.2652 -0.0558  0.0417
  153MOL   H10930813   5.786   3.758   4.617  1.0691  1.1275 -2.3736
  153MOL   H11030814   6.027   3.776   4.703 -2.2250  2.0425 -0.2055
  153MOL   H11130815   6.064   3.648   4.590 -0.6966  0.1078  0.0855
  153MOL   C11230816   6.027   3.833   4.497 -0.2924  0.3519  0.0542
  153MOL   C11330817   6.157   3.901   4.518  0.7056 -0.2991  0.3604
  153MOL  Cl11430818   6.294   3.797   4.483 -0.1330  0.0320 -0.4911
  153MOL   C11530819   6.168   4.017   4.588  0.2576  0.0276  0.0760
  153MOL   C11630820   6.056   4.096   4.647 -0.2300 -0.1667  0.1023
  153MOL   H11730821   6.035   3.773   4.407  2.2121  0.9168 -0.1397
  153MOL   H11830822   5.950   3.900   4.460 -1.4130  0.0655  1.7755
  153MOL   H11930823   6.267   4.056   4.609  1.0067 -1.3720 -0.7684
  153MOL   H12030824   5.955   4.057   4.637  0.8603 -3.0555 -0.2004
  153MOL   H12130825   6.066   4.181   4.578 -1.0021  0.0948  0.3101
  153MOL   C12230826   6.078   4.129   4.799 -0.5537  0.2385  0.3223
  153MOL   C12330827   5.969   4.227   4.851  0.3963 -0.0324 -0.1507
  153MOL  Cl12430828   5.910   4.346   4.736  0.0478  0.2838  0.1847
  153MOL   C12530829   5.952   4.258   4.981 -0.0484  0.2059  0.3631
  153MOL   C12630830   6.016   4.178   5.099 -0.1937  0.5129  0.5936
  153MOL   H12730831   6.071   4.033   4.850 -1.2189 -0.2464 -0.6618
  153MOL   H12830832   6.175   4.171   4.825  0.2166 -1.4516  0.2881
  153MOL   H12930833   5.884   4.336   5.012 -0.8448 -0.6531  0.8077
  153MOL   H13030834   5.935   4.171   5.171  1.0998 -1.3010  1.9340
  153MOL   H13130835   6.049   4.077   5.076  0.4390  0.8347  0.0608
  153MOL   C13230836   6.137   4.256   5.157  0.3683 -0.2886  0.3551
  153MOL   C13330837   6.200   4.177   5.269 -0.0397  0.7971  0.2180
  153MOL  Cl13430838   6.172   4.251   5.421  0.3541  0.4145 -0.2504
  153MOL   C13530839   6.282   4.070   5.257  0.0293  0.9044  0.7027
  153MOL   C13630840   6.344   4.014   5.123  0.2529  0.5864 -0.4708
  153MOL   H13730841   6.212   4.261   5.078  1.1577  0.8618  1.1527
  153MOL   H13830842   6.112   4.351   5.205 -0.5562 -0.2809 -0.1222
  153MOL   H13930843   6.314   4.021   5.347 -1.2616 -0.3688  0.4772
  153MOL   H14030844   6.304   4.078   5.044  0.7053  0.6234 -0.6672
  153MOL   H14130845   6.452   4.010   5.131  0.1337 -0.7623  0.7090
  153MOL   C14230846   6.295   3.871   5.107 -0.0160  0.5660  0.4674
  153MOL   C14330847   6.367   3.793   4.995  0.1163  0.4118  0.4728
  153MOL  Cl14430848   6.284   3.804   4.843  0.0470 -0.0753  0.3200
  153MOL   C14530849   6.485   3.720   5.006  0.3845 -1.1076 -0.8080
  153MOL   C14630850   6.554   3.653   4.891  0.0957  0.3839  0.1133
  153MOL   H14730851   6.187   3.865   5.090  0.0185 -0.3246  0.5120
  153MOL   H14830852   6.313   3.825   5.204  1.9564 -3.2977 -1.6139
  153MOL   H14930853   6.525   3.717   5.106 -2.1654 -2.1860  0.2335
  153MOL   H15030854   6.518   3.701   4.800  0.2950  2.2427  0.9814
  153MOL   H15130855   6.659   3.682   4.888  0.0201  1.0163  2.4145
  153MOL   C15230856   6.531   3.502   4.875 -0.6587 -0.0148 -0.2181
  153MOL   C15330857   6.565   3.441   4.743 -0.9694 -0.0030 -0.3816
  153MOL  Cl15430858   6.450   3.483   4.621  0.2211  0.1858 -0.3696
  153MOL   C15530859   6.664   3.351   4.717  0.1242  0.1187  0.9415
  153MOL   C15630860   6.699   3.278   4.585 -0.8195  0.1991 -0.3112
  153MOL   H15730861   6.573   3.443   4.957  0.5554  1.8507  0.5370
  153MOL   H15830862   6.424   3.489   4.892 -0.0907 -2.0538  2.1532
  153MOL   H15930863   6.718   3.312   4.802  0.0193 -0.9406  0.5342
  153MOL   H16030864   6.663   3.337   4.500  0.7576  1.8628  0.1479
  153MOL   H16130865   6.650   3.181   4.590 -1.8938  0.8177  1.6413
  153MOL   C16230866   6.855   3.281   4.553  0.5896 -0.3908  0.1246
  153MOL   C16330867   6.885   3.163   4.464 -0.1367  0.3950 -0.0831
  153MOL  Cl16430868   6.943   3.021   4.552  0.0865 -0.0394 -0.0928
  153MOL   C16530869   6.869   3.169   4.326 -0.2978  0.4081  0.0862
  153MOL   C16630870   6.897   3.051   4.232 -0.1487  0.2940  0.5596
  153MOL   H16730871   6.892   3.373   4.507 -2.8584  1.8514  1.5758
  153MOL   H16830872   6.900   3.258   4.649  2.3327 -0.2125 -0.6344
  153MOL   H16930873   6.836   3.261   4.279  1.4431  0.5510 -0.9302
  153MOL   H17030874   6.931   2.962   4.284 -1.9940 -0.3006  0.7767
  153MOL   H17130875   6.804   3.021   4.185 -0.7670  2.8229  0.0590
  153MOL   C17230876   6.990   3.090   4.117  0.5598 -0.0130 -0.4256
  153MOL   C17330877   7.031   2.979   4.028  0.1063  0.8442 -0.6044
  153MOL  Cl17430878   6.986   3.008   3.861  0.2884 -0.0655 -0.0724
  153MOL   C17530879   7.103   2.869   4.068  0.8273  0.4215  0.4248
  153MOL   C17630880   7.133   2.755   3.971 -0.0171  0.5283 -1.1597
  153MOL   H17730881   7.085   3.126   4.157  1.2291 -1.9192 -0.2703
  153MOL   H17830882   6.952   3.181   4.071  2.6764  0.7588 -0.7180
  153MOL   H17930883   7.134   2.861   4.171 -0.1884 -0.7375  0.6524
  153MOL   H18030884   7.103   2.767   3.867 -1.6596  1.9284 -0.5528
  153MOL   H18130885   7.060   2.685   4.013  2.0946 -1.1601 -0.2183
  153MOL   C18230886   7.269   2.693   3.996  0.2135 -0.4520  0.0590
  153MOL   C18330887   7.390   2.783   3.964  0.0114 -0.5308  0.2465
  153MOL  Cl18430888   7.450   2.759   3.807 -0.4078  0.0962  0.1541
  153MOL   C18530889   7.442   2.872   4.054  0.1888  0.7379 -0.1400
  153MOL   C18630890   7.561   2.962   4.030 -0.1579 -0.2117 -0.2686
  153MOL   H18730891   7.289   2.646   4.092  0.4780 -0.9621 -0.2426
  153MOL   H18830892   7.273   2.603   3.934 -2.3828 -1.0860  0.7705
  153MOL   H18930893   7.398   2.888   4.151 -0.5096  1.4607 -0.5741
  153MOL   H19030894   7.645   2.942   4.096  1.7277 -1.0664 -2.8588
  153MOL   H19130895   7.598   2.938   3.930 -0.9953  0.3518 -0.7268
  153MOL   C19230896   7.531   3.113   4.038  0.1251 -0.2230  0.0572
  153MOL   C19330897   7.656   3.202   4.051  0.1792 -0.6065 -1.1361
  153MOL  Cl19430898   7.677   3.278   4.208 -0.4473 -0.2970 -0.3760
  153MOL   C19530899   7.738   3.225   3.948  0.2345  0.1911 -0.1372
  153MOL   C19630900   7.711   3.181   3.803 -0.9383 -0.1204 -0.3479
  153MOL   H19730901   7.465   3.132   4.123 -0.9835 -0.0806 -0.8272
  153MOL   H19830902   7.469   3.146   3.955 -2.6318  1.4282  2.6927
  153MOL   H19930903   7.827   3.285   3.963 -0.2922  1.5269 -2.0990
  153MOL   H20030904   7.747   3.262   3.739 -0.3281 -0.3910 -0.3460
  153MOL   H20130905   7.604   3.166   3.785 -1.1033  0.7430 -0.1254
  153MOL   H20230906   7.768   3.093   3.775 -1.9801 -0.5796 -1.0868
  154MOL     C130907   6.771   7.460   0.994 -0.3200  0.2762  0.2581
  154MOL     C230908   6.837   7.593   1.039  0.6614 -0.5080  0.6514
  154MOL    Cl330909   6.731   7.717   1.022  0.0467  0.1695  0.1425
  154MOL     C430910   6.965   7.611   1.090 -0.3462  0.2203  0.1069
  154MOL     C530911   7.057   7.492   1.119  0.2175 -0.4060 -0.1531
  154MOL     H630912   6.750   7.395   1.078  1.4508 -0.0431  0.4647
  154MOL     H730913   6.816   7.402   0.913 -0.8889 -0.4052  0.4264
  154MOL     H830914   6.999   7.712   1.107 -1.0109  0.0815  2.3487
  154MOL     H930915   7.014   7.399   1.082  0.4098 -1.2711  1.7382
  154MOL    H1030916   7.156   7.508   1.077  1.0519 -0.2893  1.7954
  154MOL    H1130917   6.668   7.481   0.966 -0.5212  0.1619  0.9137
  154MOL    C1230918   7.084   7.483   1.269 -0.8510  0.3586 -0.1016
  154MOL    C1330919   7.163   7.354   1.300  0.0903  0.4201  0.0408
  154MOL   Cl1430920   7.062   7.223   1.288  0.3229 -0.2107 -0.0752
  154MOL    C1530921   7.293   7.339   1.335 -0.2983 -0.4803 -0.4208
  154MOL    C1630922   7.390   7.458   1.350  0.1189  0.4166  0.2614
  154MOL    H1730923   7.122   7.576   1.310 -1.2925 -0.3231  1.9063
  154MOL    H1830924   6.984   7.469   1.310 -0.1270  1.2572  2.0297
  154MOL    H1930925   7.331   7.243   1.367 -2.6775 -0.9491  1.0474
  154MOL    H2030926   7.360   7.522   1.268  1.9745  0.1520 -0.6431
  154MOL    H2130927   7.352   7.496   1.445  1.6178  1.5423  0.4377
  154MOL    C2230928   7.536   7.416   1.339  0.5647 -0.2151 -0.5687
  154MOL    C2330929   7.634   7.529   1.309 -0.0032 -0.3074 -0.1038
  154MOL   Cl2430930   7.790   7.488   1.374 -0.0290 -0.1025  0.2624
  154MOL    C2530931   7.602   7.644   1.240  0.3663 -0.5541  0.5374
  154MOL    C2630932   7.706   7.754   1.202  0.4915 -0.1973 -0.1714
  154MOL    H2730933   7.575   7.366   1.429 -1.2027  1.8558  1.4073
  154MOL    H2830934   7.550   7.338   1.264  0.4759 -0.9122  0.1298
  154MOL    H2930935   7.499   7.662   1.213  1.0819  0.4957 -1.6091
  154MOL    H3030936   7.802   7.727   1.246  1.7198  2.1283 -1.3154
  154MOL    H3130937   7.735   7.749   1.097  0.0793 -2.3466 -0.1883
  154MOL    C3230938   7.660   7.893   1.244 -0.6220  0.1419  0.1025
  154MOL    C3330939   7.764   7.995   1.195  0.2134  0.0310  0.4854
  154MOL   Cl3430940   7.697   8.106   1.084 -0.3182 -0.5583  0.5348
  154MOL    C3530941   7.895   7.998   1.230 -0.0951 -0.0055  0.0239
  154MOL    C3630942   7.995   8.093   1.186  0.2431  0.7370 -0.2785
  154MOL    H3730943   7.558   7.923   1.219 -0.5053 -0.9267 -1.7126
  154MOL    H3830944   7.674   7.890   1.352  0.5387  2.2533  0.0418
  154MOL    H3930945   7.935   7.928   1.302  1.0903  1.5320  0.9140
  154MOL    H4030946   7.954   8.173   1.124  1.4627  0.9120 -0.8811
  154MOL    H4130947   8.033   8.149   1.271  0.1480  0.2527  0.0831
  154MOL    C4230948   8.100   8.039   1.092 -0.0387  0.5007  0.2334
  154MOL    C4330949   8.059   7.937   0.981 -0.5407  0.0318 -0.7009
  154MOL   Cl4430950   8.043   7.775   1.056 -0.5472  0.0100  0.3489
  154MOL    C4530951   8.034   7.968   0.850  0.3852  0.3627  0.0937
  154MOL    C4630952   8.050   8.103   0.778  0.1801  0.3628  0.5982
  154MOL    H4730953   8.155   8.123   1.048 -0.0263  1.4414  2.0011
  154MOL    H4830954   8.164   7.987   1.163 -0.0451  0.4297  0.1859
  154MOL    H4930955   7.990   7.893   0.785 -1.6040  0.7320  0.9801
  154MOL    H5030956   7.951   8.141   0.753  0.2645  0.1501 -0.0654
  154MOL    H5130957   8.083   8.187   0.838 -0.4677 -0.0805  1.6094
  154MOL    C5230958   8.128   8.102   0.646 -0.4753 -0.6526  0.0968
  154MOL    C5330959   8.272   8.060   0.666  0.1588 -0.1294 -0.3512
  154MOL   Cl5430960   8.308   7.910   0.596 -0.1529  0.4204  0.0209
  154MOL    C5530961   8.356   8.132   0.738  0.4569 -0.0700 -0.1508
  154MOL    C5630962   0.077   8.091   0.767 -0.0566 -0.5787  0.3008
  154MOL    H5730963   8.081   8.030   0.578  1.9819 -1.8390 -0.3964
  154MOL    H5830964   8.121   8.203   0.605 -2.5802 -1.1214 -0.7643
  154MOL    H5930965   8.321   8.220   0.790  1.8379 -0.1246  0.9110
  154MOL    H6030966   0.076   8.058   0.870 -1.1786  0.4067  0.6217
  154MOL    H6130967   0.105   8.006   0.705  2.6532 -2.5767  4.1493
  154MOL    C6230968   0.169   8.212   0.754 -0.0773 -0.1845  0.3425
  154MOL    C6330969   0.312   8.168   0.778 -0.3736  0.1047  0.5733
  154MOL   Cl6430970   0.352   8.183   0.943 -0.3518 -0.1379  0.3986
  154MOL    C6530971   0.395   8.123   0.680  0.9540 -0.3207  0.3476
  154MOL    C6630972   0.542   8.094   0.695  0.7103 -0.2573  0.0859
  154MOL    H6730973   0.157   8.250   0.653  0.3190 -1.6880 -0.2959
  154MOL    H6830974   0.134   8.289   0.822 -0.0741  0.5346 -0.4591
  154MOL    H6930975   0.353   8.113   0.581  0.8337  0.5110  0.3109
  154MOL    H7030976   0.561   7.994   0.656  2.5046  0.1892 -0.2342
  154MOL    H7130977   0.579   8.110   0.797  1.0061 -1.2887  0.1420
  154MOL    C7230978   0.628   8.188   0.606  0.1442  0.2423 -0.6542
  154MOL    C7330979   0.777   8.174   0.605  0.3698  1.0466 -0.1828
  154MOL   Cl7430980   0.861   8.308   0.676 -0.0337 -0.7246  0.1208
  154MOL    C7530981   0.835   8.063   0.550 -0.2572  0.2509  0.0834
  154MOL    C7630982   0.986   8.041   0.547  0.0188 -0.2583  0.1665
  154MOL    H7730983   0.597   8.287   0.640  0.6175 -0.4494  1.8881
  154MOL    H7830984   0.604   8.172   0.501 -1.6787 -2.4099  0.1105
  154MOL    H7930985   0.774   7.985   0.507  1.2995 -1.3436  0.6945
  154MOL    H8030986   1.053   8.103   0.606  0.6162 -1.9783  1.3292
  154MOL    H8130987   1.024   8.058   0.446 -0.8180  1.4891  0.1320
  154MOL    C8230988   1.035   7.901   0.595 -0.5724  0.3906  1.2245
  154MOL    C8330989   1.184   7.892   0.601 -0.0810  0.5761  0.0351
  154MOL   Cl8430990   1.247   7.825   0.457  0.0715 -0.0735 -0.1704
  154MOL    C8530991   1.253   7.932   0.707 -0.5096 -0.5337  0.4151
  154MOL    C8630992   1.403   7.916   0.727 -0.2145 -0.1708 -0.1460
  154MOL    H8730993   0.993   7.811   0.550  0.1114  0.2414  0.8845
  154MOL    H8830994   0.996   7.884   0.695 -1.0787 -1.4476  0.7301
  154MOL    H8930995   1.207   7.972   0.796  1.4342 -1.9148  2.0818
  154MOL    H9030996   1.431   7.853   0.811  2.6431  1.7069  0.3862
  154MOL    H9130997   1.440   7.852   0.646  0.4014 -0.7748  0.6029
  154MOL    C9230998   1.482   8.047   0.724  0.0877 -0.5933 -0.5688
  154MOL    C9330999   1.632   8.036   0.718  0.0407 -0.1534 -0.9916
  154MOL   Cl9431000   1.707   8.074   0.865  0.0340 -0.5741 -0.2800
  154MOL    C9531001   1.709   7.982   0.622  0.3133 -0.1766  0.4199
  154MOL    C9631002   1.673   7.932   0.482 -0.0234 -0.7185 -0.4702
  154MOL    H9731003   1.460   8.098   0.818  1.4001 -0.8492 -0.1078
  154MOL    H9831004   1.439   8.116   0.651 -0.7222  0.3794  0.8105
  154MOL    H9931005   1.816   7.973   0.634  0.4430  0.8666  0.1028
  154MOL   H10031006   1.647   7.827   0.492 -0.3051 -0.7228 -1.1716
  154MOL   H10131007   1.581   7.984   0.456  2.0631  3.4165  0.0163
  154MOL   C10231008   1.780   7.971   0.382 -0.1683  0.1445 -0.0079
  154MOL   C10331009   1.743   7.942   0.240 -0.6574 -0.1127  0.5945
  154MOL  Cl10431010   1.764   7.781   0.191 -0.2671  0.3353  0.1084
  154MOL   C10531011   1.709   8.040   0.157 -0.1053  0.1930  0.0110
  154MOL   C10631012   1.674   8.028   0.014 -0.1996  0.1421 -0.2599
  154MOL   H10731013   1.796   8.076   0.406  0.3796 -0.0196  0.3458
  154MOL   H10831014   1.874   7.927   0.413  0.9620  1.7716 -1.0860
  154MOL   H10931015   1.707   8.141   0.194  0.4675  0.2739 -0.1836
  154MOL   H11031016   1.675   7.924   8.401  0.7028  0.4297 -1.1556
  154MOL   H11131017   1.575   8.066   8.407 -0.6869 -2.0369 -1.6410
  154MOL   C11231018   1.773   8.088   8.344 -0.5130 -0.0623  0.5447
  154MOL   C11331019   1.769   8.050   8.198  0.1020  0.0430  0.7656
  154MOL  Cl11431020   1.647   8.151   8.128  0.1243  0.0169 -0.6634
  154MOL   C11531021   1.839   7.956   8.132 -0.0680 -0.4392 -0.0520
  154MOL   C11631022   1.958   7.879   8.194  0.2264 -0.1545 -0.3767
  154MOL   H11731023   1.762   8.196   8.346 -1.4471 -0.1379  0.0866
  154MOL   H11831024   1.871   8.061   8.384  0.4734  2.7574  0.1378
  154MOL   H11931025   1.820   7.942   8.026  1.4325 -0.0594 -0.3954
  154MOL   H12031026   1.966   7.780   8.149 -0.4164 -0.7204  0.7554
  154MOL   H12131027   1.934   7.855   8.297  2.0908 -1.6200 -0.2514
  154MOL   C12231028   2.090   7.954   8.178  0.3224 -0.7136  0.1043
  154MOL   C12331029   2.216   7.881   8.213 -0.5660 -0.3314  0.0054
  154MOL  Cl12431030   2.303   7.850   8.070 -0.0278  0.3328  0.1719
  154MOL   C12531031   2.256   7.846   8.339 -0.6346  0.1795  0.6789
  154MOL   C12631032   2.186   7.867   0.056  0.1382 -0.4334 -0.5322
  154MOL   H12731033   2.097   7.989   8.075  1.0081 -0.1800  0.3286
  154MOL   H12831034   2.097   8.038   8.246  3.8903 -0.6327 -0.2718
  154MOL   H12931035   2.349   7.791   8.352  0.3608  1.6268 -0.2801
  154MOL   H13031036   2.104   7.936   0.035  1.3773  1.0614 -0.4953
  154MOL   H13131037   2.133   7.776   0.085 -0.6617 -0.5649 -2.3427
  154MOL   C13231038   2.272   7.913   0.170 -0.4018  0.3056 -0.1196
  154MOL   C13331039   2.183   7.951   0.289 -0.3377  0.8392 -0.1506
  154MOL  Cl13431040   2.145   7.806   0.383  0.3171  0.4408  0.2471
  154MOL   C13531041   2.141   8.069   0.333 -0.1589  0.0865  0.2221
  154MOL   C13631042   2.183   8.198   0.271  0.4514 -0.0734 -0.9048
  154MOL   H13731043   2.335   7.831   0.204  1.7277  2.4968  1.4496
  154MOL   H13831044   2.341   7.990   0.136 -1.7520  1.6220  0.0738
  154MOL   H13931045   2.078   8.066   0.421  1.5895  0.5298  1.5255
  154MOL   H14031046   2.203   8.264   0.356 -0.5723 -2.1006  0.9506
  154MOL   H14131047   2.278   8.190   0.218  0.9346 -1.8808  0.2317
  154MOL   C14231048   2.073   8.251   0.171 -0.2289 -0.5124  0.7980
  154MOL   C14331049   2.106   8.372   0.100  0.3621  0.5334 -0.7394
  154MOL  Cl14431050   2.053   0.084   0.189  0.0382 -0.0131 -0.2466
  154MOL   C14531051   2.169   8.378   8.403 -0.4439  0.1595  0.1423
  154MOL   C14631052   2.189   0.087   8.334 -0.2057  0.2220  0.8703
  154MOL   H14731053   1.977   8.273   0.217 -0.6353 -2.6852  1.0435
  154MOL   H14831054   2.050   8.175   0.096  0.1201  0.9309 -0.8274
  154MOL   H14931055   2.205   8.288   8.357  1.5883  1.1421 -0.2624
  154MOL   H15031056   2.225   0.163   8.404  1.2268 -0.0361  0.4429
  154MOL   H15131057   2.284   0.073   8.281  0.1982  0.1762  1.6066
  154MOL   C15231058   2.084   0.147   8.238  0.6694  0.2097  0.6959
  154MOL   C15331059   2.060   0.050   8.127  0.2154  0.4355  0.3621
  154MOL  Cl15431060   2.190   0.074   8.018 -0.2102  0.4019 -0.1800
  154MOL   C15531061   1.967   8.376   8.108  0.4793 -0.2485 -0.8364
  154MOL   C15631062   1.946   8.287   7.980 -0.5333 -0.3089 -0.2954
  154MOL   H15731063   1.988   0.180   8.277  0.2620 -2.7737  2.4392
  154MOL   H15831064   2.124   0.242   8.203  1.1331 -1.3092 -3.1151
  154MOL   H15931065   1.900   8.359   8.191  0.6389 -1.2649 -0.9067
  154MOL   H16031066   1.932   8.183   8.010  1.9097 -0.5529  0.1127
  154MOL   H16131067   2.028   8.292   7.908  0.2214 -1.2332  0.4815
  154MOL   C16231068   1.840   8.341   7.878  0.0002 -0.6145  0.0550
  154MOL   C16331069   1.838   8.276   7.734 -0.2353 -0.5094  0.3560
  154MOL  Cl16431070   1.701   8.174   7.701  0.0659 -0.2793 -0.6253
  154MOL   C16531071   1.933   8.303   7.643  0.1947  0.0499  0.7223
  154MOL   C16631072   1.930   8.249   7.500  0.2317 -1.0315 -0.6594
  154MOL   H16731073   1.742   8.343   7.925  0.0437 -0.1975  0.1332
  154MOL   H16831074   1.860   0.026   7.860 -0.0804 -0.6887 -0.5002
  154MOL   H16931075   2.020   8.365   7.662 -0.4998  0.9280  1.0600
  154MOL   H17031076   1.842   8.187   7.485 -0.1285 -0.9255  0.8911
  154MOL   H17131077   1.917   8.335   7.434 -0.9255  0.3752  1.2994
  154MOL   C17231078   2.062   8.179   7.460  0.3420 -0.0946 -0.1967
  154MOL   C17331079   2.064   8.143   7.308  0.6930 -0.3502  0.4762
  154MOL  Cl17431080   1.965   8.008   7.273  0.2742  0.1196  0.3118
  154MOL   C17531081   2.145   8.208   7.217 -0.7152 -0.0890  0.0621
  154MOL   C17631082   2.168   8.173   7.073 -0.7257 -0.0685  0.1606
  154MOL   H17731083   2.066   8.084   7.514  1.1297  0.4498  0.7185
  154MOL   H17831084   2.152   8.235   7.485 -0.3817 -0.3709  3.3296
  154MOL   H17931085   2.195   8.293   7.260  0.3754 -1.5806  1.7894
  154MOL   H18031086   2.171   8.266   7.016 -2.4901 -0.3809 -0.4657
  154MOL   H18131087   2.084   8.115   7.035 -0.9209  2.7163 -3.9943
  154MOL   C18231088   2.286   8.080   7.051 -0.0253  0.0520 -0.3986
  154MOL   C18331089   2.284   7.982   6.937  0.7172 -0.8940  0.1347
  154MOL  Cl18431090   2.293   8.055   6.781  0.2188 -0.3358 -0.0008
  154MOL   C18531091   2.268   7.848   6.957 -0.6272  0.6814 -0.1719
  154MOL   C18631092   2.283   7.749   6.848  0.1189 -0.3666  0.4256
  154MOL   H18731093   2.378   8.138   7.043  0.7116 -0.9599  0.5732
  154MOL   H18831094   2.298   8.019   7.141 -2.8077  2.2321  1.5608
  154MOL   H18931095   2.251   7.818   7.059 -1.9877 -1.0465 -0.8982
  154MOL   H19031096   2.301   7.791   6.749  0.7253 -0.9171  0.2966
  154MOL   H19131097   2.372   7.691   6.871  0.5732 -0.0426 -0.4832
  154MOL   C19231098   2.170   7.646   6.846 -0.0087 -0.6584 -0.1351
  154MOL   C19331099   2.042   7.700   6.793  0.2424  0.2377  0.7060
  154MOL  Cl19431100   2.063   7.708   6.619  0.4002  0.5041 -0.1099
  154MOL   C19531101   1.927   7.727   6.857 -0.4325 -0.0494  0.8971
  154MOL   C19631102   1.906   7.730   7.007  0.7584 -0.3787 -0.5185
  154MOL   H19731103   2.158   7.605   6.947  2.3903  1.1972  0.9527
  154MOL   H19831104   2.197   7.565   6.778 -0.0991 -1.7693  1.1360
  154MOL   H19931105   1.850   7.763   6.790  1.2019  1.8853 -0.0003
  154MOL   H20031106   1.894   7.833   7.042 -0.3887 -0.3880 -0.8877
  154MOL   H20131107   1.986   7.683   7.064 -0.4839 -0.0933  1.5123
  154MOL   H20231108   1.815   7.677   7.034 -0.5642  2.1077  0.0882
  155MOL     C131109   8.007   8.239   5.301  0.2979  0.3149  0.1597
  155MOL     C231110   7.938   8.217   5.164 -0.0162 -0.3861 -0.2480
  155MOL    Cl331111   7.872   8.063   5.159  0.4033  0.0198 -0.5349
  155MOL     C431112   7.958   8.297   5.063 -0.2328 -0.2271  1.1919
  155MOL     C531113   8.043   8.420   5.055 -0.6213 -0.0243  0.1148
  155MOL     H631114   8.038   8.341   5.322  2.0822 -0.4936  1.5482
  155MOL     H731115   8.086   8.168   5.324  0.1231  0.3985  1.0408
  155MOL     H831116   7.902   8.268   4.974  1.5860 -0.1263 -0.0141
  155MOL     H931117   8.129   8.407   5.119 -1.8820 -0.0283  1.8282
  155MOL    H1031118   8.091   0.010   4.958  0.1734  1.1288  0.6345
  155MOL    H1131119   7.926   8.224   5.373 -0.7368  0.8103 -0.8755
  155MOL    C1231120   7.965   0.130   5.086  0.2361  0.1239 -0.3673
  155MOL    C1331121   8.056   0.253   5.067 -1.2113 -0.8696 -0.1147
  155MOL   Cl1431122   8.157   0.272   5.206 -0.0212 -0.2344 -0.0500
  155MOL    C1531123   8.056   0.347   4.969 -0.1127  0.3861 -0.1017
  155MOL    C1631124   7.949   0.362   4.861  0.4245 -0.0723 -0.3493
  155MOL    H1731125   7.875   0.147   5.026  1.3348  1.8105 -1.6000
  155MOL    H1831126   7.929   0.121   5.189 -2.6539  1.9583 -1.1519
  155MOL    H1931127   8.142   0.413   4.978  0.0445  0.3073 -1.0059
  155MOL    H2031128   7.900   0.267   4.839  0.4509 -0.1716  0.0180
  155MOL    H2131129   7.863   0.415   4.900 -0.4659 -2.0955  0.4857
  155MOL    C2231130   7.985   0.439   4.733  0.0984 -0.8041  0.1746
  155MOL    C2331131   7.877   0.435   4.628  0.1354  0.0011  0.0700
  155MOL   Cl2431132   7.734   0.524   4.663  0.5386  0.1764  0.1939
  155MOL    C2531133   7.893   0.374   4.505 -0.2639 -0.4361  0.3630
  155MOL    C2631134   7.802   0.387   4.383  0.2862  0.2649  0.8221
  155MOL    H2731135   7.997   0.544   4.759  1.5893 -0.3534 -2.2002
  155MOL    H2831136   8.080   0.408   4.690  0.8444  1.4734  0.1114
  155MOL    H2931137   7.979   0.316   4.476 -0.3901 -1.0243  1.1178
  155MOL    H3031138   7.708   0.435   4.411  0.6948  1.6051 -0.0141
  155MOL    H3131139   7.844   0.450   4.305 -0.5062 -1.6663 -1.2342
  155MOL    C3231140   7.774   0.245   4.320  0.2132 -0.4370  0.1889
  155MOL    C3331141   7.687   0.246   4.192 -0.2861 -0.0658  0.1743
  155MOL   Cl3431142   7.524   0.299   4.218  0.1153 -0.4775 -0.0921
  155MOL    C3531143   7.735   0.211   4.070 -0.1330  0.5121 -0.9126
  155MOL    C3631144   7.659   0.212   3.936  0.3165 -0.2033  0.2228
  155MOL    H3731145   7.868   0.197   4.292 -0.7748 -2.6267  0.5273
  155MOL    H3831146   7.720   0.182   4.391 -0.0385 -0.5813 -0.1272
  155MOL    H3931147   7.834   0.174   4.047 -0.1112  0.6820 -1.0891
  155MOL    H4031148   7.646   0.111   3.898  0.0598  0.9982 -3.0003
  155MOL    H4131149   7.569   0.273   3.949  1.9288  2.2501  0.2963
  155MOL    C4231150   7.734   0.288   3.825 -0.1602 -0.6356  0.0841
  155MOL    C4331151   7.673   0.285   3.689  0.5664 -0.0061  0.3915
  155MOL   Cl4431152   7.752   0.175   3.584  0.0393  0.2410  0.1967
  155MOL    C4531153   7.568   0.354   3.651 -0.2653  0.0208 -0.1156
  155MOL    C4631154   7.484   0.455   3.725 -0.4536 -0.2651 -0.4186
  155MOL    H4731155   7.757   0.391   3.850  2.2148 -0.0800 -4.0632
  155MOL    H4831156   7.836   0.252   3.818  0.4184  1.1468 -0.9489
  155MOL    H4931157   7.545   0.331   3.548  2.4043 -0.7182 -0.5969
  155MOL    H5031158   7.392   0.420   3.774 -0.2082  0.0604  0.2853
  155MOL    H5131159   7.557   0.473   3.804 -0.6905 -0.9526 -0.0379
  155MOL    C5231160   7.443   0.575   3.634 -0.2429 -0.2101  0.1789
  155MOL    C5331161   7.342   0.684   3.676  0.3479  1.0137  0.6159
  155MOL   Cl5431162   7.228   0.722   3.553  0.1633 -0.0692  0.4245
  155MOL    C5531163   7.359   0.742   3.797  0.1381 -0.2481  0.0906
  155MOL    C5631164   7.282   0.864   3.850  0.0081  0.0590  0.6117
  155MOL    H5731165   7.534   0.634   3.617  0.7319 -1.3792  1.2295
  155MOL    H5831166   7.415   0.541   3.534 -0.2752 -0.5801  0.3124
  155MOL    H5931167   7.428   0.708   3.872 -0.0906  1.6748  1.2184
  155MOL    H6031168   7.338   0.956   3.864 -1.5627  1.4973 -2.0400
  155MOL    H6131169   7.212   0.907   3.778  0.2772 -0.5614 -0.0406
  155MOL    C6231170   7.203   0.831   3.978  0.4792 -0.1119  0.4838
  155MOL    C6331171   7.199   0.949   4.078  0.5104  0.0506 -0.1473
  155MOL   Cl6431172   7.063   1.057   4.046  0.0663  0.1350  0.2085
  155MOL    C6531173   7.287   0.971   4.172 -0.4123 -0.2144  0.4781
  155MOL    C6631174   7.290   1.102   4.256  0.3047  0.2544  0.3926
  155MOL    H6731175   7.101   0.794   3.963  0.6485  0.1292 -1.4209
  155MOL    H6831176   7.255   0.756   4.037  1.4105  0.0410 -0.1292
  155MOL    H6931177   7.369   0.902   4.186 -0.4582 -0.4508 -0.3875
  155MOL    H7031178   7.272   1.066   4.357  0.0706 -1.6317 -0.3162
  155MOL    H7131179   7.207   1.171   4.239 -1.4544 -1.7830  0.5871
  155MOL    C7231180   7.426   1.173   4.268 -0.5668  0.0986  0.5050
  155MOL    C7331181   7.550   1.092   4.292 -0.4949  0.2044 -0.5605
  155MOL   Cl7431182   7.594   1.118   4.452 -0.1850  0.5219  0.2594
  155MOL    C7531183   7.629   1.028   4.209  0.6466 -0.1894 -0.0252
  155MOL    C7631184   7.758   0.948   4.244  0.6655  0.8151  0.0016
  155MOL    H7731185   7.414   1.247   4.347 -2.9641 -0.1523  0.4187
  155MOL    H7831186   7.450   1.232   4.179  0.0303 -0.3258  0.3827
  155MOL    H7931187   7.610   1.020   4.103 -2.2698  1.0737  0.3661
  155MOL    H8031188   7.768   0.948   4.353 -0.4000  2.7658  0.1376
  155MOL    H8131189   7.838   1.009   4.203  0.3780 -0.1329 -2.0104
  155MOL    C8231190   7.773   0.803   4.201 -0.5286  0.1647  0.0620
  155MOL    C8331191   7.651   0.723   4.249 -0.3053 -0.0264 -0.1777
  155MOL   Cl8431192   7.550   0.667   4.114 -0.0726  0.2378  0.0019
  155MOL    C8531193   7.612   0.709   4.377  0.0844 -0.1988  0.8141
  155MOL    C8631194   7.490   0.641   4.421  0.2775 -0.6199  0.0719
  155MOL    H8731195   7.857   0.771   4.261 -0.5277 -1.6415 -0.8648
  155MOL    H8831196   7.799   0.786   4.096  0.0252  2.0570 -0.1306
  155MOL    H8931197   7.664   0.760   4.457 -2.6612  0.3758  2.2986
  155MOL    H9031198   7.445   0.578   4.345  0.7373 -0.1375 -0.6083
  155MOL    H9131199   7.528   0.563   4.488  0.6446  0.4224  1.0877
  155MOL    C9231200   7.399   0.743   4.487 -0.1005  0.0257 -0.0925
  155MOL    C9331201   7.271   0.685   4.557  0.0487 -1.0206 -0.1379
  155MOL   Cl9431202   7.296   0.671   4.727 -0.1230  0.0164 -0.1666
  155MOL    C9531203   7.156   0.658   4.494 -0.1491 -0.4402 -0.2964
  155MOL    C9631204   7.138   0.655   4.338 -0.1321  0.4241  0.2098
  155MOL    H9731205   7.350   0.812   4.419  1.1144  0.3630 -0.6199
  155MOL    H9831206   7.445   0.811   4.559  2.4592  0.3181 -1.9379
  155MOL    H9931207   7.063   0.628   4.541 -0.2688  0.9471  0.3523
  155MOL   H10031208   7.059   0.722   4.304 -1.0798 -0.3207  0.9127
  155MOL   H10131209   7.224   0.688   4.280 -0.8122  2.1721  0.1545
  155MOL   C10231210   7.114   0.510   4.292  0.5966  0.3139  0.4826
  155MOL   C10331211   7.042   0.500   4.153 -0.8171  0.0691  0.2504
  155MOL  Cl10431212   6.872   0.509   4.162  0.2450  0.2692 -0.0996
  155MOL   C10531213   7.103   0.487   4.035  0.1746 -0.0865  0.5944
  155MOL   C10631214   7.043   0.484   3.896 -0.0388  0.1807  0.0156
  155MOL   H10731215   7.210   0.460   4.279  1.2700  2.1978 -2.0675
  155MOL   H10831216   7.067   0.458   4.376 -1.0734  1.3633  0.2250
  155MOL   H10931217   7.211   0.483   4.039  0.3465 -0.3416 -3.0732
  155MOL   H11031218   6.940   0.518   3.901 -0.0300  0.3964 -1.0461
  155MOL   H11131219   7.091   0.571   3.850 -2.2667  1.7607  0.6315
  155MOL   C11231220   7.058   0.349   3.818  0.3717 -0.2343 -0.2972
  155MOL   C11331221   7.006   0.347   3.680 -0.1457  0.4067  1.0441
  155MOL  Cl11431222   7.141   0.359   3.565  0.2892 -0.0522 -0.0633
  155MOL   C11531223   6.879   0.347   3.630 -0.3716  0.5273 -0.1049
  155MOL   C11631224   6.752   0.336   3.711 -0.3790 -0.0071  0.4273
  155MOL   H11731225   7.158   0.306   3.825  0.5123  0.1025 -0.2018
  155MOL   H11831226   6.989   0.286   3.873  1.2047 -0.0708  0.9713
  155MOL   H11931227   6.854   0.341   3.525 -2.5129 -0.0102  0.4290
  155MOL   H12031228   6.706   0.434   3.714 -1.5185 -0.5451  0.6809
  155MOL   H12131229   6.774   0.294   3.809  1.0100 -1.1026 -0.3186
  155MOL   C12231230   6.653   0.242   3.637 -0.1985  0.4057  0.1307
  155MOL   C12331231   6.606   0.281   3.499  0.2824 -0.7344 -0.6846
  155MOL  Cl12431232   6.477   0.394   3.512 -0.4901  0.0170 -0.3668
  155MOL   C12531233   6.643   0.244   3.375 -0.2557  0.1728 -1.2453
  155MOL   C12631234   6.751   0.145   3.341 -0.1690  0.3625  0.2678
  155MOL   H12731235   6.682   0.137   3.641 -0.0143  0.4659  0.4185
  155MOL   H12831236   6.567   0.232   3.703  0.0121 -0.6681  0.2563
  155MOL   H12931237   6.587   0.299   3.301  1.0928 -0.3875 -2.6912
  155MOL   H13031238   6.805   0.137   3.435  0.8969 -1.4908 -0.4708
  155MOL   H13131239   6.709   0.048   3.311 -0.0482  1.1613 -2.6359
  155MOL   C13231240   6.846   0.200   3.235 -0.1310 -0.3609 -0.7770
  155MOL   C13331241   6.952   0.098   3.209  0.0839 -0.2668  0.3799
  155MOL  Cl13431242   7.080   0.102   3.324 -0.0945  0.4766 -0.2949
  155MOL   C13531243   6.960   0.004   3.116  0.3623  0.7759  0.1160
  155MOL   C13631244   6.862   8.396   3.003 -0.2199  0.3436 -0.3016
  155MOL   H13731245   6.789   0.224   3.145  0.1027  2.5857 -0.1565
  155MOL   H13831246   6.897   0.289   3.270  0.7947  0.0161 -3.0092
  155MOL   H13931247   7.048   8.364   3.131 -3.1203 -4.5901  0.2555
  155MOL   H14031248   6.817   8.297   3.016  1.6256 -0.5232 -0.4081
  155MOL   H14131249   6.781   0.048   3.005  2.0271  2.9456 -1.7051
  155MOL   C14231250   6.922   8.392   2.854  0.0923  0.1244 -0.1809
  155MOL   C14331251   6.814   8.375   2.750 -0.3704  0.4122 -0.3994
  155MOL  Cl14431252   6.827   8.217   2.682 -0.1734  0.1471 -0.1510
  155MOL   C14531253   6.737   0.054   2.701  0.1438 -0.8240 -1.0509
  155MOL   C14631254   6.646   0.045   2.576 -0.0850  0.6111 -0.6833
  155MOL   H14731255   6.990   8.308   2.846 -1.1630 -1.0156  0.8502
  155MOL   H14831256   6.976   0.061   2.825  2.0690 -0.8379  0.4534
  155MOL   H14931257   6.742   0.150   2.750  0.9285 -1.6660  0.5800
  155MOL   H15031258   6.642   8.365   2.536 -0.7261  1.2188 -2.1989
  155MOL   H15131259   6.546   0.059   2.617  0.4397 -0.4281  1.0031
  155MOL   C15231260   6.681   0.151   2.473  0.1472  0.7120  0.6572
  155MOL   C15331261   6.581   0.151   2.352 -0.1420 -0.1129  0.0808
  155MOL  Cl15431262   6.492   0.303   2.338  0.0101 -0.1188 -0.2512
  155MOL   C15531263   6.565   0.045   2.266 -0.5077  0.2199 -0.2046
  155MOL   C15631264   6.488   0.042   2.141  0.5201  0.9891  0.1003
  155MOL   H15731265   6.678   0.250   2.519  2.1243  1.6163 -1.1109
  155MOL   H15831266   6.784   0.137   2.441  0.1542  2.9321 -0.3812
  155MOL   H15931267   6.630   8.387   2.302 -1.2195 -0.1635  0.2374
  155MOL   H16031268   6.560   0.058   2.062  2.1074 -3.8610  0.4051
  155MOL   H16131269   6.409   0.117   2.133 -0.4301  0.0866  0.7814
  155MOL   C16231270   6.414   8.335   2.114 -1.0397  0.5678  0.8618
  155MOL   C16331271   6.332   8.333   1.979  0.0634 -0.4903  0.3322
  155MOL  Cl16431272   6.402   8.208   1.876  0.5414 -0.3832 -0.1525
  155MOL   C16531273   6.226   8.415   1.951  1.0367 -0.5604 -0.5283
  155MOL   C16631274   6.129   8.418   1.831  0.0588 -0.1710 -0.0864
  155MOL   H16731275   6.490   8.257   2.112 -2.3656 -0.7456  1.0119
  155MOL   H16831276   6.348   8.311   2.197  0.3577 -1.5723  1.4035
  155MOL   H16931277   6.216   0.069   2.028 -0.4406 -2.2872  0.9797
  155MOL   H17031278   6.147   0.085   1.769 -1.9490  2.1695  2.4617
  155MOL   H17131279   6.148   8.334   1.765 -2.5585  0.6738 -2.0187
  155MOL   C17231280   5.985   0.010   1.880 -0.2027 -0.6390 -0.2607
  155MOL   C17331281   5.930   8.293   1.931 -0.0857  0.1381  0.2820
  155MOL  Cl17431282   5.891   8.196   1.792  0.1524  0.0020  0.1703
  155MOL   C17531283   5.920   8.255   2.061  0.5621  0.4163  0.1195
  155MOL   C17631284   5.864   8.117   2.113  0.2057  0.7108  0.0142
  155MOL   H17731285   5.916   0.052   1.807  1.5025 -0.1423 -1.6339
  155MOL   H17831286   5.985   0.082   1.961  0.9533  0.1931 -0.9834
  155MOL   H17931287   5.948   8.325   2.139  1.4667  0.4521 -0.2253
  155MOL   H18031288   5.803   8.082   2.030 -0.3708 -0.8521  1.0688
  155MOL   H18131289   5.798   8.131   2.199 -0.9550 -0.1360 -0.7308
  155MOL   C18231290   5.976   8.022   2.148  0.2762  0.7151 -0.2451
  155MOL   C18331291   6.038   8.042   2.280  1.2657  0.1802 -0.2658
  155MOL  Cl18431292   6.213   8.056   2.268  0.2291 -0.0569 -0.5357
  155MOL   C18531293   5.969   8.067   2.396  0.4334 -0.4645 -0.0653
  155MOL   C18631294   6.022   8.105   2.532 -0.1595 -0.3587 -0.1098
  155MOL   H18731295   5.930   7.923   2.157  1.5059  0.1116 -0.5609
  155MOL   H18831296   6.052   8.016   2.070  0.4754 -0.5148  0.0330
  155MOL   H18931297   5.862   8.054   2.397  0.4908 -1.1371 -1.7921
  155MOL   H19031298   5.998   8.023   2.600 -0.8709  0.7795  1.0212
  155MOL   H19131299   6.130   8.110   2.525  0.0286 -2.3620  0.8555
  155MOL   C19231300   5.957   8.228   2.590 -0.9450  0.3705  0.8167
  155MOL   C19331301   5.977   8.344   2.491  0.5937 -0.3956  1.0020
  155MOL  Cl19431302   5.823   8.384   2.426 -0.1088  0.0290  0.1081
  155MOL   C19531303   6.087   8.412   2.456 -0.8887  0.3936  0.5231
  155MOL   C19631304   6.219   8.379   2.518 -0.2131 -0.1637 -0.1197
  155MOL   H19731305   5.985   8.247   2.694 -0.4129 -3.0124  1.3465
  155MOL   H19831306   5.853   8.195   2.600  0.3139 -3.7375  0.9886
  155MOL   H19931307   6.090   0.070   2.382 -0.7444 -0.0016  0.1109
  155MOL   H20031308   6.288   0.043   2.525  1.4729 -1.5156 -0.1189
  155MOL   H20131309   6.267   8.301   2.460 -2.3845 -1.4868 -0.2105
  155MOL   H20231310   6.219   8.333   2.617 -2.5668  0.5798  0.2547
  156MOL     C131311   7.988   3.647   4.568  0.5070 -0.1556 -0.0301
  156MOL     C231312   7.906   3.540   4.498  0.6424  0.3390 -0.0299
  156MOL    Cl331313   8.008   3.422   4.436  0.0160  0.0267 -0.0727
  156MOL     C431314   7.771   3.533   4.472 -0.3337 -0.4869  0.1869
  156MOL     C531315   7.664   3.621   4.515 -0.5831 -0.4683  0.5673
  156MOL     H631316   7.977   3.737   4.507  0.1401  0.1055  0.4132
  156MOL     H731317   8.092   3.618   4.582  0.2776 -0.2271  1.6201
  156MOL     H831318   7.734   3.455   4.408 -1.2232  0.0800 -0.0067
  156MOL     H931319   7.566   3.578   4.536 -1.6303  1.6335  0.0906
  156MOL    H1031320   7.690   3.654   4.616  1.1751  0.0169 -0.0382
  156MOL    H1131321   7.940   3.667   4.664 -0.8016 -1.1245 -0.4711
  156MOL    C1231322   7.650   3.743   4.417 -0.5899  0.6288  0.0222
  156MOL    C1331323   7.549   3.846   4.470  0.3901  0.9163 -0.2729
  156MOL   Cl1431324   7.386   3.833   4.417 -0.3460 -0.0124  0.2303
  156MOL    C1531325   7.574   3.949   4.558 -0.0191  0.1947 -0.3261
  156MOL    C1631326   7.703   3.980   4.630  0.5826  0.0491 -0.0039
  156MOL    H1731327   7.751   3.784   4.414  0.6245 -2.0204  2.5593
  156MOL    H1831328   7.627   3.700   4.319  2.1042 -0.2668 -0.2558
  156MOL    H1931329   7.484   4.002   4.586  0.4533  0.5024  0.6332
  156MOL    H2031330   7.778   3.918   4.580 -0.9875  0.1562 -2.5701
  156MOL    H2131331   7.724   4.084   4.606 -1.2983  0.3867 -0.2579
  156MOL    C2231332   7.698   3.984   4.796  0.0274 -0.2769  0.2578
  156MOL    C2331333   7.647   3.851   4.852 -0.5319  0.6310 -0.2025
  156MOL   Cl2431334   7.774   3.728   4.869 -0.1685  0.2483 -0.1674
  156MOL    C2531335   7.515   3.825   4.889 -0.3790 -0.0995 -0.2258
  156MOL    C2631336   7.464   3.701   4.956  0.1793  0.0447  0.3192
  156MOL    H2731337   7.803   3.993   4.826 -0.2282  0.9679  0.8129
  156MOL    H2831338   7.643   4.074   4.824 -1.7670 -0.7494 -1.6474
  156MOL    H2931339   7.442   3.903   4.874  1.5707  2.1697  1.4903
  156MOL    H3031340   7.543   3.638   4.996 -0.0164  0.6964  1.7628
  156MOL    H3131341   7.404   3.731   5.042 -1.1900 -1.0339 -0.2490
  156MOL    C3231342   7.391   3.615   4.842 -0.0474 -0.3427 -0.3234
  156MOL    C3331343   7.340   3.479   4.889 -0.2046  0.0675  0.1904
  156MOL   Cl3431344   7.419   3.414   5.021 -0.2555 -0.1664 -0.5645
  156MOL    C3531345   7.218   3.430   4.843 -0.2501  0.0270  0.4342
  156MOL    C3631346   7.133   3.316   4.896 -0.7291 -0.5338  0.3483
  156MOL    H3731347   7.323   3.669   4.776  0.5139 -0.5712 -1.0947
  156MOL    H3831348   7.471   3.595   4.771  1.2944  0.3425  0.9723
  156MOL    H3931349   7.179   3.480   4.756  0.6542 -0.0141  0.0066
  156MOL    H4031350   7.136   3.247   4.812 -1.1444  2.1721 -1.9853
  156MOL    H4131351   7.188   3.276   4.980  1.3946 -0.3021 -0.8781
  156MOL    C4231352   6.984   3.355   4.924 -0.4200 -0.7739 -0.7886
  156MOL    C4331353   6.977   3.438   5.048  0.0633 -0.2240 -0.4179
  156MOL   Cl4431354   6.950   3.605   5.013 -0.1540  0.0770 -0.2047
  156MOL    C4531355   6.979   3.392   5.171 -0.7733 -0.7115 -0.0043
  156MOL    C4631356   6.986   3.245   5.210  0.3878 -0.0025 -0.1310
  156MOL    H4731357   6.924   3.394   4.842 -1.8781  0.5486  0.8722
  156MOL    H4831358   6.925   3.264   4.941 -0.2048 -1.0477 -1.4614
  156MOL    H4931359   6.983   3.459   5.255  3.3413  0.5765 -1.0677
  156MOL    H5031360   6.892   3.218   5.258  1.2310 -0.2402  1.3930
  156MOL    H5131361   7.002   3.175   5.127 -0.8225 -0.4417 -0.0081
  156MOL    C5231362   7.101   3.232   5.309  0.6056 -0.0984 -0.7450
  156MOL    C5331363   7.116   3.088   5.355 -0.2416 -0.3434  0.4920
  156MOL   Cl5431364   7.037   3.051   5.503 -0.1748 -0.1734  0.0516
  156MOL    C5531365   7.192   2.997   5.291 -0.4883  1.0987  0.6831
  156MOL    C5631366   7.211   2.851   5.337  0.5285  0.3673 -0.1094
  156MOL    H5731367   7.193   3.269   5.263  1.4250  3.5236  3.4703
  156MOL    H5831368   7.086   3.295   5.397  3.7109 -0.1800 -0.0931
  156MOL    H5931369   7.246   3.014   5.199  0.6115  0.3235  1.1860
  156MOL    H6031370   7.312   2.839   5.376  0.5413 -1.5527 -0.6752
  156MOL    H6131371   7.142   2.819   5.416 -0.6346  1.0175 -0.8511
  156MOL    C6231372   7.203   2.751   5.218  0.1679  0.2108  0.2355
  156MOL    C6331373   7.237   2.606   5.251 -0.7055  0.2743  0.3513
  156MOL   Cl6431374   7.325   2.530   5.123  0.0946 -0.3148 -0.3564
  156MOL    C6531375   7.177   2.537   5.353 -0.3778  0.0207  0.1869
  156MOL    C6631376   7.191   2.380   5.368  0.0241 -0.0403 -0.0210
  156MOL    H6731377   7.105   2.748   5.169 -0.7195 -1.3195  2.0109
  156MOL    H6831378   7.275   2.791   5.146 -0.7200  0.0466 -0.7606
  156MOL    H6931379   7.112   2.590   5.420  1.2845 -0.2637  2.0586
  156MOL    H7031380   7.219   2.329   5.276  0.4098  2.1987 -1.1508
  156MOL    H7131381   7.093   2.338   5.389 -0.6276  0.7601 -1.4021
  156MOL    C7231382   7.309   2.335   5.456  0.2541 -0.1944  0.2783
  156MOL    C7331383   7.326   2.190   5.478  0.0180  0.0654 -0.5199
  156MOL   Cl7431384   7.492   2.157   5.451 -0.2529  0.0220  0.2180
  156MOL    C7531385   7.230   2.113   5.541 -0.7345  0.6782 -0.2397
  156MOL    C7631386   7.257   1.973   5.585  0.0344  0.0136 -0.1850
  156MOL    H7731387   7.299   2.381   5.554  2.8717  1.8950 -0.3751
  156MOL    H7831388   7.396   2.382   5.409 -0.7418  1.8469  0.4018
  156MOL    H7931389   7.133   2.155   5.564 -0.5873 -0.0556  1.8564
  156MOL    H8031390   7.348   1.978   5.645  0.1760  0.9852 -0.4726
  156MOL    H8131391   7.277   1.915   5.494 -2.0761  0.4747 -0.9641
  156MOL    C8231392   7.144   1.908   5.673  0.1139 -0.3550 -0.5565
  156MOL    C8331393   7.167   1.766   5.725  0.2510 -0.3899 -0.0492
  156MOL   Cl8431394   7.087   1.756   5.874  0.0938  0.1834 -0.2162
  156MOL    C8531395   7.228   1.662   5.669 -0.2978  0.0394  0.3342
  156MOL    C8631396   7.242   1.526   5.731 -0.2095 -0.4145 -0.5908
  156MOL    H8731397   7.048   1.912   5.621 -0.3635  0.9471  0.3996
  156MOL    H8831398   7.133   1.970   5.762  0.8542  1.0082 -1.3902
  156MOL    H8931399   7.261   1.665   5.566 -2.8027 -0.7516 -0.5425
  156MOL    H9031400   7.176   1.510   5.816 -0.7487  1.2493 -0.6853
  156MOL    H9131401   7.214   1.458   5.650  0.7082 -2.2568  0.5905
  156MOL    C9231402   7.388   1.478   5.752  0.1597  0.7916  0.5279
  156MOL    C9331403   7.471   1.506   5.624  0.2103  0.0349 -0.2186
  156MOL   Cl9431404   7.454   1.383   5.503 -0.0638 -0.3631 -0.1200
  156MOL    C9531405   7.544   1.614   5.600  1.0145  0.1788 -0.3845
  156MOL    C9631406   7.572   1.732   5.694  0.1227 -0.6300  0.5686
  156MOL    H9731407   7.388   1.370   5.762  0.3881  0.6851 -0.5005
  156MOL    H9831408   7.441   1.506   5.843  1.7267 -1.7094  0.4379
  156MOL    H9931409   7.598   1.618   5.507  0.3883  0.7432 -0.7229
  156MOL   H10031410   7.563   1.818   5.627 -1.5471 -1.0022  0.3067
  156MOL   H10131411   7.492   1.754   5.764 -0.5729  1.5435 -0.8339
  156MOL   C10231412   7.704   1.716   5.765 -0.5761 -0.6910  0.8396
  156MOL   C10331413   7.753   1.839   5.839  0.7496 -0.2265 -0.2416
  156MOL  Cl10431414   7.916   1.890   5.801  0.1341  0.0688  0.1771
  156MOL   C10531415   7.682   1.903   5.926 -0.2894  0.1541  0.2219
  156MOL   C10631416   7.718   2.020   6.017 -0.0216  0.6236 -0.2369
  156MOL   H10731417   7.684   1.637   5.838  0.9611 -1.2484  0.6659
  156MOL   H10831418   7.777   1.675   5.695 -1.1420 -0.4189  0.0865
  156MOL   H10931419   7.580   1.873   5.947 -0.3099  1.2209  1.6999
  156MOL   H11031420   7.748   1.979   6.114  1.9514  0.6591 -0.8098
  156MOL   H11131421   7.810   2.065   5.979  2.0068 -1.7031  1.7492
  156MOL   C11231422   7.608   2.123   6.045  0.4515  1.0500  0.6541
  156MOL   C11331423   7.557   2.196   5.925 -0.2641  0.8800 -0.8374
  156MOL  Cl11431424   7.676   2.289   5.852  0.7006  0.0797  0.1391
  156MOL   C11531425   7.430   2.204   5.891 -0.1118 -0.9220 -0.3023
  156MOL   C11631426   7.312   2.135   5.946  0.0979  0.4396  0.2732
  156MOL   H11731427   7.526   2.079   6.101 -0.6230  2.6440  0.3627
  156MOL   H11831428   7.650   2.193   6.118 -1.6643  1.3394  1.6153
  156MOL   H11931429   7.405   2.265   5.805  4.5155  0.9807 -0.4498
  156MOL   H12031430   7.332   2.033   5.977  0.2669 -0.2021 -1.8528
  156MOL   H12131431   7.232   2.119   5.874  0.6925  1.3211 -0.5976
  156MOL   C12231432   7.257   2.217   6.071 -0.2771 -0.5270 -0.4333
  156MOL   C12331433   7.185   2.124   6.162 -0.4777 -0.6066 -0.0450
  156MOL  Cl12431434   7.299   2.054   6.288  0.1411 -0.0585  0.0927
  156MOL   C12531435   7.054   2.092   6.153  0.0244  0.8079 -0.2077
  156MOL   C12631436   6.955   2.162   6.057  0.1469 -0.1002  0.3128
  156MOL   H12731437   7.344   2.251   6.128 -1.1668 -0.3048  0.8091
  156MOL   H12831438   7.209   2.313   6.052  0.6424 -0.2820 -1.5902
  156MOL   H12931439   7.018   2.015   6.219 -0.3037  0.0192 -1.2901
  156MOL   H13031440   6.898   2.238   6.109  0.3094  0.4527 -0.3112
  156MOL   H13131441   7.013   2.219   5.983 -1.5426  0.0615 -0.9166
  156MOL   C13231442   6.862   2.054   5.989 -0.2710 -0.7065  0.0598
  156MOL   C13331443   6.758   2.129   5.899  0.1165  0.5127  0.3335
  156MOL  Cl13431444   6.840   2.230   5.783 -0.5468 -0.1023  0.0243
  156MOL   C13531445   6.625   2.121   5.900 -0.0194 -0.2433 -1.2139
  156MOL   C13631446   6.536   2.038   5.997 -0.0766  0.8861 -0.1342
  156MOL   H13731447   6.912   1.990   5.916  0.6321 -0.9866  0.9157
  156MOL   H13831448   6.801   1.998   6.061  0.1978  0.0845  1.0875
  156MOL   H13931449   6.572   2.190   5.837 -1.3613  1.1581  1.4089
  156MOL   H14031450   6.591   2.008   6.086  1.4762 -0.1769 -1.4202
  156MOL   H14131451   6.453   2.103   6.026 -1.2366 -0.6746  0.1073
  156MOL   C14231452   6.484   1.909   5.933  0.4278  0.2544  0.3201
  156MOL   C14331453   6.388   1.840   6.027 -0.5905  0.2761  0.1703
  156MOL  Cl14431454   6.462   1.746   6.144 -0.4933  0.1637 -0.1171
  156MOL   C14531455   6.253   1.838   6.008 -0.6850  0.3667 -0.5379
  156MOL   C14631456   6.152   1.757   6.079  0.9946 -0.4231 -0.0701
  156MOL   H14731457   6.561   1.838   5.901 -0.2345  0.7826 -2.6031
  156MOL   H14831458   6.425   1.930   5.843 -1.1393 -4.3835  0.1302
  156MOL   H14931459   6.214   1.908   5.935 -0.9709  2.2380  1.3387
  156MOL   H15031460   6.213   1.687   6.136  0.5305  0.3608  1.4072
  156MOL   H15131461   6.093   1.814   6.151 -0.1131  0.2585 -1.4926
  156MOL   C15231462   6.068   1.667   5.992  0.1778  0.4946 -0.1208
  156MOL   C15331463   5.959   1.748   5.933  0.1187 -0.2633 -0.1284
  156MOL  Cl15431464   5.974   1.751   5.760  0.2795 -0.5057 -0.3807
  156MOL   C15531465   5.861   1.804   6.003 -0.1695  0.2570  0.0239
  156MOL   C15631466   5.754   1.892   5.942 -0.5973  0.0662 -0.0569
  156MOL   H15731467   6.132   1.623   5.915  0.8099  1.3909 -0.1241
  156MOL   H15831468   6.031   1.583   6.049 -1.1706 -0.8614 -2.8771
  156MOL   H15931469   5.857   1.810   6.110  0.1398  1.1274 -0.0123
  156MOL   H16031470   5.749   1.849   5.842 -0.4896  0.2111 -0.1242
  156MOL   H16131471   5.783   1.993   5.914  0.3837 -0.3237 -0.4659
  156MOL   C16231472   5.613   1.883   6.001  0.5033  0.1262 -0.3303
  156MOL   C16331473   5.515   1.961   5.907  0.7533  0.4124  0.1914
  156MOL  Cl16431474   5.509   2.123   5.961  0.0765  0.2456  0.1692
  156MOL   C16531475   5.437   1.904   5.815 -0.1096  0.4706  0.5469
  156MOL   C16631476   5.339   1.973   5.718  0.7964 -1.2683  0.4600
  156MOL   H16731477   5.583   1.779   5.995 -0.2803  0.3691 -0.6295
  156MOL   H16831478   5.606   1.923   6.103  1.7370  0.7162 -0.4613
  156MOL   H16931479   5.446   1.796   5.824  0.5878  0.6135  1.6850
  156MOL   H17031480   5.237   1.972   5.757  0.1790  2.3428 -0.9168
  156MOL   H17131481   5.363   2.079   5.724 -2.1829 -0.4958 -0.6588
  156MOL   C17231482   5.352   1.932   5.564  0.6371  0.3215 -0.6127
  156MOL   C17331483   5.286   2.035   5.471  0.7626  0.2292 -0.1833
  156MOL  Cl17431484   5.332   2.010   5.305  0.3004 -0.3663 -0.2948
  156MOL   C17531485   5.217   2.147   5.510 -0.4519 -0.1190 -0.7084
  156MOL   C17631486   5.159   2.249   5.415 -0.0425 -0.3441  0.2694
  156MOL   H17731487   5.327   1.826   5.554  0.3058  0.1043  2.1019
  156MOL   H17831488   5.457   1.932   5.533  1.7687 -1.9546  2.9165
  156MOL   H17931489   5.204   2.168   5.615  3.9036  0.6801 -0.2260
  156MOL   H18031490   5.156   2.220   5.310  1.8991  3.9383 -1.0863
  156MOL   H18131491   5.213   2.343   5.426  0.7435 -1.0197  2.2680
  156MOL   C18231492   5.015   2.269   5.457  0.5535  0.3916  0.2834
  156MOL   C18331493   4.980   2.414   5.470 -0.3138  0.0652 -0.6087
  156MOL  Cl18431494   4.950   2.466   5.634 -0.2041 -0.3302  0.3306
  156MOL   C18531495   4.936   2.496   5.371 -0.1092 -0.0202 -0.0425
  156MOL   C18631496   4.889   2.633   5.394 -0.8240 -0.0486  0.5266
  156MOL   H18731497   4.955   2.219   5.382 -0.6204  2.3811 -0.1407
  156MOL   H18831498   4.992   2.209   5.545  1.0336 -3.4737 -2.1344
  156MOL   H18931499   4.938   2.456   5.270  0.8270 -1.5946  0.5784
  156MOL   H19031500   4.931   2.674   5.487  1.0031 -0.2025 -0.2150
  156MOL   H19131501   4.931   2.689   5.310  1.9519 -1.1516  1.1102
  156MOL   C19231502   4.736   2.644   5.397  0.1470 -0.7636  0.0024
  156MOL   C19331503   4.689   2.793   5.408  0.1418 -0.0949 -0.6158
  156MOL  Cl19431504   4.695   2.874   5.255 -0.2436  0.3743  0.4499
  156MOL   C19531505   4.641   2.850   5.521 -0.5088 -0.3582 -0.0838
  156MOL   C19631506   4.618   2.776   5.651 -0.5321 -0.1107  0.1205
  156MOL   H19731507   4.696   2.586   5.480 -1.9984  1.8617  0.9217
  156MOL   H19831508   4.699   2.608   5.301 -0.2341 -1.6082  0.4602
  156MOL   H19931509   4.610   2.954   5.523 -2.5506 -0.9695  0.4444
  156MOL   H20031510   4.695   2.794   5.726 -0.4121 -0.7759  0.1525
  156MOL   H20131511   4.587   2.672   5.641 -0.3679  0.0797 -2.9382
  156MOL   H20231512   4.538   2.836   5.694 -0.2492  0.1350  0.3040
  157MOL     C131513   6.377   4.239   5.980 -0.0409  0.2568 -0.1724
  157MOL     C231514   6.403   4.391   5.966 -0.6517 -0.3802 -0.2988
  157MOL    Cl331515   6.539   4.429   5.861  0.3999  0.0938 -0.2291
  157MOL     C431516   6.332   4.490   6.028 -0.7685 -0.3343 -0.2909
  157MOL     C531517   6.225   4.478   6.141  0.7048 -0.0065  0.6586
  157MOL     H631518   6.466   4.200   6.031  2.1979  0.0178 -4.1069
  157MOL     H731519   6.370   4.193   5.882 -2.0234 -3.2381  1.5328
  157MOL     H831520   6.375   4.586   6.003 -0.1797 -0.4729  0.1804
  157MOL     H931521   6.143   4.545   6.113  0.9788  1.8358  4.0083
  157MOL    H1031522   6.178   4.380   6.147  2.6217 -1.0455 -0.8242
  157MOL    H1131523   6.283   4.222   6.033 -0.0811  0.1214 -0.2894
  157MOL    C1231524   6.264   4.516   6.284 -0.2674  0.0121  0.3684
  157MOL    C1331525   6.151   4.512   6.385 -0.1784  0.1477  0.1703
  157MOL   Cl1431526   6.194   4.411   6.517 -0.1449 -0.3422 -0.1383
  157MOL    C1531527   6.034   4.581   6.388 -0.7161  0.3826 -0.1571
  157MOL    C1631528   5.989   4.685   6.290 -0.1880  0.0797 -0.4386
  157MOL    H1731529   6.348   4.453   6.312 -1.3889 -1.1204  1.2199
  157MOL    H1831530   6.318   4.611   6.279  0.2081 -0.3084 -0.8480
  157MOL    H1931531   5.970   4.558   6.472 -0.5557 -0.9872 -0.3918
  157MOL    H2031532   6.070   4.731   6.234  0.5154 -0.9166 -0.2761
  157MOL    H2131533   5.933   4.648   6.205  0.1916  0.4699 -0.8596
  157MOL    C2231534   5.909   4.792   6.360 -0.0295  0.3252  0.4228
  157MOL    C2331535   5.776   4.739   6.409  0.1080 -0.0566  0.1481
  157MOL   Cl2431536   5.658   4.743   6.275 -0.3205  0.2515  0.0491
  157MOL    C2531537   5.754   4.694   6.535 -0.0439 -0.0458  0.7223
  157MOL    C2631538   5.613   4.650   6.588  0.0626 -0.1118  0.4112
  157MOL    H2731539   5.966   4.840   6.440 -0.7164  2.2587 -0.2066
  157MOL    H2831540   5.898   4.866   6.281 -1.6499  2.2696  2.3980
  157MOL    H2931541   5.837   4.678   6.602  1.3937  3.1762 -0.2240
  157MOL    H3031542   5.552   4.740   6.586  0.6708  0.3090 -2.5048
  157MOL    H3131543   5.572   4.574   6.521 -1.4962  0.6967  0.4319
  157MOL    C3231544   5.619   4.589   6.723 -0.3021 -0.4745 -0.3487
  157MOL    C3331545   5.490   4.526   6.772  0.2460  1.3229 -0.3479
  157MOL   Cl3431546   5.522   4.364   6.833 -0.0300  0.1354 -0.0662
  157MOL    C3531547   5.369   4.585   6.786 -0.8976  0.3989  0.1570
  157MOL    C3631548   5.238   4.530   6.832  0.2070  0.0375 -0.5330
  157MOL    H3731549   5.694   4.511   6.717  1.3557  0.8464  2.5980
  157MOL    H3831550   5.666   4.658   6.793  0.0895  0.7417 -1.7703
  157MOL    H3931551   5.367   4.692   6.770 -2.6568  0.4470  0.5828
  157MOL    H4031552   5.161   4.571   6.767 -0.9448 -0.4581  0.4935
  157MOL    H4131553   5.245   4.421   6.828 -1.4543 -0.0164 -2.1829
  157MOL    C4231554   5.200   4.576   6.976 -0.7472  0.3593  1.0731
  157MOL    C4331555   5.147   4.453   7.054  0.2867 -0.5445  0.2240
  157MOL   Cl4431556   4.969   4.446   7.049 -0.3894 -0.1748 -0.2030
  157MOL    C4531557   5.224   4.357   7.105  0.5803 -0.5051 -1.2187
  157MOL    C4631558   5.377   4.359   7.116 -0.4493  0.8467  0.4168
  157MOL    H4731559   5.293   4.618   7.014  1.1670 -1.6279 -1.2223
  157MOL    H4831560   5.137   4.664   6.984 -2.7500 -0.9448 -0.1582
  157MOL    H4931561   5.177   4.276   7.159  0.9841  0.4948  0.6794
  157MOL    H5031562   5.412   4.262   7.080 -1.1902  0.3923  0.8925
  157MOL    H5131563   5.416   4.440   7.055  3.4898  1.2475  3.3056
  157MOL    C5231564   5.414   4.387   7.269  0.4120 -0.0762 -0.1398
  157MOL    C5331565   5.564   4.373   7.274  0.5198  0.2178  0.3157
  157MOL   Cl5431566   5.624   4.219   7.227 -0.3606 -0.2566  0.0334
  157MOL    C5531567   5.650   4.469   7.292  0.2684 -0.0752 -0.6938
  157MOL    C5631568   5.801   4.439   7.302 -0.2239 -0.0947  0.2868
  157MOL    H5731569   5.383   4.487   7.299 -2.9932 -0.9681 -0.4704
  157MOL    H5831570   5.373   4.314   7.339 -1.1655 -0.3481 -1.3162
  157MOL    H5931571   5.616   4.571   7.309  0.5469 -0.3577  1.7169
  157MOL    H6031572   5.828   4.507   7.383  0.1543 -0.9537  0.8912
  157MOL    H6131573   5.814   4.341   7.346 -0.1503 -0.6364 -0.9144
  157MOL    C6231574   5.869   4.450   7.169 -0.9405  0.0439 -0.3562
  157MOL    C6331575   6.015   4.412   7.186  0.1260  0.0312 -0.3983
  157MOL   Cl6431576   6.110   4.542   7.218  0.1081 -0.0686 -0.3430
  157MOL    C6531577   6.067   4.291   7.165 -0.3467 -0.1904 -0.2996
  157MOL    C6631578   6.211   4.258   7.181  0.5424 -0.1734 -0.2320
  157MOL    H6731579   5.815   4.393   7.093  2.6119 -1.0653 -2.2079
  157MOL    H6831580   5.873   4.555   7.140  1.1947  0.6088  1.7979
  157MOL    H6931581   5.999   4.211   7.139 -0.8663  0.5749 -1.2987
  157MOL    H7031582   6.213   4.160   7.226  0.4339 -1.6028 -3.2064
  157MOL    H7131583   6.245   4.327   7.259  1.7436  0.9854 -1.7250
  157MOL    C7231584   6.294   4.270   7.057  0.4236 -0.2865 -0.2218
  157MOL    C7331585   6.255   4.201   6.930  0.0012  0.4791  0.1414
  157MOL   Cl7431586   6.366   4.083   6.876 -0.4601 -0.2300  0.2377
  157MOL    C7531587   6.144   4.231   6.858  0.3756 -0.4860  0.4415
  157MOL    C7631588   6.098   4.150   6.739  0.1927 -0.4067 -0.3929
  157MOL    H7731589   6.397   4.248   7.087  1.0464  3.3394  0.5870
  157MOL    H7831590   6.290   4.377   7.034  1.4405  0.4403  2.7773
  157MOL    H7931591   6.075   4.305   6.896  1.8166  1.8390 -1.2893
  157MOL    H8031592   6.160   4.061   6.721  1.0136 -0.2000  1.2878
  157MOL    H8131593   6.104   4.199   6.642 -1.2188 -3.0395 -1.8857
  157MOL    C8231594   5.954   4.099   6.757 -0.2390  0.0047  0.2376
  157MOL    C8331595   5.870   4.085   6.633 -0.0186  0.3541  0.2141
  157MOL   Cl8431596   5.795   4.234   6.582 -0.2043 -0.5779 -0.3230
  157MOL    C8531597   5.852   3.971   6.563  0.2143 -0.4012 -1.1903
  157MOL    C8631598   5.765   3.948   6.442 -0.7348 -0.3881  0.0276
  157MOL    H8731599   5.908   4.170   6.826  1.0417 -0.1150  1.2388
  157MOL    H8831600   5.955   4.000   6.803 -0.2521  0.1466  0.5457
  157MOL    H8931601   5.897   3.880   6.598  1.9678  0.4748 -1.1075
  157MOL    H9031602   5.751   4.041   6.387 -0.0153 -0.2201  0.1239
  157MOL    H9131603   5.804   3.867   6.381 -0.6958 -2.1553  2.3374
  157MOL    C9231604   5.627   3.900   6.486  0.1063 -1.0790  0.6343
  157MOL    C9331605   5.538   4.003   6.551 -0.5720  0.2851 -0.3674
  157MOL   Cl9431606   5.469   4.117   6.434  0.4538 -0.3861  0.2546
  157MOL    C9531607   5.503   4.015   6.677  0.4423  0.1609  0.0661
  157MOL    C9631608   5.548   3.918   6.785 -0.8498  0.2240 -0.1409
  157MOL    H9731609   5.638   3.813   6.551  1.4740 -0.7635  0.8377
  157MOL    H9831610   5.571   3.869   6.398 -1.7402 -0.2151  1.4813
  157MOL    H9931611   5.441   4.095   6.716 -0.5421 -0.8594  0.6220
  157MOL   H10031612   5.462   3.858   6.816 -0.5699  0.0482  0.2862
  157MOL   H10131613   5.631   3.851   6.763  0.6520  1.1797  2.4882
  157MOL   C10231614   5.603   3.998   6.902  1.2482  0.3791 -0.7680
  157MOL   C10331615   5.693   3.910   6.990  0.6278 -0.2304 -0.3537
  157MOL  Cl10431616   5.828   4.001   7.053  0.0810  0.0543  0.2666
  157MOL   C10531617   5.668   3.776   7.007  0.2166 -0.4354  0.5616
  157MOL   C10631618   5.756   3.677   7.080  0.2438 -0.1432  0.2536
  157MOL   H10731619   5.667   4.079   6.868  3.1794 -0.4959  0.7025
  157MOL   H10831620   5.518   4.039   6.958  0.7001 -2.1715  0.3357
  157MOL   H10931621   5.582   3.740   6.953  0.8512  2.1059 -2.2653
  157MOL   H11031622   5.810   3.622   7.003  2.0528  1.0857  0.6153
  157MOL   H11131623   5.822   3.730   7.148  0.3383 -0.5062  0.4459
  157MOL   C11231624   5.668   3.581   7.155 -0.3896 -0.3329  0.9699
  157MOL   C11331625   5.747   3.488   7.243  0.5712 -0.3976 -0.1632
  157MOL  Cl11431626   5.793   3.560   7.386  0.2999  0.1998 -0.0935
  157MOL   C11531627   5.797   3.365   7.209 -0.0184  0.6900 -0.0541
  157MOL   C11631628   5.787   3.292   7.076  0.6760 -0.6393 -0.3284
  157MOL   H11731629   5.598   3.634   7.220 -1.2448 -0.2284 -0.0156
  157MOL   H11831630   5.615   3.519   7.082 -0.0952 -0.0156  0.4918
  157MOL   H11931631   5.855   3.310   7.281  0.0470  2.0584  0.9611
  157MOL   H12031632   5.721   3.342   7.005  1.3334 -0.0475 -0.5330
  157MOL   H12131633   5.728   3.201   7.088 -1.7479  1.2010  2.1246
  157MOL   C12231634   5.930   3.279   7.018  0.3541 -0.1931  0.4484
  157MOL   C12331635   5.946   3.240   6.872 -0.2742 -0.5456  0.2037
  157MOL  Cl12431636   5.877   3.088   6.852  0.3314  0.3525 -0.3765
  157MOL   C12531637   6.033   3.287   6.776 -0.1070  0.0985  0.8516
  157MOL   C12631638   6.113   3.417   6.783 -0.3267 -0.0074 -0.3443
  157MOL   H12731639   5.961   3.383   7.010  0.5602 -0.1747  1.4647
  157MOL   H12831640   5.997   3.229   7.088  0.9855  1.8033  1.3109
  157MOL   H12931641   6.047   3.223   6.690 -2.9953 -1.5427  1.5086
  157MOL   H13031642   6.068   3.490   6.850  1.4977 -0.6650  1.6547
  157MOL   H13131643   6.207   3.405   6.837  0.8565  2.7877 -1.6785
  157MOL   C13231644   6.132   3.482   6.651  0.0084  0.9294  0.0074
  157MOL   C13331645   6.221   3.607   6.660  0.8301  0.1695 -0.4860
  157MOL  Cl13431646   6.120   3.750   6.659 -0.0625 -0.4892 -0.2744
  157MOL   C13531647   6.357   3.616   6.652 -0.1150  0.5147  0.2648
  157MOL   C13631648   6.452   3.494   6.643 -0.0642 -0.0745  0.3822
  157MOL   H13731649   6.187   3.411   6.588  0.7432 -0.4820  2.2014
  157MOL   H13831650   6.043   3.509   6.595 -0.8034  0.9245  1.2833
  157MOL   H13931651   6.408   3.711   6.646  1.5008 -0.2955  0.9382
  157MOL   H14031652   6.513   3.507   6.732 -0.7556  3.5638  0.4013
  157MOL   H14131653   6.391   3.405   6.664 -1.3799  0.8655  0.6377
  157MOL   C14231654   6.519   3.489   6.509  0.0411  0.5544  0.0677
  157MOL   C14331655   6.609   3.610   6.501 -0.2921  0.2187  0.6178
  157MOL  Cl14431656   6.567   3.721   6.372 -0.2282  0.0515  0.0054
  157MOL   C14531657   6.722   3.625   6.576  0.3372  0.2919 -1.3475
  157MOL   C14631658   6.809   3.748   6.592 -0.0744 -0.5455  1.1519
  157MOL   H14731659   6.459   3.482   6.418 -1.1855 -1.6626  1.0320
  157MOL   H14831660   6.579   3.399   6.521  0.4799  0.5539 -1.9206
  157MOL   H14931661   6.751   3.537   6.632 -1.8924  0.4273  0.0611
  157MOL   H15031662   6.881   3.744   6.510 -0.7411  0.7843  0.4841
  157MOL   H15131663   6.741   3.831   6.571  2.8089  1.9834  1.4992
  157MOL   C15231664   6.870   3.751   6.732 -0.5550  0.3093  0.1403
  157MOL   C15331665   6.924   3.888   6.758 -1.0182 -0.6410 -0.0682
  157MOL  Cl15431666   6.815   4.009   6.823 -0.1887  0.0120  0.2049
  157MOL   C15531667   7.055   3.927   6.726 -0.2027  0.4566  1.1635
  157MOL   C15631668   7.108   4.066   6.751  0.1369  0.0913 -0.2532
  157MOL   H15731669   6.790   3.736   6.804 -1.0575  1.5769 -0.1503
  157MOL   H15831670   6.950   3.678   6.746 -1.4240 -0.4264  1.4166
  157MOL   H15931671   7.117   3.854   6.676 -0.0625  2.1738 -1.2162
  157MOL   H16031672   7.089   4.088   6.856 -1.0228 -1.4083 -0.1272
  157MOL   H16131673   7.045   4.131   6.689 -1.7836 -0.7123  0.8004
  157MOL   C16231674   7.263   4.079   6.754 -0.6013  0.1736 -0.1859
  157MOL   C16331675   7.322   4.214   6.806  0.5050  0.2184 -0.6337
  157MOL  Cl16431676   7.403   4.286   6.672  0.3352 -0.2029 -0.2979
  157MOL   C16531677   7.297   4.262   6.928 -0.1021  0.5294  0.2837
  157MOL   C16631678   7.346   4.404   6.956 -0.0191 -0.9504  0.1525
  157MOL   H16731679   7.286   4.009   6.833 -1.5560  0.2168  0.1413
  157MOL   H16831680   7.314   4.047   6.663 -0.3515  1.1350 -0.3859
  157MOL   H16931681   7.249   4.210   7.009 -0.6237  0.3632 -0.1247
  157MOL   H17031682   7.454   4.404   6.942  0.1851 -1.7016  1.6194
  157MOL   H17131683   7.297   4.470   6.884 -0.4239  0.8512  1.9880
  157MOL   C17231684   7.318   4.454   7.103 -0.0149  0.8896 -0.6830
  157MOL   C17331685   7.372   4.588   7.142 -0.0734  0.0484 -0.1119
  157MOL  Cl17431686   7.473   4.580   7.280 -0.1038  0.4497  0.5742
  157MOL   C17531687   7.366   4.697   7.063 -0.3212 -0.1192 -0.3558
  157MOL   C17631688   7.437   4.834   7.083 -0.0396  0.0962 -0.4735
  157MOL   H17731689   7.366   4.382   7.169  0.5810  1.7413 -0.1721
  157MOL   H17831690   7.211   4.453   7.123  0.2115 -1.6184  0.6417
  157MOL   H17931691   7.301   4.685   6.978 -1.6828 -1.4113  0.8541
  157MOL   H18031692   7.498   4.830   7.174 -0.9127  0.0380  0.1167
  157MOL   H18131693   7.360   4.907   7.106 -1.3518 -1.3492 -0.2545
  157MOL   C18231694   7.519   4.881   6.960 -0.0913  0.2853 -0.5592
  157MOL   C18331695   7.582   5.024   6.982 -0.4389 -0.3256  0.5998
  157MOL  Cl18431696   7.512   5.134   6.868  0.0656 -0.1107  0.1327
  157MOL   C18531697   7.681   5.056   7.068 -0.1180  0.5277  0.2676
  157MOL   C18631698   7.746   5.191   7.084  0.2143  0.1698  0.3084
  157MOL   H18731699   7.595   4.803   6.959 -0.6157 -0.2985  1.6369
  157MOL   H18831700   7.466   4.867   6.866 -0.3884 -0.8005 -0.2394
  157MOL   H18931701   7.720   4.982   7.135  3.4361  1.3092 -0.8419
  157MOL   H19031702   7.708   5.257   7.006  0.0461 -0.8832 -0.5155
  157MOL   H19131703   7.700   5.229   7.175 -0.2823  0.9639 -0.2596
  157MOL   C19231704   7.896   5.196   7.078 -0.4437 -0.1920  0.5012
  157MOL   C19331705   7.957   5.339   7.092  0.5204 -0.2091  0.1434
  157MOL  Cl19431706   7.917   5.431   6.954  0.1555  0.3573  0.2826
  157MOL   C19531707   8.042   5.393   7.182  0.5837 -0.0779  0.1209
  157MOL   C19631708   8.090   5.321   7.308  0.2208  0.4859  1.0916
  157MOL   H19731709   7.944   5.141   6.997  0.8017  2.5988 -0.6833
  157MOL   H19831710   7.926   5.145   7.170 -1.4301  0.6178  1.2953
  157MOL   H19931711   8.070   5.496   7.162  1.5746 -0.2318  0.6524
  157MOL   H20031712   8.191   5.345   7.341  0.2916 -1.4278  2.3603
  157MOL   H20131713   8.073   5.215   7.286 -1.0131  0.9875 -0.4913
  157MOL   H20231714   8.025   5.341   7.393 -0.5793 -2.7328  1.3217
  158MOL     C131715   6.086   5.003   4.125 -0.5347  0.1205 -0.5182
  158MOL     C231716   6.139   5.115   4.212  0.3456  0.2888  1.1307
  158MOL    Cl331717   6.114   5.088   4.375  0.1472 -0.0163  0.1398
  158MOL     C431718   6.224   5.206   4.159 -0.7835  0.2605 -0.6667
  158MOL     C531719   6.271   5.224   4.015 -0.3404  0.2705  0.3533
  158MOL     H631720   6.177   4.977   4.070  1.4013  1.3755  1.9910
  158MOL     H731721   6.009   5.022   4.051  0.8631 -0.7746 -2.2438
  158MOL     H831722   6.256   5.288   4.222 -0.8374 -0.2196 -0.0083
  158MOL     H931723   6.377   5.244   4.025 -0.5173  1.5004 -0.0463
  158MOL    H1031724   6.265   5.128   3.964 -0.3401  1.3431 -1.7044
  158MOL    H1131725   6.056   4.914   4.181 -0.8005  1.5512  1.6963
  158MOL    C1231726   6.187   5.325   3.937 -0.5112 -0.1383  0.6170
  158MOL    C1331727   6.265   5.386   3.820  0.7179 -0.0210 -0.0658
  158MOL   Cl1431728   6.294   5.553   3.847 -0.2728 -0.0418 -0.3104
  158MOL    C1531729   6.296   5.320   3.705 -0.4575 -0.8600 -0.2545
  158MOL    C1631730   6.271   5.177   3.663 -0.0185 -1.1272  0.1147
  158MOL    H1731731   6.086   5.295   3.911 -1.2866 -0.4758  3.7526
  158MOL    H1831732   6.167   5.404   4.010 -4.5708  0.0616 -0.6039
  158MOL    H1931733   6.359   5.386   3.647  0.0920  0.3328  1.6339
  158MOL    H2031734   6.363   5.123   3.636 -1.0656 -1.8259 -2.1859
  158MOL    H2131735   6.227   5.123   3.746  1.5318  1.8489  3.0048
  158MOL    C2231736   6.179   5.158   3.537  0.0244 -0.2972  0.1957
  158MOL    C2331737   6.044   5.229   3.562  0.6416  0.4979 -0.4804
  158MOL   Cl2431738   5.945   5.128   3.661  0.1773  0.0896  0.7076
  158MOL    C2531739   6.013   5.348   3.512 -0.4889 -0.3841 -0.1961
  158MOL    C2631740   5.886   5.429   3.539 -0.0754 -0.0519 -0.0214
  158MOL    H2731741   6.217   5.198   3.443  1.7352  1.0049  1.3949
  158MOL    H2831742   6.167   5.051   3.517 -1.8016 -0.2137  0.8142
  158MOL    H2931743   6.081   5.408   3.455 -2.5200  0.8018 -1.4582
  158MOL    H3031744   5.791   5.381   3.516 -0.9220  1.2800  0.6945
  158MOL    H3131745   5.880   5.442   3.647 -0.3427  0.6271 -0.1207
  158MOL    C3231746   5.895   5.567   3.490  1.0510  0.1174  0.3982
  158MOL    C3331747   5.996   5.659   3.570 -0.0193 -0.2328 -0.7402
  158MOL   Cl3431748   6.149   5.693   3.487 -0.2143 -0.1574 -0.3868
  158MOL    C3531749   5.969   5.708   3.692  0.3279 -0.6758 -0.5979
  158MOL    C3631750   6.062   5.793   3.782  0.1805 -0.9011  0.2919
  158MOL    H3731751   5.921   5.568   3.384  0.2295 -2.1266  0.1506
  158MOL    H3831752   5.798   5.613   3.506  0.6529  0.0054 -1.5313
  158MOL    H3931753   5.872   5.688   3.735 -0.3290  1.9279 -0.8085
  158MOL    H4031754   6.065   5.742   3.878  1.6459 -1.3675  0.0024
  158MOL    H4131755   6.165   5.795   3.747  0.1209 -0.1882  0.1412
  158MOL    C4231756   6.010   5.947   3.793  0.1015  0.1140 -0.3742
  158MOL    C4331757   6.117   6.046   3.843 -0.5437 -0.0482 -0.8664
  158MOL   Cl4431758   6.246   6.052   3.729  0.0184 -0.1954  0.6362
  158MOL    C4531759   6.110   6.127   3.955  0.5675  0.4462  0.0656
  158MOL    C4631760   6.004   6.145   4.063 -0.0692  0.0872 -0.8688
  158MOL    H4731761   5.983   5.988   3.696 -1.5866  3.1677  1.2924
  158MOL    H4831762   5.913   5.949   3.842  0.3404 -1.2502  0.1710
  158MOL    H4931763   6.197   6.191   3.965  1.1258 -0.4766  1.2570
  158MOL    H5031764   5.935   6.060   4.063  0.2995 -0.2671  2.1366
  158MOL    H5131765   6.058   6.138   4.157 -0.1078 -0.4779 -0.8893
  158MOL    C5231766   5.951   6.282   4.060  0.1185 -0.8558  0.4353
  158MOL    C5331767   5.886   6.321   4.191 -0.2378  0.0363 -0.3810
  158MOL   Cl5431768   5.913   6.483   4.233 -0.4678  0.2872  0.0629
  158MOL    C5531769   5.815   6.240   4.271 -0.5810 -0.0431 -0.4083
  158MOL    C5631770   5.754   6.264   4.413  0.0296 -0.4436  0.0476
  158MOL    H5731771   6.033   6.351   4.039 -0.0105 -1.1315 -1.0602
  158MOL    H5831772   5.873   6.297   3.985 -0.9576  2.6025  2.1246
  158MOL    H5931773   5.785   6.144   4.230 -1.7977 -0.7395  2.0037
  158MOL    H6031774   5.807   6.343   4.465  0.0226 -0.2507 -0.2346
  158MOL    H6131775   5.654   6.300   4.390  1.7059  2.7972 -2.5523
  158MOL    C6231776   5.756   6.149   4.507 -0.2973  0.4416 -0.0020
  158MOL    C6331777   5.635   6.056   4.507  0.4670 -0.4696 -0.0025
  158MOL   Cl6431778   5.671   5.914   4.416  0.2662  0.0500 -0.2372
  158MOL    C6531779   5.515   6.077   4.566 -0.3210 -0.0266  0.2634
  158MOL    C6631780   5.413   5.967   4.590  0.5016 -0.5332  0.1986
  158MOL    H6731781   5.847   6.092   4.487  0.6594  1.8644  0.1545
  158MOL    H6831782   5.762   6.183   4.610 -3.0952  1.5643 -0.1717
  158MOL    H6931783   5.505   6.180   4.599 -0.1535 -0.2599  1.0501
  158MOL    H7031784   5.427   5.883   4.521  2.7910  0.8049 -1.0466
  158MOL    H7131785   5.323   6.021   4.559  1.5487  0.4435 -1.2382
  158MOL    C7231786   5.396   5.915   4.731 -0.2271 -0.0558  0.3497
  158MOL    C7331787   5.253   5.894   4.762  0.4777 -0.0107  0.0979
  158MOL   Cl7431788   5.193   6.014   4.875 -0.5044 -0.0360 -0.4009
  158MOL    C7531789   5.178   5.801   4.699 -0.3515  0.1568  0.2196
  158MOL    C7631790   5.029   5.777   4.721 -0.0096  0.6745 -0.5270
  158MOL    H7731791   5.435   5.979   4.810 -0.5365  0.7731 -0.1599
  158MOL    H7831792   5.450   5.821   4.737 -0.1375 -0.0530 -0.4157
  158MOL    H7931793   5.223   5.744   4.619  0.6027  1.1984 -0.0004
  158MOL    H8031794   4.978   5.828   4.640  0.9848 -0.5909 -1.9671
  158MOL    H8131795   4.993   5.823   4.813  0.5259 -2.0017  1.0807
  158MOL    C8231796   5.000   5.624   4.727  0.2941  0.1404 -0.1805
  158MOL    C8331797   4.861   5.585   4.779  0.2351 -0.5988  0.2804
  158MOL   Cl8431798   4.866   5.451   4.882 -0.2557 -0.3556 -0.2041
  158MOL    C8531799   4.749   5.642   4.744  0.2861 -0.7464  0.0409
  158MOL    C8631800   4.613   5.606   4.802 -0.4047  0.7954 -0.4523
  158MOL    H8731801   5.069   5.585   4.802 -1.1629 -3.3928 -0.5744
  158MOL    H8831802   5.011   5.575   4.631 -0.3161  1.4029 -0.9019
  158MOL    H8931803   4.751   5.721   4.670  2.1372  0.2653  1.1250
  158MOL    H9031804   4.561   5.547   4.726 -1.4031 -1.0292  1.5837
  158MOL    H9131805   4.629   5.544   4.890 -0.0654  0.9413 -0.4102
  158MOL    C9231806   4.534   5.735   4.838 -0.0335  1.2110 -0.4454
  158MOL    C9331807   4.390   5.693   4.877 -0.4623  0.0100 -0.0092
  158MOL   Cl9431808   4.373   5.633   5.038 -0.1558  0.0002  0.3703
  158MOL    C9531809   4.288   5.699   4.796  0.0025 -0.1431 -0.3817
  158MOL    C9631810   4.276   5.753   4.654  0.7524 -0.4352 -0.8081
  158MOL    H9731811   4.534   5.817   4.766  4.0563  2.3220  0.6636
  158MOL    H9831812   4.576   5.783   4.927 -0.9023 -0.1677  0.7243
  158MOL    H9931813   4.195   5.661   4.836  1.2420 -2.4940  0.3914
  158MOL   H10031814   4.378   5.750   4.616  0.6261  0.2549 -1.2062
  158MOL   H10131815   4.213   5.689   4.592  0.8706 -1.6924  0.3448
  158MOL   C10231816   4.236   5.896   4.649  0.1861  0.5819  0.3207
  158MOL   C10331817   4.194   5.939   4.509  0.9178  0.8799 -0.3133
  158MOL  Cl10431818   4.231   6.111   4.489  0.1528  0.4346 -0.1412
  158MOL   C10531819   4.115   5.866   4.426  0.1539  0.2488 -0.0698
  158MOL   C10631820   4.040   5.905   4.297  0.2194 -0.5528 -0.2338
  158MOL   H10731821   4.145   5.895   4.709 -1.0508 -1.5186 -1.5060
  158MOL   H10831822   4.311   5.965   4.687 -0.5661  0.2751  2.4592
  158MOL   H10931823   4.093   5.762   4.449  1.8679 -0.1234 -0.0296
  158MOL   H11031824   3.935   5.876   4.306 -0.1554  0.2829 -1.6613
  158MOL   H11131825   4.039   6.014   4.293 -0.8639 -0.5141  0.8885
  158MOL   C11231826   4.107   5.847   4.171  0.7605  0.7629 -0.2731
  158MOL   C11331827   4.067   5.909   4.037 -0.0103  0.2597  0.0005
  158MOL  Cl11431828   3.988   5.792   3.932 -0.2782  0.0852 -0.4103
  158MOL   C11531829   4.079   6.034   3.991  0.2448  0.5426  0.1174
  158MOL   C11631830   4.136   6.147   4.068  0.1425  0.1393 -0.5142
  158MOL   H11731831   4.214   5.865   4.184  0.5432  0.8070  1.5582
  158MOL   H11831832   4.079   5.743   4.156  1.1241  0.4603  1.0807
  158MOL   H11931833   4.049   6.058   3.890 -0.8715 -0.4196  0.2100
  158MOL   H12031834   4.214   6.107   4.133  2.2534  0.7570 -2.5830
  158MOL   H12131835   4.066   6.208   4.124  0.2882  0.4427 -0.6568
  158MOL   C12231836   4.201   6.242   3.968 -0.2935  0.4958 -0.2245
  158MOL   C12331837   4.309   6.325   4.032  0.3767 -0.0560 -0.7532
  158MOL  Cl12431838   4.448   6.329   3.927 -0.0361  0.4400  0.0682
  158MOL   C12531839   4.308   6.402   4.144  0.0975 -0.7005  0.3164
  158MOL   C12631840   4.185   6.420   4.235  0.4369  0.3671 -0.0909
  158MOL   H12731841   4.261   6.194   3.890  0.3814 -1.7739  1.6309
  158MOL   H12831842   4.115   6.295   3.927 -3.2468 -1.9234  2.6084
  158MOL   H12931843   4.395   6.456   4.179 -0.2322 -0.3177  0.5518
  158MOL   H13031844   4.092   6.425   4.178 -0.4380 -1.3481  1.1180
  158MOL   H13131845   4.178   6.341   4.311 -2.3239 -0.7922 -1.4632
  158MOL   C13231846   4.201   6.552   4.319 -0.1849 -0.8881  0.0469
  158MOL   C13331847   4.082   6.588   4.398  0.0369  0.1683  0.9714
  158MOL  Cl13431848   3.988   6.712   4.328  0.0548  0.5194 -0.2722
  158MOL   C13531849   4.052   6.543   4.522 -0.7463 -0.0037  0.0636
  158MOL   C13631850   4.131   6.430   4.592  0.1089 -0.3280  0.3438
  158MOL   H13731851   4.294   6.560   4.375  1.0389  2.5655 -2.2786
  158MOL   H13831852   4.197   6.632   4.245 -1.6939 -0.2363  0.8287
  158MOL   H13931853   3.973   6.590   4.580  2.1608  1.3321  3.1352
  158MOL   H14031854   4.061   6.350   4.617  1.5720 -1.8008 -0.1839
  158MOL   H14131855   4.211   6.391   4.529 -0.2977 -1.7113  0.6637
  158MOL   C14231856   4.191   6.470   4.723 -0.1188 -0.2325  0.3739
  158MOL   C14331857   4.269   6.356   4.791  0.5366  0.0116  0.0876
  158MOL  Cl14431858   4.175   6.260   4.905  0.4266  0.0478  0.0037
  158MOL   C14531859   4.400   6.341   4.776 -0.6050  0.4956 -0.2439
  158MOL   C14631860   4.491   6.247   4.851 -0.5820 -0.0069  0.2173
  158MOL   H14731861   4.114   6.497   4.795  0.0337  1.9861 -0.2291
  158MOL   H14831862   4.261   6.552   4.706 -0.6767  0.0570 -0.5880
  158MOL   H14931863   4.455   6.400   4.704 -0.5302  0.2682 -0.3707
  158MOL   H15031864   4.542   6.294   4.935 -4.3806  1.5959  1.6963
  158MOL   H15131865   4.435   6.171   4.906 -0.5903 -0.9570 -1.0806
  158MOL   C15231866   4.605   6.174   4.771 -0.9678 -0.4217 -0.8028
  158MOL   C15331867   4.725   6.136   4.865 -0.5978  0.4812 -0.4968
  158MOL  Cl15431868   4.880   6.201   4.822  0.1795  0.0680 -0.2251
  158MOL   C15531869   4.702   6.059   4.972  0.2158  0.2650  0.0530
  158MOL   C15631870   4.803   6.018   5.077  0.5117  0.2862  0.4663
  158MOL   H15731871   4.558   6.094   4.713  0.2240 -0.4638 -1.7491
  158MOL   H15831872   4.651   6.232   4.691  1.9757 -1.4780  0.0352
  158MOL   H15931873   4.599   6.032   4.987  0.2447  0.2510  0.2199
  158MOL   H16031874   4.756   6.042   5.172  1.5766 -0.0823  1.0954
  158MOL   H16131875   4.895   6.076   5.063  1.1781 -0.9938 -0.6102
  158MOL   C16231876   4.813   5.864   5.082 -0.4398  0.3330 -0.1456
  158MOL   C16331877   4.910   5.819   5.182 -0.2449  0.9072 -0.5284
  158MOL  Cl16431878   5.058   5.746   5.120  0.7523  0.2096  0.2278
  158MOL   C16531879   4.897   5.838   5.319 -0.0460  0.1655  0.8481
  158MOL   C16631880   4.995   5.798   5.424 -0.1918  0.5887  0.1974
  158MOL   H16731881   4.719   5.813   5.105  0.4825 -0.7100  1.3849
  158MOL   H16831882   4.858   5.831   4.988 -0.3149 -0.9907  0.3607
  158MOL   H16931883   4.806   5.885   5.355  1.8574  3.3644  1.7117
  158MOL   H17031884   5.065   5.726   5.381  1.1986  0.6852  2.2003
  158MOL   H17131885   5.056   5.884   5.452  1.3249 -0.1883 -0.6313
  158MOL   C17231886   4.930   5.734   5.539  0.0840 -0.1409 -1.0415
  158MOL   C17331887   5.022   5.687   5.653  0.1356  0.2160  0.2281
  158MOL  Cl17431888   5.034   5.808   5.780 -0.0109  0.0489  0.0170
  158MOL   C17531889   5.081   5.567   5.667  0.3181 -0.0130  0.0940
  158MOL   C17631890   5.173   5.528   5.777 -0.2217 -0.2003 -0.4267
  158MOL   H17731891   4.873   5.647   5.507 -1.1600  0.2528  0.0717
  158MOL   H17831892   4.856   5.803   5.579  0.7492  0.8643 -1.5130
  158MOL   H17931893   5.058   5.481   5.605 -2.5994 -0.7047  2.0235
  158MOL   H18031894   5.121   5.456   5.840 -1.8162  2.3935  1.3490
  158MOL   H18131895   5.194   5.613   5.842 -4.2160  0.4056  0.1959
  158MOL   C18231896   5.312   5.463   5.745  0.1029 -0.0026  0.1147
  158MOL   C18331897   5.390   5.405   5.857  0.4276  0.3426 -0.3506
  158MOL  Cl18431898   5.548   5.473   5.871 -0.1064  0.2384 -0.2375
  158MOL   C18531899   5.349   5.300   5.938  0.1507 -0.3918  0.5452
  158MOL   C18631900   5.427   5.239   6.057  0.0274 -0.3555  0.6272
  158MOL   H18731901   5.306   5.385   5.670 -0.6752  1.4312 -1.3467
  158MOL   H18831902   5.374   5.541   5.699  0.4333 -0.7396 -0.7067
  158MOL   H18931903   5.252   5.257   5.919 -0.0646  0.6099 -0.6774
  158MOL   H19031904   5.515   5.302   6.070 -0.8928  1.5890 -2.0728
  158MOL   H19131905   5.359   5.265   6.139 -0.4858  0.3655 -0.0212
  158MOL   C19231906   5.457   5.089   6.043 -0.1954 -0.2008 -0.9318
  158MOL   C19331907   5.517   5.045   6.175 -0.0058  0.3139  0.5149
  158MOL  Cl19431908   5.684   5.025   6.153  0.0806 -0.0608 -0.6419
  158MOL   C19531909   5.455   5.020   6.292  0.4348  0.2563 -0.2605
  158MOL   C19631910   5.312   5.039   6.318 -0.2510  0.5681  0.1078
  158MOL   H19731911   5.517   5.067   5.955 -1.8802  0.9114 -2.3875
  158MOL   H19831912   5.361   5.040   6.031 -0.5947  0.1682  0.6462
  158MOL   H19931913   5.509   4.992   6.382 -1.6575  0.1680  1.0087
  158MOL   H20031914   5.269   4.959   6.379  0.3444  0.5337  0.4943
  158MOL   H20131915   5.265   5.037   6.220  0.1942  3.6665 -0.2110
  158MOL   H20231916   5.282   5.134   6.362 -2.0054  0.5414 -0.9878
  159MOL     C131917   3.140   3.543   4.330 -0.8853 -0.6992  0.7216
  159MOL     C231918   3.139   3.516   4.182  1.1907 -0.4135 -0.1642
  159MOL    Cl331919   3.140   3.351   4.142  0.1985  0.0265  0.2880
  159MOL     C431920   3.116   3.609   4.087  0.2860  0.6286 -0.0428
  159MOL     C531921   3.109   3.756   4.100  0.4602  0.4749  0.3865
  159MOL     H631922   3.177   3.456   4.384  1.7818  0.6903  1.2188
  159MOL     H731923   3.035   3.564   4.348 -1.3412 -1.1288 -1.2486
  159MOL     H831924   3.104   3.575   3.985 -0.6853  0.6294  0.0649
  159MOL     H931925   3.004   3.782   4.082  0.3561  2.3695  3.4018
  159MOL    H1031926   3.122   3.787   4.203  2.6540  0.0810  0.2409
  159MOL    H1131927   3.207   3.628   4.341 -0.3758 -1.2200  1.6859
  159MOL    C1231928   3.199   3.847   4.016 -0.6803  1.1071 -0.2582
  159MOL    C1331929   3.158   3.989   4.028  0.1126 -0.4177 -0.7102
  159MOL   Cl1431930   3.251   4.076   4.146 -0.2947  0.1255  0.3616
  159MOL    C1531931   3.064   4.052   3.960 -1.1261  0.2820  0.5154
  159MOL    C1631932   2.985   4.011   3.849  0.0375  0.4442  0.5461
  159MOL    H1731933   3.305   3.836   4.040 -0.3506 -0.5606 -2.3984
  159MOL    H1831934   3.190   3.816   3.913 -0.8120  0.8283 -0.1613
  159MOL    H1931935   3.054   4.154   3.997  1.1659  0.2022  1.4553
  159MOL    H2031936   3.025   3.918   3.811 -2.1486 -0.0393 -0.6522
  159MOL    H2131937   2.888   3.995   3.896 -0.8775  1.9590 -0.7607
  159MOL    C2231938   2.973   4.123   3.743 -0.6995  0.0851  0.5954
  159MOL    C2331939   2.888   4.089   3.627  0.0592 -0.3924  0.2140
  159MOL   Cl2431940   2.741   4.187   3.635 -0.1399 -0.1798  0.0583
  159MOL    C2531941   2.914   3.999   3.529  0.3661 -0.1853 -0.4776
  159MOL    C2631942   2.827   3.959   3.417  0.5588  0.3755  0.1942
  159MOL    H2731943   2.934   4.205   3.803 -1.6812  0.1208 -0.0696
  159MOL    H2831944   3.070   4.148   3.699 -0.8390 -0.7358 -0.2025
  159MOL    H2931945   3.011   3.951   3.536  0.7461  0.2741 -2.4017
  159MOL    H3031946   2.726   3.981   3.452  1.1750  2.4948  0.6898
  159MOL    H3131947   2.850   4.020   3.330 -0.0135  1.3019  0.6816
  159MOL    C3231948   2.845   3.811   3.382  0.1576  0.1823 -0.1752
  159MOL    C3331949   2.729   3.738   3.318  0.1862  0.5165 -0.1977
  159MOL   Cl3431950   2.691   3.794   3.154 -0.1338 -0.3248 -0.5061
  159MOL    C3531951   2.681   3.627   3.374 -0.0061 -0.1641 -0.7550
  159MOL    C3631952   2.566   3.545   3.333  0.9169 -0.1459 -0.4420
  159MOL    H3731953   2.936   3.783   3.328  0.2740  0.4684 -0.1278
  159MOL    H3831954   2.863   3.757   3.475  0.5651 -0.1947 -0.4710
  159MOL    H3931955   2.737   3.589   3.459 -1.2877 -1.5440 -0.4984
  159MOL    H4031956   2.533   3.560   3.231 -0.9595 -0.6001  0.0706
  159MOL    H4131957   2.599   3.441   3.339 -1.6112 -0.8992  1.1936
  159MOL    C4231958   2.445   3.558   3.430 -0.2429 -0.2118 -0.0334
  159MOL    C4331959   2.314   3.482   3.396 -0.4911 -0.6585  0.1673
  159MOL   Cl4431960   2.316   3.329   3.484 -0.0616 -0.0663 -0.1404
  159MOL    C4531961   2.218   3.522   3.307 -0.1308 -0.4024 -0.1666
  159MOL    C4631962   2.224   3.639   3.216 -1.0558  0.2405 -0.6749
  159MOL    H4731963   2.470   3.546   3.536 -1.7030  0.2087  0.3710
  159MOL    H4831964   2.403   3.658   3.427 -0.6839 -0.3721  0.6598
  159MOL    H4931965   2.129   3.465   3.285 -0.3985  1.3497 -3.9883
  159MOL    H5031966   2.135   3.701   3.231 -1.0833 -0.1583  0.8200
  159MOL    H5131967   2.315   3.692   3.245 -1.2765 -0.7364  1.8733
  159MOL    C5231968   2.232   3.599   3.067 -0.2709 -0.3705  0.1131
  159MOL    C5331969   2.270   3.716   2.973 -0.5339  0.3474  0.5909
  159MOL   Cl5431970   2.432   3.694   2.918 -0.5282 -0.4869  0.0567
  159MOL    C5531971   2.197   3.825   2.944  0.3008  0.0268 -1.2723
  159MOL    C5631972   2.243   3.938   2.855 -0.2596  0.1453  0.1050
  159MOL    H5731973   2.311   3.523   3.067  0.3269  0.2419  0.4819
  159MOL    H5831974   2.141   3.553   3.029 -1.7812  1.4111  1.5159
  159MOL    H5931975   2.100   3.838   2.988  1.7071 -0.1737  2.0166
  159MOL    H6031976   2.195   4.030   2.889 -1.4556 -0.5235  0.2574
  159MOL    H6131977   2.350   3.952   2.869 -0.4906  0.3686  1.6657
  159MOL    C6231978   2.210   3.910   2.704  0.4210  0.0729  0.7645
  159MOL    C6331979   2.258   4.025   2.616  0.1285  0.3054  0.1179
  159MOL   Cl6431980   2.135   4.068   2.498  0.3735 -0.1246  0.2078
  159MOL    C6531981   2.375   4.089   2.630  0.5935  0.3703 -0.0122
  159MOL    C6631982   2.420   4.199   2.536  0.0224 -0.0547  0.3458
  159MOL    H6731983   2.257   3.818   2.668 -0.5487 -0.7156  1.4786
  159MOL    H6831984   2.103   3.897   2.691  0.4121  0.7223  0.1008
  159MOL    H6931985   2.448   4.050   2.699  1.0257  1.1324 -0.0307
  159MOL    H7031986   2.350   4.233   2.461  0.6461 -1.2748 -0.8178
  159MOL    H7131987   2.499   4.150   2.479  1.2521  1.3551  0.8048
  159MOL    C7231988   2.497   4.312   2.610 -0.4210 -0.0920  0.2462
  159MOL    C7331989   2.575   4.408   2.512 -0.5538 -0.7895  0.0251
  159MOL   Cl7431990   2.731   4.352   2.475  0.0542  0.2797  0.2451
  159MOL    C7531991   2.522   4.525   2.462  0.2441 -0.1847  0.1285
  159MOL    C7631992   2.595   4.638   2.387  0.1787  0.1620 -0.2143
  159MOL    H7731993   2.575   4.275   2.676  1.3811  2.9287 -0.1085
  159MOL    H7831994   2.424   4.364   2.673 -1.7085 -0.8994 -0.5506
  159MOL    H7931995   2.416   4.536   2.482  0.1260  2.7785 -1.7506
  159MOL    H8031996   2.567   4.635   2.282  1.0791 -1.5963 -0.4157
  159MOL    H8131997   2.700   4.613   2.396  0.5285  0.9570 -1.8650
  159MOL    C8231998   2.576   4.771   2.446  0.1282  0.3706 -0.3008
  159MOL    C8331999   2.653   4.878   2.385 -0.8678 -0.2098 -0.3373
  159MOL   Cl8432000   2.797   4.913   2.462 -0.2162  0.1492  0.2987
  159MOL    C8532001   2.619   4.930   2.264  1.0920  0.4920 -0.4509
  159MOL    C8632002   2.688   5.035   2.184  0.5209  0.0702  0.2577
  159MOL    H8732003   2.596   4.771   2.553  1.2382 -0.6038 -0.4957
  159MOL    H8832004   2.471   4.800   2.441 -0.6167 -2.3783 -1.7807
  159MOL    H8932005   2.520   4.899   2.231  0.3833 -0.1306  2.1441
  159MOL    H9032006   2.620   5.106   2.138  0.5611  0.1910  0.3852
  159MOL    H9132007   2.741   5.087   2.263  0.8355  0.1360  0.0006
  159MOL    C9232008   2.760   4.971   2.066  0.1517 -0.1022  0.4737
  159MOL    C9332009   2.809   5.065   1.955 -0.2068  0.0635  0.2180
  159MOL   Cl9432010   2.728   5.042   1.805  0.0669  0.1793 -0.2346
  159MOL    C9532011   2.917   5.149   1.956  1.1141  0.2891 -0.0635
  159MOL    C9632012   3.013   5.166   2.072  0.1088  0.6739  0.3967
  159MOL    H9732013   2.696   4.897   2.019  0.3659 -0.6346  1.0213
  159MOL    H9832014   2.851   4.921   2.099  0.2683  0.5690  1.1849
  159MOL    H9932015   2.933   5.204   1.864 -0.8492  0.2334 -0.4556
  159MOL   H10032016   2.997   5.076   2.131  1.2684  0.5492  0.5224
  159MOL   H10132017   3.113   5.175   2.032  1.4625 -2.2057  2.9348
  159MOL   C10232018   2.984   5.291   2.157 -0.7187  0.4493 -0.6023
  159MOL   C10332019   2.983   5.418   2.093  0.4451  0.2433 -0.5757
  159MOL  Cl10432020   2.826   5.498   2.099  0.1514 -0.1219 -0.0403
  159MOL   C10532021   3.090   5.469   2.023 -0.6989  0.0707 -0.0979
  159MOL   C10632022   3.090   5.603   1.957 -0.1550  0.3846 -0.2528
  159MOL   H10732023   2.889   5.276   2.208 -0.4623 -3.0906 -1.0542
  159MOL   H10832024   3.069   5.291   2.226 -2.0398  0.0607  1.0819
  159MOL   H10932025   3.182   5.413   2.019  0.2091  1.5751 -0.5451
  159MOL   H11032026   3.000   5.663   1.975  0.5267  1.1135  0.7639
  159MOL   H11132027   3.182   5.647   1.994  0.1917  0.1069 -0.7911
  159MOL   C11232028   3.096   5.594   1.801 -0.8098 -0.4648 -0.5607
  159MOL   C11332029   3.156   5.723   1.743  0.1228  0.2535  0.3787
  159MOL  Cl11432030   3.315   5.689   1.682 -0.0003 -0.1547 -0.3466
  159MOL   C11532031   3.111   5.850   1.739  0.3636  0.3305 -0.1906
  159MOL   C11632032   2.977   5.888   1.794  0.1373  0.1588  0.9018
  159MOL   H11732033   3.171   5.519   1.776  0.4316 -0.6324  3.3893
  159MOL   H11832034   3.000   5.575   1.753 -1.9907  0.1225  1.4905
  159MOL   H11932035   3.163   5.935   1.698 -0.7614  0.4471 -1.3979
  159MOL   H12032036   2.986   5.981   1.850 -0.9237  0.4841  0.5326
  159MOL   H12132037   2.935   5.825   1.872 -0.8996 -2.2998 -1.5633
  159MOL   C12232038   2.878   5.908   1.684  0.4058  0.2515  0.3718
  159MOL   C12332039   2.733   5.922   1.740  0.1302 -0.3014 -0.0382
  159MOL  Cl12432040   2.710   6.086   1.805  0.5053  0.4532 -0.2145
  159MOL   C12532041   2.642   5.827   1.736  1.2029 -0.0044  0.0767
  159MOL   C12632042   2.662   5.686   1.690  0.3689 -0.6686  0.1960
  159MOL   H12732043   2.896   5.997   1.623 -2.1564  0.8956  0.4996
  159MOL   H12832044   2.885   5.826   1.613  0.0464 -1.5628  2.4013
  159MOL   H12932045   2.546   5.853   1.777  0.8437 -2.1649  0.6394
  159MOL   H13032046   2.615   5.672   1.593 -0.9585  0.6571  0.6238
  159MOL   H13132047   2.766   5.659   1.670  0.5844 -0.0314  0.4375
  159MOL   C13232048   2.600   5.584   1.785 -0.0508 -0.9914  0.4260
  159MOL   C13332049   2.621   5.446   1.734  0.8342  0.2275  0.0202
  159MOL  Cl13432050   2.774   5.381   1.772  0.2347  0.3123  0.1062
  159MOL   C13532051   2.527   5.370   1.665 -0.9308 -0.3660 -0.2354
  159MOL   C13632052   2.400   5.424   1.600  1.1950  0.0002  0.4594
  159MOL   H13732053   2.641   5.593   1.885 -1.4354  1.5071  0.8088
  159MOL   H13832054   2.494   5.605   1.798  0.4917  0.6923  2.2989
  159MOL   H13932055   2.547   5.265   1.647  1.6453  0.1633 -0.6924
  159MOL   H14032056   2.327   5.390   1.674 -0.6596 -0.1390 -1.3931
  159MOL   H14132057   2.409   5.532   1.590  1.3218 -0.2212 -2.1522
  159MOL   C14232058   2.389   5.370   1.458 -0.5019  0.2679 -0.1438
  159MOL   C14332059   2.261   5.420   1.392 -0.3128  0.5488 -0.1848
  159MOL  Cl14432060   2.271   5.592   1.386  0.2678 -0.0457 -0.0754
  159MOL   C14532061   2.149   5.352   1.363  0.0920  0.3066  0.7238
  159MOL   C14632062   2.020   5.422   1.318 -0.5623 -0.0350  0.1317
  159MOL   H14732063   2.389   5.261   1.471 -1.1421  0.3184  0.3212
  159MOL   H14832064   2.476   5.391   1.397 -0.5443 -1.1554 -0.7277
  159MOL   H14932065   2.136   5.245   1.357 -0.5648  0.4410 -0.4319
  159MOL   H15032066   2.033   5.530   1.328  0.6071 -0.1224 -0.3085
  159MOL   H15132067   1.999   5.390   1.216 -0.9677  0.8282 -0.0646
  159MOL   C15232068   1.894   5.396   1.404 -0.1496 -0.4876 -0.3657
  159MOL   C15332069   1.772   5.471   1.352  0.7927 -0.3134 -0.7431
  159MOL  Cl15432070   1.694   5.573   1.465 -0.1478 -0.2046 -0.3658
  159MOL   C15532071   1.729   5.459   1.229  0.0347  0.2712 -0.6264
  159MOL   C15632072   1.609   5.532   1.171  0.1743 -0.1691 -0.0272
  159MOL   H15732073   1.873   5.289   1.409  0.5472 -0.5960  0.3260
  159MOL   H15832074   1.927   5.429   1.502  0.8906  1.8318 -1.4599
  159MOL   H15932075   1.775   5.391   1.158 -0.5045 -1.5268  0.6958
  159MOL   H16032076   1.648   5.591   1.088  1.1163 -0.6208  0.0861
  159MOL   H16132077   1.554   5.580   1.252  1.9436  1.4076  0.2502
  159MOL   C16232078   1.499   5.446   1.110 -0.0878 -0.4972 -0.1062
  159MOL   C16332079   1.393   5.530   1.044 -0.2822  0.2393  0.0972
  159MOL  Cl16432080   1.394   5.499   0.880 -0.3510 -0.3342  0.2551
  159MOL   C16532081   1.315   5.624   1.099 -0.4536 -0.1448  0.3824
  159MOL   C16632082   1.221   5.713   1.025 -0.1069 -0.2887  0.8915
  159MOL   H16732083   1.533   5.374   1.035 -1.3750 -1.4540  0.2066
  159MOL   H16832084   1.439   5.389   1.181 -0.3828 -1.2501 -0.9504
  159MOL   H16932085   1.328   5.643   1.205  3.1472  2.0760 -0.3481
  159MOL   H17032086   1.255   5.816   1.035 -1.3922  0.1695  0.5483
  159MOL   H17132087   1.217   5.686   0.919 -2.3236 -1.6969  1.3009
  159MOL   C17232088   1.086   5.691   1.092 -0.1463 -0.1208 -0.0461
  159MOL   C17332089   0.988   5.803   1.061  0.0937  0.5742  0.1637
  159MOL  Cl17432090   0.964   5.909   1.192 -0.0663  0.1501  0.1303
  159MOL   C17532091   0.910   5.818   0.951 -0.0386  0.3569  0.0281
  159MOL   C17632092   0.812   5.933   0.929  0.3644  0.6113  0.1429
  159MOL   H17732093   1.097   5.678   1.200 -0.7658 -2.1088 -0.1953
  159MOL   H17832094   1.053   5.598   1.046  0.7253  0.4290 -1.8140
  159MOL   H17932095   0.921   5.740   0.877  0.8530  0.1946  0.3186
  159MOL   H18032096   0.858   6.010   0.867  0.1985 -0.2024 -1.0100
  159MOL   H18132097   0.785   5.968   1.028 -0.4178 -2.7241  1.1808
  159MOL   C18232098   0.688   5.890   0.855 -0.3354  0.2817 -0.7700
  159MOL   C18332099   0.630   6.010   0.781 -0.0170  0.8016  0.2363
  159MOL  Cl18432100   0.608   6.149   0.871 -0.1786  0.2381 -0.1500
  159MOL   C18532101   0.579   6.003   0.656  0.1830 -0.5103  0.2506
  159MOL   C18632102   0.516   6.112   0.575 -0.2852  0.6911 -0.0927
  159MOL   H18732103   0.724   5.818   0.782  0.1932  0.2964 -0.5283
  159MOL   H18832104   0.621   5.840   0.925  1.7085 -1.5061 -0.0344
  159MOL   H18932105   0.576   5.914   0.595  1.9378 -0.3866 -0.0435
  159MOL   H19032106   0.490   6.202   0.631  1.1307  0.6166  0.6919
  159MOL   H19132107   0.581   6.135   0.491  2.3340  1.0068  1.9869
  159MOL   C19232108   0.380   6.068   0.508 -1.0946  0.6607  0.2916
  159MOL   C19332109   0.337   6.158   0.401  0.1784  0.1282 -0.0870
  159MOL  Cl19432110   0.418   6.120   0.257  0.0706  0.1749 -0.3895
  159MOL   C19532111   0.239   6.248   0.408  0.1284 -0.6112  0.2528
  159MOL   C19632112   0.166   6.290   0.531  0.4217 -0.6515 -0.0741
  159MOL   H19732113   0.304   6.059   0.586 -0.0227 -4.4459  0.9267
  159MOL   H19832114   0.390   5.973   0.454  1.6309  1.0234  0.1187
  159MOL   H19932115   0.212   6.310   0.323 -0.0001 -1.2342 -0.1609
  159MOL   H20032116   0.165   6.217   0.612 -1.5282  0.0277  0.5602
  159MOL   H20132117   0.062   6.295   0.498  1.2844  1.4753 -2.6675
  159MOL   H20232118   0.201   6.389   0.560  0.4971 -0.2359 -1.5487
  160MOL     C132119   5.976   6.940   4.363  0.2213 -0.4717  0.1306
  160MOL     C232120   5.991   6.810   4.436 -0.9881  0.7322 -0.3784
  160MOL    Cl332121   6.139   6.745   4.405 -0.3203  0.0885 -0.0575
  160MOL     C432122   5.908   6.752   4.524 -0.0351 -0.2847 -0.9081
  160MOL     C532123   5.773   6.788   4.572  0.3825 -1.0752  0.1059
  160MOL     H632124   5.894   6.932   4.291  0.0686 -3.3307  0.5603
  160MOL     H732125   6.062   6.957   4.298 -0.1166 -1.9365 -0.7406
  160MOL     H832126   5.948   6.667   4.577  0.5430  2.0359  2.5628
  160MOL     H932127   5.752   6.738   4.667 -1.4748  0.3637  0.4810
  160MOL    H1032128   5.773   6.896   4.589  0.5329 -0.1157 -5.1469
  160MOL    H1132129   5.958   7.019   4.435 -0.9970 -0.2259 -0.4371
  160MOL    C1232130   5.665   6.752   4.475  0.1137 -0.1686 -0.3876
  160MOL    C1332131   5.525   6.803   4.510 -0.0304 -0.1290 -0.0918
  160MOL   Cl1432132   5.418   6.673   4.549 -0.1293 -0.2948 -0.3735
  160MOL    C1532133   5.485   6.929   4.516 -0.2738 -0.4651  0.3091
  160MOL    C1632134   5.566   7.059   4.488  0.3690  0.1962 -0.2082
  160MOL    H1732135   5.676   6.792   4.374 -1.3474 -0.0686 -0.5253
  160MOL    H1832136   5.656   6.643   4.472 -4.2043  0.0606  1.0113
  160MOL    H1932137   5.384   6.953   4.546 -0.8636 -0.3907 -1.6572
  160MOL    H2032138   5.659   7.028   4.439  1.3576  0.9611  1.1654
  160MOL    H2132139   5.514   7.121   4.415 -0.6227 -0.2695  0.0970
  160MOL    C2232140   5.581   7.120   4.625 -0.2972  0.8320  1.0227
  160MOL    C2332141   5.661   7.251   4.598 -0.6583  0.4796 -0.1620
  160MOL   Cl2432142   5.555   7.385   4.573 -0.3877 -0.1578  0.1477
  160MOL    C2532143   5.793   7.258   4.600  0.3938  0.0254  0.1931
  160MOL    C2632144   5.877   7.378   4.576  0.2781  0.2603 -1.0832
  160MOL    H2732145   5.481   7.146   4.660 -1.5034 -1.7912 -0.3361
  160MOL    H2832146   5.631   7.064   4.704 -1.1265 -0.5722  0.5686
  160MOL    H2932147   5.847   7.166   4.617  0.9660  0.5436  1.2312
  160MOL    H3032148   5.817   7.448   4.519 -0.9265 -0.2654 -0.4830
  160MOL    H3132149   5.905   7.405   4.678  0.5737 -0.1213 -1.0647
  160MOL    C3232150   5.999   7.348   4.501 -0.4381  0.2377  0.1394
  160MOL    C3332151   6.075   7.469   4.441  0.1887  0.2999  0.2882
  160MOL   Cl3432152   6.056   7.616   4.525  0.0889 -0.1183  0.1001
  160MOL    C3532153   6.167   7.456   4.349 -0.3019 -0.3426  0.0411
  160MOL    C3632154   6.270   7.562   4.308 -0.3692 -0.2365 -0.4500
  160MOL    H3732155   6.072   7.293   4.561 -0.0233  1.5361  0.8322
  160MOL    H3832156   5.962   7.286   4.419 -0.1255 -1.6982  1.4225
  160MOL    H3932157   6.168   7.357   4.307  0.7176  0.0639 -0.9293
  160MOL    H4032158   6.231   7.661   4.332 -0.1286 -0.2891  0.1500
  160MOL    H4132159   6.365   7.550   4.360 -0.8604 -1.9657  0.0920
  160MOL    C4232160   6.309   7.561   4.163  0.4289  0.2857 -0.4894
  160MOL    C4332161   6.387   7.436   4.118  0.7141 -0.0463  1.1909
  160MOL   Cl4432162   6.294   7.313   4.048  0.2610 -0.0984 -0.1347
  160MOL    C4532163   6.521   7.416   4.123  0.7593  0.1507  0.5035
  160MOL    C4632164   6.629   7.504   4.169  0.4878  0.1437  0.2026
  160MOL    H4732165   6.217   7.562   4.104 -1.2948  0.6288  2.1186
  160MOL    H4832166   6.361   7.653   4.135 -2.0902  1.6002 -1.0271
  160MOL    H4932167   6.547   7.317   4.087  0.4689  0.7830 -1.5336
  160MOL    H5032168   6.587   7.592   4.219  0.1277  0.2838 -0.3529
  160MOL    H5132169   6.684   7.453   4.249  0.5652 -0.4288 -0.2155
  160MOL    C5232170   6.720   7.535   4.050  0.3657 -0.5439  0.3502
  160MOL    C5332171   6.802   7.656   4.084  0.1907 -0.3260 -0.3585
  160MOL   Cl5432172   6.959   7.621   4.133 -0.1874  0.2981 -0.4446
  160MOL    C5532173   6.745   7.780   4.089  0.5275 -0.3723  0.4557
  160MOL    C5632174   6.820   7.906   4.137 -0.1661 -0.4979  0.4365
  160MOL    H5732175   6.776   7.442   4.047 -1.7309 -1.8677  1.3150
  160MOL    H5832176   6.671   7.543   3.953  2.0391  0.1329 -0.4615
  160MOL    H5932177   6.639   7.774   4.066  0.7411  0.4903 -0.8360
  160MOL    H6032178   6.779   7.925   4.237  0.0469  1.4096  0.1719
  160MOL    H6132179   6.928   7.900   4.145  0.1539  1.7970 -1.6544
  160MOL    C6232180   6.797   8.036   4.069  0.0681  0.2965 -0.7331
  160MOL    C6332181   6.871   8.151   4.140  0.6386  0.5886 -0.3590
  160MOL   Cl6432182   7.028   8.182   4.082  0.2460 -0.0687  0.3111
  160MOL    C6532183   6.818   8.230   4.237 -0.5307  0.6912 -0.9640
  160MOL    C6632184   6.885   8.341   4.303 -0.2276  0.0378  0.0221
  160MOL    H6732185   6.829   8.023   3.965 -0.4753 -0.9042 -0.7565
  160MOL    H6832186   6.690   8.042   4.051 -0.1775 -1.7784 -0.0710
  160MOL    H6932187   6.719   8.206   4.273  0.3192  1.5937  2.1723
  160MOL    H7032188   6.970   8.381   4.248  0.2379 -1.2310 -0.2046
  160MOL    H7132189   6.931   8.313   4.398 -0.0664  1.7784  0.4603
  160MOL    C7232190   6.792   0.038   4.334  0.0058 -0.2630 -0.0073
  160MOL    C7332191   6.844   0.129   4.446 -0.7415 -0.5119 -0.1292
  160MOL   Cl7432192   6.748   0.112   4.585  0.1538  0.3470  0.1556
  160MOL    C7532193   6.949   0.207   4.445  0.5557  0.0986 -0.6272
  160MOL    C7632194   7.012   0.264   4.572 -0.3100  0.3339  0.1229
  160MOL    H7732195   6.688   0.009   4.343  0.3868 -1.4564  0.5594
  160MOL    H7832196   6.789   0.107   4.249 -1.3599  1.0663  1.0956
  160MOL    H7932197   6.991   0.224   4.348 -0.6362  0.2692 -1.1251
  160MOL    H8032198   6.948   0.247   4.659  0.6791  0.7529  0.9402
  160MOL    H8132199   7.012   0.373   4.561 -0.2301  0.3421  0.2069
  160MOL    C8232200   7.160   0.228   4.589 -0.0739  0.3541 -0.1227
  160MOL    C8332201   7.227   0.280   4.713  0.3639 -0.1979 -0.6510
  160MOL   Cl8432202   7.134   0.397   4.804 -0.7648 -0.2304  0.2493
  160MOL    C8532203   7.333   0.225   4.772 -0.5940  0.1704  0.6419
  160MOL    C8632204   7.378   0.267   4.905  0.5335  0.2121  0.6756
  160MOL    H8732205   7.206   0.234   4.490 -1.3665 -1.6123 -0.8652
  160MOL    H8832206   7.168   0.120   4.603 -0.9352  0.2222 -0.5950
  160MOL    H8932207   7.393   0.148   4.726  0.2001  0.4448  1.2045
  160MOL    H9032208   7.367   0.376   4.899  0.9146  0.1408 -1.9815
  160MOL    H9132209   7.305   0.239   4.980 -1.6158 -0.7876 -1.7480
  160MOL    C9232210   7.525   0.246   4.935 -0.3677 -0.6224  0.4224
  160MOL    C9332211   7.567   0.297   5.076  0.3711 -0.1995 -0.7587
  160MOL   Cl9432212   7.649   0.448   5.056 -0.0121 -0.3159  0.3413
  160MOL    C9532213   7.548   0.245   5.194 -0.2443 -0.6058 -0.6247
  160MOL    C9632214   7.472   0.111   5.205  0.2236  0.5491 -0.2481
  160MOL    H9732215   7.585   0.286   4.853 -4.0477  1.3083 -1.4363
  160MOL    H9832216   7.538   0.138   4.943  1.6487 -0.2708  2.3583
  160MOL    H9932217   7.587   0.301   5.277  0.4361 -1.3072 -0.4660
  160MOL   H10032218   7.386   0.142   5.264  0.3036  3.0653 -1.3766
  160MOL   H10132219   7.454   0.077   5.104 -3.4376  0.4395  0.3598
  160MOL   C10232220   7.569   0.014   5.275  0.4693 -0.4226  0.1170
  160MOL   C10332221   7.499   8.296   5.307 -0.4925 -1.5063 -0.0388
  160MOL  Cl10432222   7.376   8.316   5.432 -0.0083 -0.1526 -0.1120
  160MOL   C10532223   7.510   8.182   5.237 -0.3338  0.1109 -0.8006
  160MOL   C10632224   7.437   8.058   5.271  0.2473 -0.2392 -0.3494
  160MOL   H10732225   7.668   0.003   5.230  0.7954  2.8573 -0.1245
  160MOL   H10832226   7.610   0.051   5.369 -0.1485 -1.1121  0.6678
  160MOL   H10932227   7.580   8.197   5.156  0.3986 -1.7020 -0.5301
  160MOL   H11032228   7.405   8.063   5.375 -2.9727  1.6270 -1.3730
  160MOL   H11132229   7.352   8.039   5.206  0.3639 -3.8216  0.4396
  160MOL   C11232230   7.525   7.923   5.264 -0.0737  0.4795 -0.2624
  160MOL   C11332231   7.450   7.791   5.284 -0.2802  1.4561 -0.4777
  160MOL  Cl11432232   7.457   7.746   5.451  0.1286  0.0917  0.3764
  160MOL   C11532233   7.368   7.723   5.197 -0.1371  0.7776  0.2766
  160MOL   C11632234   7.338   7.765   5.050 -0.6055 -0.3123 -0.6356
  160MOL   H11732235   7.589   7.927   5.176  1.7474  1.4617  1.0740
  160MOL   H11832236   7.602   7.935   5.340  0.0433  1.7174 -0.5599
  160MOL   H11932237   7.329   7.631   5.235  1.0411  0.2560  0.2633
  160MOL   H12032238   7.404   7.703   4.990  3.1979  0.1610  2.8225
  160MOL   H12132239   7.389   7.859   5.027  0.1735 -0.3576  0.8584
  160MOL   C12232240   7.193   7.755   5.018  0.0760 -0.0607  0.3867
  160MOL   C12332241   7.158   7.757   4.873  0.3300  0.1645 -0.7308
  160MOL  Cl12432242   7.073   7.901   4.834 -0.1300  0.1597  0.0988
  160MOL   C12532243   7.191   7.671   4.774  0.0185  0.0275 -0.2583
  160MOL   C12632244   7.273   7.547   4.789 -0.4713 -0.3213 -0.2654
  160MOL   H12732245   7.163   7.660   5.062 -1.1523 -0.4169 -1.1794
  160MOL   H12832246   7.143   7.834   5.074 -0.1229 -0.8271  1.2990
  160MOL   H12932247   7.156   7.690   4.673  1.6596 -0.4389 -0.9375
  160MOL   H13032248   7.373   7.568   4.751  0.0557  1.6094  2.0700
  160MOL   H13132249   7.285   7.524   4.895  0.9121  1.8396  0.0888
  160MOL   C13232250   7.210   7.431   4.716  0.3839 -0.5360 -0.6176
  160MOL   C13332251   7.297   7.312   4.719 -0.4179 -0.2286  0.0137
  160MOL  Cl13432252   7.230   7.187   4.807  0.3649 -0.1334 -0.3983
  160MOL   C13532253   7.412   7.294   4.658  0.2186 -0.5092  0.2561
  160MOL   C13632254   7.481   7.392   4.567 -0.0476  0.5562 -0.5851
  160MOL   H13732255   7.107   7.430   4.753  0.5637 -0.3205 -0.1071
  160MOL   H13832256   7.206   7.466   4.613  0.1166 -0.1237 -0.4723
  160MOL   H13932257   7.468   7.203   4.671  1.0985  0.2698  2.0873
  160MOL   H14032258   7.508   7.323   4.486  1.9413 -1.6145  1.8175
  160MOL   H14132259   7.406   7.458   4.525 -2.3330 -1.2645  0.5009
  160MOL   C14232260   7.610   7.450   4.625 -0.0164  0.7335 -0.3011
  160MOL   C14332261   7.712   7.489   4.524  0.0922 -0.6097 -0.2390
  160MOL  Cl14432262   7.670   7.640   4.442 -0.1168 -0.0607  0.2582
  160MOL   C14532263   7.830   7.423   4.505  0.8334 -0.3024 -0.3209
  160MOL   C14632264   7.939   7.451   4.407 -0.7890 -0.1399 -0.3679
  160MOL   H14732265   7.668   7.379   4.683  0.9934  2.5896  1.0151
  160MOL   H14832266   7.586   7.540   4.682  2.7645  1.7178 -0.5969
  160MOL   H14932267   7.833   7.333   4.563  0.7912  1.8510  3.1653
  160MOL   H15032268   7.923   7.538   4.343  2.3519 -1.2742 -2.8191
  160MOL   H15132269   8.036   7.463   4.455 -0.3855 -0.0713 -1.1786
  160MOL   C15232270   7.948   7.333   4.308 -0.4350 -1.0787 -0.4204
  160MOL   C15332271   8.038   7.227   4.353 -0.3697  0.2538 -0.0685
  160MOL  Cl15432272   7.952   7.077   4.360  0.0934  0.2099 -0.0963
  160MOL   C15532273   8.171   7.228   4.342  0.1835  0.0160  0.0979
  160MOL   C15632274   8.277   7.122   4.355 -0.1716  0.5973 -0.4215
  160MOL   H15732275   7.848   7.300   4.280 -1.1225  0.2664  0.3742
  160MOL   H15832276   7.995   7.374   4.218 -1.7936 -0.6714 -0.9525
  160MOL   H15932277   8.217   7.325   4.326 -0.2488 -0.1063 -1.9839
  160MOL   H16032278   8.225   7.029   4.381  1.1851 -0.2382 -0.6689
  160MOL   H16132279   8.349   7.147   4.432 -1.4267  1.9779  0.3293
  160MOL   C16232280   8.351   7.101   4.223 -0.2701  0.0241 -0.3061
  160MOL   C16332281   0.049   7.003   4.229 -0.3078  0.1426 -0.0349
  160MOL  Cl16432282   0.170   7.042   4.110  0.6965  0.4765  0.2370
  160MOL   C16532283   0.062   6.898   4.315  0.0205 -0.9383  0.5636
  160MOL   C16632284   0.170   6.791   4.319 -0.0539  0.0033 -0.0963
  160MOL   H16732285   8.280   7.063   4.150 -2.0156  1.9760  0.3416
  160MOL   H16832286   8.382   7.198   4.185 -1.3350 -0.3314 -2.1123
  160MOL   H16932287   8.405   6.887   4.390 -0.5470 -0.9404 -0.0223
  160MOL   H17032288   0.257   6.841   4.277  0.0939 -0.5061 -0.4103
  160MOL   H17132289   0.187   6.768   4.424 -0.8540  2.1023  0.5251
  160MOL   C17232290   0.124   6.678   4.230 -0.1248 -0.7734  0.2032
  160MOL   C17332291   0.230   6.574   4.187 -0.0212  0.5939  0.1366
  160MOL  Cl17432292   0.184   6.416   4.239  0.6451  0.3239  0.1422
  160MOL   C17532293   0.352   6.604   4.145 -0.6355 -0.0903 -0.1879
  160MOL   C17632294   0.457   6.501   4.107  0.5674 -0.2421  0.2788
  160MOL   H17732295   0.073   6.699   4.136 -1.0351  3.0049  1.4514
  160MOL   H17832296   0.050   6.620   4.286  0.4118  1.4561  3.3780
  160MOL   H17932297   0.384   6.705   4.128 -0.5574  0.2178  1.6507
  160MOL   H18032298   0.431   6.484   4.002  0.0211  0.7543  0.2481
  160MOL   H18132299   0.446   6.414   4.171  1.4309 -0.5466  0.0261
  160MOL   C18232300   0.601   6.556   4.118  0.2320 -0.0942  0.0101
  160MOL   C18332301   0.700   6.448   4.110  0.2311  0.6102 -0.0685
  160MOL  Cl18432302   0.784   6.419   4.260 -0.0867  0.1993  0.0596
  160MOL   C18532303   0.712   6.367   4.002  0.6022  0.0426 -0.0582
  160MOL   C18632304   0.790   6.239   3.979 -0.3859 -0.0957  0.1048
  160MOL   H18732305   0.626   6.624   4.036  1.5659 -1.9583 -1.1431
  160MOL   H18832306   0.626   6.619   4.203  1.6739  1.2820 -1.3868
  160MOL   H18932307   0.648   6.383   3.916 -0.5405  0.3697  0.8520
  160MOL   H19032308   0.856   6.213   4.062 -0.8802 -1.6862  0.0180
  160MOL   H19132309   0.709   6.167   3.980 -0.0432 -0.4781  0.7863
  160MOL   C19232310   0.877   6.238   3.857 -0.1001  0.6582  0.1649
  160MOL   C19332311   0.939   6.103   3.837 -0.9685 -0.4352 -0.1763
  160MOL  Cl19432312   1.087   6.089   3.927  0.2858 -0.4622 -0.3851
  160MOL   C19532313   0.902   6.007   3.753  0.5111 -0.1494  0.8577
  160MOL   C19632314   0.769   5.988   3.680  0.2080  0.4092  0.0169
  160MOL   H19732315   0.954   6.315   3.865  0.4798 -0.1080  2.3188
  160MOL   H19832316   0.808   6.259   3.776  0.0982 -2.1925 -0.8170
  160MOL   H19932317   0.957   5.915   3.741  0.9485  0.1510  0.5755
  160MOL   H20032318   0.739   5.894   3.726  1.0651  0.7184  1.2520
  160MOL   H20132319   0.795   5.982   3.574  3.5311  1.4736  0.6871
  160MOL   H20232320   0.697   6.069   3.689 -2.0127 -1.7597  2.1696
  161MOL     C132321   0.095   2.958   7.758  0.7003  1.1337  0.6763
  161MOL     C232322   0.038   3.097   7.715  0.0063 -0.6325 -0.3734
  161MOL    Cl332323   0.128   3.178   7.599  0.3193 -0.1411 -0.0031
  161MOL     C432324   8.335   3.145   7.740  0.0527  0.5087  0.2399
  161MOL     C532325   8.232   3.066   7.818  0.2020 -0.3482 -0.2588
  161MOL     H632326   0.096   2.967   7.867 -1.1686  0.3015  0.7922
  161MOL     H732327   0.191   2.938   7.712  1.7853  2.5750  2.2518
  161MOL     H832328   8.305   3.242   7.704  2.6148  1.2800  0.0743
  161MOL     H932329   8.153   3.023   7.755 -0.0774 -2.4428  1.4554
  161MOL    H1032330   8.274   2.974   7.859 -0.7664 -1.2567 -1.2633
  161MOL    H1132331   0.041   2.866   7.736  1.5696  0.9258 -0.5927
  161MOL    C1232332   8.179   3.152   7.924  0.0948  0.1937 -0.4715
  161MOL    C1332333   8.100   3.067   8.027  0.0933 -0.3369  0.3983
  161MOL   Cl1432334   8.186   3.023   8.167 -0.0544  0.4416 -0.2340
  161MOL    C1532335   7.966   3.039   8.011 -0.7498  0.3161 -0.6931
  161MOL    C1632336   7.869   3.082   7.907 -0.4563  0.3584  0.3492
  161MOL    H1732337   8.263   3.196   7.977 -1.2590  1.5055  0.6175
  161MOL    H1832338   8.118   3.236   7.891 -1.5359  0.0380  2.0182
  161MOL    H1932339   7.929   2.972   8.088  0.4560  0.4205 -0.0102
  161MOL    H2032340   7.795   3.156   7.939  0.4392  1.0009  0.9479
  161MOL    H2132341   7.921   3.128   7.823  0.8882 -0.4193  0.7492
  161MOL    C2232342   7.777   2.969   7.847 -0.2760 -0.2520  0.0983
  161MOL    C2332343   7.672   3.014   7.744  0.1729  0.2021 -0.4384
  161MOL   Cl2432344   7.706   3.163   7.676 -0.0460  0.4486 -0.1271
  161MOL    C2532345   7.560   2.942   7.712 -0.8756 -0.2840 -0.1655
  161MOL    C2632346   7.442   2.996   7.622 -0.4878 -1.1572  0.9769
  161MOL    H2732347   7.834   2.897   7.789 -1.7685 -0.1611 -1.5446
  161MOL    H2832348   7.718   2.913   7.919 -1.7330  1.0397 -0.0560
  161MOL    H2932349   7.554   2.839   7.744  0.5488 -0.5342 -0.6753
  161MOL    H3032350   7.460   3.101   7.603 -3.3794 -0.8230 -0.0228
  161MOL    H3132351   7.461   2.956   7.523  0.5927  1.0924  0.2572
  161MOL    C3232352   7.309   2.977   7.691 -0.4361  0.5658 -1.0109
  161MOL    C3332353   7.190   2.981   7.597 -0.2271 -0.2335 -0.1132
  161MOL   Cl3432354   7.086   3.112   7.625 -0.2883  0.3081 -0.5429
  161MOL    C3532355   7.158   2.880   7.514  0.3795  0.5404  0.4232
  161MOL    C3632356   7.035   2.885   7.432 -0.1927  0.8731 -0.4321
  161MOL    H3732357   7.305   2.875   7.730  1.8771  0.6931 -0.3709
  161MOL    H3832358   7.307   3.044   7.778  1.3640 -0.9934  0.2660
  161MOL    H3932359   7.225   2.797   7.498 -1.2694 -0.5384 -1.0652
  161MOL    H4032360   6.976   2.977   7.434  1.6985  2.1651 -1.8431
  161MOL    H4132361   7.067   2.885   7.328  1.1133  0.0020 -0.0382
  161MOL    C4232362   6.949   2.756   7.462 -0.8022 -0.6052 -0.1364
  161MOL    C4332363   6.809   2.765   7.400  0.5553  0.6222 -0.4934
  161MOL   Cl4432364   6.804   2.685   7.245 -0.0167  0.6762 -0.1135
  161MOL    C4532365   6.701   2.830   7.442  0.7808 -0.5103  0.3366
  161MOL    C4632366   6.678   2.903   7.576 -0.0427 -0.0982 -0.3502
  161MOL    H4732367   6.991   2.658   7.446  0.5249 -0.1173  0.3446
  161MOL    H4832368   6.930   2.737   7.568 -3.3257  1.6203 -0.1225
  161MOL    H4932369   6.616   2.851   7.378  0.1758  0.4985  1.4540
  161MOL    H5032370   6.597   2.865   7.638  1.1175  0.3438  1.4962
  161MOL    H5132371   6.766   2.879   7.636 -1.1922 -2.7741  0.3252
  161MOL    C5232372   6.667   3.050   7.546  0.8979 -0.6529 -0.6083
  161MOL    C5332373   6.630   3.142   7.663  0.1243  0.5617 -0.3026
  161MOL   Cl5432374   6.463   3.187   7.650 -0.2791  0.1458 -0.4402
  161MOL    C5532375   6.717   3.192   7.752  0.1645 -0.2037  0.8082
  161MOL    C5632376   6.684   3.282   7.868 -0.0201  0.3923 -0.1087
  161MOL    H5732377   6.756   3.089   7.497 -0.1949  0.9575 -1.3642
  161MOL    H5832378   6.592   3.069   7.469 -1.8218 -0.1364  2.0785
  161MOL    H5932379   6.821   3.162   7.749  0.5123  0.6828  2.8814
  161MOL    H6032380   6.575   3.284   7.865 -0.0391 -1.0338 -1.8154
  161MOL    H6132381   6.709   3.229   7.959 -0.8485 -0.8112 -0.5574
  161MOL    C6232382   6.745   3.420   7.868  0.0052  0.7367  0.3697
  161MOL    C6332383   6.743   3.482   8.004  0.2667  0.4973  0.1104
  161MOL   Cl6432384   6.595   3.560   8.047 -0.6257 -0.1250  0.0309
  161MOL    C6532385   6.847   3.487   8.084 -0.0853 -0.9430 -0.4679
  161MOL    C6632386   6.842   3.543   8.228  0.5643 -0.6047  0.1244
  161MOL    H6732387   6.844   3.420   7.823 -0.0366  0.2325  0.2682
  161MOL    H6832388   6.701   3.488   7.795 -0.7355 -2.1273 -1.9862
  161MOL    H6932389   6.940   3.446   8.049  0.7811  2.0348 -1.8808
  161MOL    H7032390   6.881   3.475   8.303  1.9628 -0.5142 -0.4949
  161MOL    H7132391   6.737   3.552   8.258  0.7406  1.9805  0.1179
  161MOL    C7232392   6.919   3.681   8.232 -0.8993  0.2546 -0.3346
  161MOL    C7332393   6.904   3.746   8.365  0.4047 -0.3005 -0.2423
  161MOL   Cl7432394   7.052   3.728   0.029 -0.0330  0.0098  0.2297
  161MOL    C7532395   6.802   3.809   8.415  0.3348 -0.2018 -0.3694
  161MOL    C7632396   6.799   3.865   0.133 -0.7826  0.0779 -0.1978
  161MOL    H7732397   6.900   3.752   8.151 -1.0631  0.6709  0.0667
  161MOL    H7832398   7.027   3.669   8.218 -1.0784 -2.3582  0.2017
  161MOL    H7932399   6.714   3.810   8.353  0.7734 -0.6200 -0.9901
  161MOL    H8032400   6.884   3.834   0.193 -1.4160  0.3048  0.8308
  161MOL    H8132401   6.709   3.845   0.191 -1.2161  0.0420 -0.8772
  161MOL    C8232402   6.825   4.012   0.132  0.0087  0.1987  0.3793
  161MOL    C8332403   6.969   4.045   0.107  0.4838  0.0155  0.4367
  161MOL   Cl8432404   7.078   3.998   0.241  0.1307  0.2723  0.0177
  161MOL    C8532405   7.012   4.112   8.418  0.0024 -0.0183  0.3479
  161MOL    C8632406   7.159   4.144   8.396  0.0696  0.7097  0.0479
  161MOL    H8732407   6.789   4.065   0.221  0.1162  0.0482  0.5130
  161MOL    H8832408   6.777   4.056   0.045 -0.3434 -0.6083  0.1647
  161MOL    H8932409   6.937   4.143   8.346  0.1543  0.0577  0.2205
  161MOL    H9032410   7.209   4.123   0.069 -1.5543  0.2247  0.8340
  161MOL    H9132411   7.210   4.082   8.323 -0.1543 -0.4063  0.8332
  161MOL    C9232412   7.184   4.288   8.363  0.2145 -0.5955  0.2536
  161MOL    C9332413   7.138   4.378   0.051  0.2676 -0.0957 -0.0475
  161MOL   Cl9432414   7.012   4.490   8.413  0.2936  0.2415 -0.0039
  161MOL    C9532415   7.210   4.401   0.161  0.0305  0.8706 -0.4122
  161MOL    C9632416   7.334   4.321   0.205 -0.5076  0.1633  0.2670
  161MOL    H9732417   7.142   4.318   8.266  1.5899  1.0311  0.1273
  161MOL    H9832418   7.291   4.302   8.346  0.3651  0.0043  1.6250
  161MOL    H9932419   7.179   4.480   0.228  1.2579 -0.3674  1.6561
  161MOL   H10032420   7.314   4.245   0.282 -1.8767 -0.3007 -0.5220
  161MOL   H10132421   7.371   4.259   0.124 -3.5520 -1.2044 -0.1537
  161MOL   C10232422   7.448   4.407   0.254 -0.6094  0.2473 -0.0661
  161MOL   C10332423   7.584   4.339   0.237  0.7755  0.3244 -0.2414
  161MOL  Cl10432424   7.646   4.353   0.076 -0.0697 -0.0559 -0.0716
  161MOL   C10532425   7.644   4.266   0.335  0.3714 -0.0967 -0.4565
  161MOL   C10632426   7.774   4.192   0.312  0.4574 -0.1926  0.4333
  161MOL   H10732427   7.453   4.499   0.195 -0.0286 -1.8271 -3.3450
  161MOL   H10832428   7.438   4.430   0.360 -1.3407 -0.9980  0.1451
  161MOL   H10932429   7.597   4.249   0.431  4.8914 -1.9329  1.5430
  161MOL   H11032430   7.757   4.087   0.337 -0.4523 -0.0507  0.3979
  161MOL   H11132431   7.801   4.185   0.207  0.3915  0.7721  0.3455
  161MOL   C11232432   7.884   4.240   0.409  0.1299 -0.3659  0.1382
  161MOL   C11332433   8.007   4.155   0.428 -0.0527 -0.2329 -0.1852
  161MOL  Cl11432434   8.088   4.102   0.285  0.0203 -0.1393 -0.2639
  161MOL   C11532435   8.048   4.117   0.549 -0.2897  0.1856 -0.7524
  161MOL   C11632436   7.977   4.150   0.681 -0.7591 -0.3117  0.1805
  161MOL   H11732437   7.922   4.338   0.379 -0.9327  0.0559  0.1560
  161MOL   H11832438   7.840   4.258   0.507  0.3137  3.5613 -0.4181
  161MOL   H11932439   8.134   4.052   0.556  1.2699  2.0786 -1.9762
  161MOL   H12032440   7.882   4.100   0.661 -1.6977  1.7376 -0.6617
  161MOL   H12132441   7.951   4.256   0.671 -1.1476 -0.2017  2.1405
  161MOL   C12232442   8.064   4.118   0.801  0.5161 -0.0291 -0.5338
  161MOL   C12332443   8.008   4.136   0.942  0.2663 -0.8605 -0.0671
  161MOL  Cl12432444   7.856   4.222   0.943  0.0888  0.0311 -0.1440
  161MOL   C12532445   8.075   4.104   1.055  0.1506  0.6067 -0.9222
  161MOL   C12632446   8.205   4.025   1.056  0.8957 -0.3847 -0.9112
  161MOL   H12732447   8.100   4.016   0.788  0.4176 -0.0130 -0.9187
  161MOL   H12832448   8.157   4.175   0.796  0.5992 -0.1041  0.0224
  161MOL   H12932449   8.031   4.136   1.149 -0.4057  0.3477 -1.0910
  161MOL   H13032450   8.233   3.998   0.954  1.0389 -0.1149 -0.9441
  161MOL   H13132451   8.281   4.095   1.091 -1.1544  1.1907  0.4957
  161MOL   C13232452   8.191   3.905   1.154  0.1656 -0.2539  0.0272
  161MOL   C13332453   8.322   3.857   1.216  0.1940  0.3361  0.1356
  161MOL  Cl13432454   0.007   3.784   1.098 -0.1001  0.0790  0.0482
  161MOL   C13532455   8.348   3.847   1.349  0.3230  0.2677 -0.3917
  161MOL   C13632456   8.264   3.872   1.474 -0.2222  0.1179 -0.3114
  161MOL   H13732457   8.130   3.931   1.241 -1.4044 -1.4359 -0.7129
  161MOL   H13832458   8.129   3.826   1.112  0.5594  1.2778 -3.6549
  161MOL   H13932459   0.019   3.798   1.378 -0.0156  1.3069  2.6398
  161MOL   H14032460   8.310   3.951   1.533 -0.0814  0.7844 -1.3065
  161MOL   H14132461   8.165   3.912   1.454 -0.3424 -1.9928 -4.5745
  161MOL   C14232462   8.260   3.745   1.555  0.2815 -0.0431 -0.1328
  161MOL   C14332463   8.180   3.732   1.684 -0.0587  0.2493 -0.0783
  161MOL  Cl14432464   8.280   3.702   1.825 -0.1701  0.0162  0.1894
  161MOL   C14532465   8.042   3.745   1.700  0.5501 -0.1372 -0.2324
  161MOL   C14632466   7.963   3.731   1.831  0.4023 -0.3895  0.2118
  161MOL   H14732467   8.361   3.718   1.587  1.2495  0.7813 -2.3769
  161MOL   H14832468   8.219   3.657   1.507  3.0329 -1.2117 -0.4181
  161MOL   H14932469   7.980   3.776   1.617  0.2449  0.3516  0.1781
  161MOL   H15032470   7.885   3.657   1.815 -0.0873 -0.1097  1.2823
  161MOL   H15132471   8.030   3.677   1.899  2.0055 -0.8559 -1.6664
  161MOL   C15232472   7.904   3.857   1.893 -0.3642  0.5400  0.3982
  161MOL   C15332473   7.802   3.833   2.000 -0.0491 -0.4624  0.3717
  161MOL  Cl15432474   7.658   3.926   1.983 -0.3734  0.4119 -0.4155
  161MOL   C15532475   7.822   3.754   2.104  0.3821  0.0805 -0.5711
  161MOL   C15632476   7.725   3.722   2.214  0.0343  0.3428  0.2586
  161MOL   H15732477   7.976   3.924   1.941  0.3927 -0.4434  0.6414
  161MOL   H15832478   7.844   3.909   1.818 -0.0052  0.9097  0.3614
  161MOL   H15932479   7.917   3.703   2.109  1.2952  1.9768  1.9101
  161MOL   H16032480   7.676   3.629   2.186  2.0568 -1.2535  1.8006
  161MOL   H16132481   7.649   3.799   2.226  3.0961  3.5101  0.1678
  161MOL   C16232482   7.799   3.707   2.350  0.2822  0.2183 -0.2347
  161MOL   C16332483   7.714   3.643   2.453 -0.1655 -0.6107  0.2920
  161MOL  Cl16432484   7.786   3.502   2.524  0.2835 -0.1515 -0.2483
  161MOL   C16532485   7.589   3.683   2.488  0.7704 -0.2297 -0.3872
  161MOL   C16632486   7.489   3.613   2.581 -0.3319 -0.1284  0.0291
  161MOL   H16732487   7.884   3.642   2.331  0.7350  1.1407 -1.4903
  161MOL   H16832488   7.834   3.803   2.389 -2.6998  1.6081 -0.8626
  161MOL   H16932489   7.539   3.767   2.442 -2.0991 -1.4599  0.3295
  161MOL   H17032490   7.534   3.532   2.639 -0.3077 -0.1023  0.0464
  161MOL   H17132491   7.467   3.688   2.657 -1.0613 -0.2298 -0.0856
  161MOL   C17232492   7.340   3.573   2.528 -0.1320  0.2471  0.7395
  161MOL   C17332493   7.254   3.518   2.644  0.2743  0.3970  0.3541
  161MOL  Cl17432494   7.255   3.612   2.789  0.2757 -0.0505  0.4288
  161MOL   C17532495   7.189   3.402   2.639 -0.2531 -0.0071  0.7269
  161MOL   C17632496   7.113   3.346   2.758  0.3519  0.0954 -0.2412
  161MOL   H17732497   7.342   3.500   2.448  2.7088  1.6886 -0.5813
  161MOL   H17832498   7.287   3.658   2.487 -0.4923  0.7259  2.1730
  161MOL   H17932499   7.183   3.349   2.545  2.6999  1.1569 -0.1606
  161MOL   H18032500   7.053   3.415   2.816 -0.8367 -1.0178 -0.1298
  161MOL   H18132501   7.192   3.311   2.824  0.1813 -0.9142 -0.5609
  161MOL   C18232502   7.041   3.221   2.708 -0.7259 -0.5398 -0.5821
  161MOL   C18332503   6.951   3.165   2.813 -0.0584  0.2471  0.8614
  161MOL  Cl18432504   6.810   3.270   2.842 -0.1145  0.4148 -0.0513
  161MOL   C18532505   6.972   3.045   2.875  0.4030  0.5031  0.4671
  161MOL   C18632506   6.877   2.977   2.973  0.2596 -0.4139 -0.9193
  161MOL   H18732507   6.982   3.242   2.619  0.7145 -0.2760 -1.4841
  161MOL   H18832508   7.117   3.149   2.677 -0.3693  0.1080 -1.2280
  161MOL   H18932509   7.060   2.985   2.857  0.2384  0.5723 -0.5817
  161MOL   H19032510   6.935   2.939   3.057 -0.6641 -1.5219 -0.7782
  161MOL   H19132511   6.799   3.044   3.008  0.0811 -1.8948  1.6618
  161MOL   C19232512   6.818   2.850   2.907 -0.5838 -0.1635  0.2773
  161MOL   C19332513   6.744   2.779   3.012  0.1788  0.5035 -0.3032
  161MOL  Cl19432514   6.607   2.864   3.065 -0.4037 -0.0693  0.2080
  161MOL   C19532515   6.775   2.654   3.060 -0.0570 -0.0482 -0.2779
  161MOL   C19632516   6.878   2.555   3.022  0.0659  0.2850 -0.8497
  161MOL   H19732517   6.897   2.797   2.855  1.6703  2.5932  0.7915
  161MOL   H19832518   6.746   2.889   2.834 -0.1850 -0.4977 -0.2946
  161MOL   H19932519   6.704   2.625   3.137 -1.1494  1.1816 -0.8190
  161MOL   H20032520   6.843   2.452   3.034  2.3022 -0.4016  0.0459
  161MOL   H20132521   6.968   2.574   3.081 -1.0788  2.5563  0.2492
  161MOL   H20232522   6.902   2.561   2.916 -0.7162 -1.3934 -1.1338
  162MOL     C132523   4.268   0.024   0.064 -0.6769  0.6041 -0.3111
  162MOL     C232524   4.302   8.380   8.352  0.6661 -0.0796  0.2502
  162MOL    Cl332525   4.438   0.029   8.276  0.3506  0.3828  0.2658
  162MOL     C432526   4.225   8.289   8.284 -0.5129  0.9151  0.3534
  162MOL     C532527   4.106   8.211   8.329  0.4535 -0.1104  0.7032
  162MOL     H632528   4.314   0.123   0.072 -3.3003  1.7634  1.1596
  162MOL     H732529   4.295   8.379   0.146  0.4509 -0.4538 -1.5144
  162MOL     H832530   4.255   8.274   8.181  0.4810 -0.2396  0.7870
  162MOL     H932531   4.090   8.244   0.011  1.3186 -0.9841  1.1353
  162MOL    H1032532   4.022   8.247   8.270  0.2794 -1.5185  0.0755
  162MOL    H1132533   4.159   0.032   0.062 -0.7080  0.0635 -1.5294
  162MOL    C1232534   4.130   8.060   8.312  0.5116  0.2350  0.2952
  162MOL    C1332535   3.999   7.980   8.317  1.0620  0.3399 -1.1672
  162MOL   Cl1432536   3.945   7.935   8.163  0.2158 -0.2454  0.1261
  162MOL    C1532537   3.932   7.936   0.008  0.1991 -0.2474  0.6302
  162MOL    C1632538   3.971   7.961   0.157  0.1764  0.0567  0.0699
  162MOL    H1732539   4.172   8.028   8.217  1.3572  0.4809  0.5805
  162MOL    H1832540   4.200   8.011   8.381  1.2134 -0.6868 -1.0443
  162MOL    H1932541   3.837   7.887   8.417  0.4745 -0.8507  0.9402
  162MOL    H2032542   3.950   7.873   0.218 -1.3376  0.5205  0.2411
  162MOL    H2132543   4.077   7.984   0.168  0.0108 -0.1210  2.2305
  162MOL    C2232544   3.892   8.086   0.220 -0.2793 -0.2674 -0.2589
  162MOL    C2332545   3.916   8.103   0.366  0.4053 -0.2514  0.3354
  162MOL   Cl2432546   4.059   8.018   0.425 -0.0420 -0.1938 -0.4226
  162MOL    C2532547   3.818   8.148   0.447  0.0991 -0.2791 -0.3830
  162MOL    C2632548   3.826   8.165   0.602 -0.1879 -0.1464 -0.8372
  162MOL    H2732549   3.911   8.178   0.164  0.4478 -0.1767  0.1330
  162MOL    H2832550   3.787   8.058   0.220 -0.9492  2.0229 -2.3500
  162MOL    H2932551   3.722   8.179   0.408 -0.2219  0.4763  0.9883
  162MOL    H3032552   3.920   8.118   0.632 -1.2867 -1.2178  1.0712
  162MOL    H3132553   3.832   8.269   0.632  1.4183 -0.2306 -0.8291
  162MOL    C3232554   3.710   8.098   0.667  0.3832 -0.0666 -0.0187
  162MOL    C3332555   3.713   8.105   0.818  0.4561  0.4134 -0.5446
  162MOL   Cl3432556   3.633   7.965   0.884  0.2458 -0.0818  0.4636
  162MOL    C3532557   3.769   8.201   0.895  0.4923  0.2634  0.8697
  162MOL    C3632558   3.772   8.199   1.048  0.6158  0.3790 -0.1662
  162MOL    H3732559   3.626   8.154   0.626 -0.3553 -2.0509 -1.3218
  162MOL    H3832560   3.696   7.995   0.632 -1.6134 -0.4989  1.9267
  162MOL    H3932561   3.831   8.279   0.852  0.8589 -1.1084 -1.1699
  162MOL    H4032562   3.793   8.301   1.082  2.7785 -0.1449  0.1539
  162MOL    H4132563   3.677   8.185   1.099  0.8448  0.5141  0.3061
  162MOL    C4232564   3.882   8.104   1.100  0.9511 -0.1467 -0.2869
  162MOL    C4332565   3.903   8.119   1.250  0.1190  0.1876 -0.9711
  162MOL   Cl4432566   4.038   8.218   1.291 -0.4823  0.0557 -0.0638
  162MOL    C4532567   3.830   8.057   1.350 -0.5968  0.7535  0.8570
  162MOL    C4632568   3.709   7.969   1.327 -0.4359  0.1126  0.2393
  162MOL    H4732569   3.863   7.998   1.083 -1.0299  0.0332  0.6779
  162MOL    H4832570   3.984   8.129   1.070  1.6239 -0.6911  1.4786
  162MOL    H4932571   3.856   8.079   1.452 -1.3774 -1.0781  1.4811
  162MOL    H5032572   3.619   8.025   1.352  0.1040 -0.1129  2.9048
  162MOL    H5132573   3.706   7.944   1.221  1.1162  0.3616  0.1266
  162MOL    C5232574   3.711   7.839   1.412  0.3783  0.2676 -0.1657
  162MOL    C5332575   3.595   7.745   1.370  0.0656 -0.7593 -0.6336
  162MOL   Cl5432576   3.624   7.680   1.215  0.4277 -0.2763  0.2185
  162MOL    C5532577   3.488   7.717   1.442  0.5426  0.3730 -0.0654
  162MOL    C5632578   3.389   7.611   1.404  1.7356 -0.5258  0.7212
  162MOL    H5732579   3.806   7.787   1.397  0.3053  0.0875 -0.0017
  162MOL    H5832580   3.704   7.869   1.516  0.8254 -1.2895  0.3304
  162MOL    H5932581   3.458   7.759   1.537  0.0946 -0.3201  0.1097
  162MOL    H6032582   3.287   7.647   1.388  2.3656  0.1303 -2.0071
  162MOL    H6132583   3.410   7.574   1.304 -0.1796  1.9348 -0.6366
  162MOL    C6232584   3.375   7.504   1.512  0.8776 -0.4660  0.2625
  162MOL    C6332585   3.289   7.386   1.471  0.2727 -0.6688  0.4760
  162MOL   Cl6432586   3.379   7.243   1.414  0.3621  0.0663  0.3988
  162MOL    C6532587   3.158   7.387   1.490  0.4112  0.1758 -0.4151
  162MOL    C6632588   3.065   7.271   1.453  0.1347 -0.3598  0.0113
  162MOL    H6732589   3.477   7.467   1.517  1.1426  0.3662  1.4187
  162MOL    H6832590   3.342   7.542   1.609 -2.7588  0.7007 -1.3601
  162MOL    H6932591   3.104   7.470   1.532 -2.6759 -0.3188 -3.1735
  162MOL    H7032592   3.019   7.234   1.544  3.2896 -1.3819  1.2830
  162MOL    H7132593   3.115   7.186   1.407 -0.1202  0.2957 -1.5446
  162MOL    C7232594   2.945   7.321   1.368 -0.0860 -0.7470  0.1381
  162MOL    C7332595   2.826   7.227   1.371  0.2601 -0.6546  0.0676
  162MOL   Cl7432596   2.671   7.310   1.402 -0.1990  0.3628 -0.1830
  162MOL    C7532597   2.844   7.095   1.359 -0.6482  0.3613  0.6751
  162MOL    C7632598   2.736   6.987   1.366  0.1308 -0.1118  0.2306
  162MOL    H7732599   2.967   7.344   1.264  1.6079 -0.4311  0.5526
  162MOL    H7832600   2.899   7.413   1.405 -0.0600 -0.9187  0.6037
  162MOL    H7932601   2.945   7.061   1.342 -0.5999  0.3635  0.9594
  162MOL    H8032602   2.748   6.917   1.284 -1.6487  0.6312 -0.6901
  162MOL    H8132603   2.639   7.035   1.354  0.4233  0.2575 -0.7008
  162MOL    C8232604   2.739   6.909   1.498  0.3243 -0.1868  0.1009
  162MOL    C8332605   2.646   6.984   1.599 -0.3224 -0.1999  0.2257
  162MOL   Cl8432606   2.509   6.891   1.640  0.0145  0.1533 -0.0091
  162MOL    C8532607   2.691   7.080   1.683  0.1757  0.6020  0.6163
  162MOL    C8632608   2.612   7.149   1.792  0.1875  0.0241 -0.9775
  162MOL    H8732609   2.841   6.897   1.532  0.1361  0.8141  1.0396
  162MOL    H8832610   2.694   6.811   1.481 -1.9677  1.1010 -1.4512
  162MOL    H8932611   2.789   7.126   1.679 -0.3857  1.6573 -1.4712
  162MOL    H9032612   2.644   7.253   1.780 -3.5277  1.6479  1.8146
  162MOL    H9132613   2.504   7.142   1.779 -0.2951  2.7530  1.0170
  162MOL    C9232614   2.664   7.099   1.929 -0.2735 -0.2214 -0.3433
  162MOL    C9332615   2.601   7.180   2.045 -0.2598 -0.5800  0.0743
  162MOL   Cl9432616   2.440   7.129   2.080 -0.1993 -0.5360 -0.1459
  162MOL    C9532617   2.662   7.258   2.135  0.1028 -0.5350 -0.0561
  162MOL    C9632618   2.811   7.294   2.137 -0.1034 -0.2895 -0.3845
  162MOL    H9732619   2.772   7.108   1.937 -0.1088 -3.1280  1.6776
  162MOL    H9832620   2.637   6.994   1.947 -2.2533  0.3380  0.1249
  162MOL    H9932621   2.605   7.295   2.218 -0.8955 -0.8575 -0.5944
  162MOL   H10032622   2.860   7.290   2.234  0.0032  1.3682 -0.3623
  162MOL   H10132623   2.863   7.224   2.072 -1.0339 -0.4154 -1.0097
  162MOL   C10232624   2.824   7.436   2.063 -0.2232 -0.4692 -0.5189
  162MOL   C10332625   2.940   7.433   1.961  0.0207 -0.1347 -0.2860
  162MOL  Cl10432626   2.897   7.401   1.792  0.2632  0.0593  0.1490
  162MOL   C10532627   3.065   7.457   1.998  0.0079 -0.0345 -0.2850
  162MOL   C10632628   3.187   7.455   1.911  0.6499  0.2779 -0.2796
  162MOL   H10732629   2.741   7.455   1.996 -2.0168  0.0133  1.7549
  162MOL   H10832630   2.827   7.523   2.128 -2.3525  0.1083 -1.1748
  162MOL   H10932631   3.085   7.485   2.101  0.2086  0.4689 -0.4595
  162MOL   H11032632   3.240   7.361   1.927 -0.3378 -0.2750 -0.1758
  162MOL   H11132633   3.163   7.468   1.806  0.4525 -0.6939 -0.3617
  162MOL   C11232634   3.270   7.574   1.952  0.3313 -0.3307 -0.4254
  162MOL   C11332635   3.406   7.594   1.877  0.7465 -0.6049 -0.1281
  162MOL  Cl11432636   3.493   7.442   1.873 -0.2347 -0.1500 -0.3629
  162MOL   C11532637   3.452   7.703   1.814  0.1731  0.2881 -0.2094
  162MOL   C11632638   3.395   7.840   1.810 -0.0841  0.5350  0.2778
  162MOL   H11732639   3.216   7.668   1.941  1.4252  0.2154 -1.2682
  162MOL   H11832640   3.292   7.565   2.058 -0.2877  2.1572 -0.0583
  162MOL   H11932641   3.540   7.691   1.752  2.0430  1.3642  2.1617
  162MOL   H12032642   3.301   7.828   1.864  0.9884 -2.8673  1.5091
  162MOL   H12132643   3.374   7.862   1.705  0.6738 -0.2561 -0.0526
  162MOL   C12232644   3.496   7.941   1.862  0.3220  0.3486  0.1048
  162MOL   C12332645   3.439   8.083   1.872 -0.5456  0.4956  0.1293
  162MOL  Cl12432646   3.464   8.177   1.724 -0.0366  0.4662  0.2060
  162MOL   C12532647   3.359   8.128   1.978 -0.3639 -0.2461  0.0597
  162MOL   C12632648   3.318   8.042   2.093  0.1731 -0.6007  1.1787
  162MOL   H12732649   3.535   7.926   1.963  0.3724  2.8257  0.4910
  162MOL   H12832650   3.583   7.936   1.796  0.0700  1.7348 -0.3351
  162MOL   H12932651   3.321   8.229   1.978 -2.6650 -1.0775  2.3086
  162MOL   H13032652   3.212   8.046   2.119  0.5697  0.4006  2.7091
  162MOL   H13132653   3.338   7.939   2.063  0.3970 -0.2786  0.2111
  162MOL   C13232654   3.395   8.069   2.218 -0.3333  0.5390 -0.9575
  162MOL   C13332655   3.385   8.214   2.267  0.4891  0.1205 -0.5660
  162MOL  Cl13432656   3.233   8.231   2.339  0.2508  0.4629 -0.0875
  162MOL   C13532657   3.474   8.315   2.260 -0.0702  0.5155 -0.5537
  162MOL   C13632658   3.603   8.304   2.181 -0.7695 -0.4528  0.0059
  162MOL   H13732659   3.354   8.009   2.299  0.6264  1.5575  0.3106
  162MOL   H13832660   3.496   8.031   2.203  0.0704  0.3378  1.9641
  162MOL   H13932661   3.446   8.409   2.305 -2.4304 -0.3535 -0.1392
  162MOL   H14032662   3.693   8.314   2.241  0.3674 -1.1576 -1.5243
  162MOL   H14132663   3.609   8.212   2.121  0.2045  0.4577 -1.3282
  162MOL   C14232664   3.614   8.410   2.073  0.0733 -0.8544 -0.1143
  162MOL   C14332665   3.746   8.415   2.009 -0.6946 -0.1811  0.1464
  162MOL  Cl14432666   3.871   0.082   2.086 -0.2124 -0.0317 -0.1974
  162MOL   C14532667   3.771   8.357   1.892  0.0563  0.2459  0.5766
  162MOL   C14632668   3.900   8.364   1.803  0.5631  0.4037 -0.1185
  162MOL   H14732669   3.596   0.090   2.111  0.1866 -1.3707  1.3441
  162MOL   H14832670   3.540   8.399   1.994  1.4484  2.0031 -1.8738
  162MOL   H14932671   3.694   8.298   1.844  0.3339  0.8983 -0.6889
  162MOL   H15032672   3.961   0.031   1.825  0.8723  0.1749 -0.0706
  162MOL   H15132673   3.960   8.289   1.854  0.4804 -0.3611 -1.1373
  162MOL   C15232674   3.879   8.305   1.666 -0.0021  0.2627  0.1010
  162MOL   C15332675   3.809   8.411   1.577  0.4487 -1.0318  0.1927
  162MOL  Cl15432676   3.675   8.347   1.484  0.1350 -0.1765 -0.0106
  162MOL   C15532677   3.858   0.109   1.552  1.1419 -0.1122 -0.1158
  162MOL   C15632678   3.797   0.205   1.460  0.2260 -0.1597  0.7398
  162MOL   H15732679   3.974   8.283   1.617  0.8879  1.5567  1.2141
  162MOL   H15832680   3.818   8.215   1.678  0.8349 -0.3336 -0.0874
  162MOL   H15932681   3.948   0.140   1.603  2.5044 -0.0922 -2.4680
  162MOL   H16032682   3.802   0.301   1.511 -1.8343  1.1211 -1.3693
  162MOL   H16132683   3.689   0.192   1.457 -0.2268  2.9524  1.3755
  162MOL   C16232684   3.862   0.216   1.318  0.0087 -0.3329  0.6113
  162MOL   C16332685   3.821   0.345   1.246 -0.5066 -0.2489  0.5943
  162MOL  Cl16432686   3.710   0.316   1.119  0.2387 -0.1428 -0.0406
  162MOL   C16532687   3.870   0.467   1.270 -0.4796  0.4205  0.3479
  162MOL   C16632688   3.855   0.596   1.193  0.4790  0.4022  0.0136
  162MOL   H16732689   3.970   0.227   1.314  0.2290 -2.7680 -1.2104
  162MOL   H16832690   3.829   0.133   1.255  2.8010 -0.8801 -0.1778
  162MOL   H16932691   3.937   0.476   1.355 -0.0189 -2.4234  0.3407
  162MOL   H17032692   3.951   0.621   1.148  0.1407 -0.2046 -1.0658
  162MOL   H17132693   3.788   0.585   1.107  0.8402 -0.0992 -0.2079
  162MOL   C17232694   3.810   0.714   1.276 -0.4238 -0.6088 -0.4604
  162MOL   C17332695   3.917   0.766   1.372  0.0697  0.4353  0.5577
  162MOL  Cl17432696   3.889   0.749   1.532  0.0493 -0.1600  0.2832
  162MOL   C17532697   4.028   0.838   1.321  0.1544  0.0662 -0.2188
  162MOL   C17632698   4.148   0.891   1.397  0.1309 -0.1606 -0.3170
  162MOL   H17732699   3.719   0.684   1.328 -1.3677 -0.1127 -1.7763
  162MOL   H17832700   3.770   0.795   1.215 -1.9054 -0.7422  0.3129
  162MOL   H17932701   4.034   0.848   1.214  1.2876  0.5085 -0.1289
  162MOL   H18032702   4.222   0.812   1.385 -1.5026 -1.8694  0.5474
  162MOL   H18132703   4.123   0.902   1.503  3.4946  2.3260  0.2971
  162MOL   C18232704   4.181   1.026   1.346 -0.3859 -1.0842 -0.0865
  162MOL   C18332705   4.307   1.081   1.409 -0.3591 -0.2131  0.0772
  162MOL  Cl18432706   4.414   1.140   1.286 -0.1398 -0.1877 -0.2428
  162MOL   C18532707   4.329   1.095   1.540 -0.2023  0.0219 -0.1517
  162MOL   C18632708   4.445   1.165   1.611  0.0775  0.4220  0.2995
  162MOL   H18732709   4.191   1.031   1.237 -1.6945  0.3153 -0.1572
  162MOL   H18832710   4.111   1.103   1.378  0.5090 -1.2746  2.3823
  162MOL   H18932711   4.252   1.057   1.607 -1.0299  0.3919 -0.8750
  162MOL   H19032712   4.470   1.097   1.692 -1.7338  0.9690  1.3550
  162MOL   H19132713   4.537   1.158   1.552  0.5306  2.4927  0.7236
  162MOL   C19232714   4.416   1.312   1.666 -0.0995  0.6451 -0.8127
  162MOL   C19332715   4.546   1.373   1.719 -0.2774 -0.1258  0.0460
  162MOL  Cl19432716   4.551   1.385   1.895  0.3514 -0.1222 -0.0217
  162MOL   C19532717   4.652   1.401   1.645  0.5952  0.2955 -0.7384
  162MOL   C19632718   4.662   1.388   1.496  0.4085  0.0404  0.0482
  162MOL   H19732719   4.340   1.316   1.744  0.4478 -1.6625 -0.0970
  162MOL   H19832720   4.386   1.372   1.581  2.0070  2.1912 -0.5248
  162MOL   H19932721   4.740   1.447   1.687 -0.4713  2.3071 -0.6168
  162MOL   H20032722   4.707   1.478   1.454 -0.2648 -0.5096 -1.8555
  162MOL   H20132723   4.566   1.351   1.460 -1.7379  2.8160  2.6904
  162MOL   H20232724   4.743   1.315   1.492  0.4933  0.1561 -0.3178
  163MOL     C132725   5.926   8.181   3.062 -0.1412 -0.2503 -0.0931
  163MOL     C232726   5.952   8.069   2.964  0.0155 -1.0808  0.2978
  163MOL    Cl332727   5.812   8.040   2.876  0.2764  0.1423  0.1529
  163MOL     C432728   6.062   8.003   2.939  0.1612  0.2614  0.0463
  163MOL     C532729   6.202   8.032   2.985 -0.2369 -0.1287 -0.0748
  163MOL     H632730   5.874   8.140   3.148 -0.9235  0.7027 -0.1048
  163MOL     H732731   5.864   8.260   3.020 -0.5522  0.1883  1.3138
  163MOL     H832732   6.049   7.921   2.870  0.6630 -0.5867  0.9671
  163MOL     H932733   6.194   8.116   3.055  1.1662 -1.7940  2.1725
  163MOL    H1032734   6.234   7.942   3.039  0.4235 -0.9994 -1.8709
  163MOL    H1132735   6.013   8.233   3.103 -0.6252  0.1766  0.3999
  163MOL    C1232736   6.299   8.051   2.866 -0.8639  0.5921 -0.4863
  163MOL    C1332737   6.436   8.049   2.940  0.3468  0.2291  0.0798
  163MOL   Cl1432738   6.499   8.204   2.973  0.2587  0.2135 -0.1893
  163MOL    C1532739   6.507   7.938   2.973  0.3903 -0.0298  0.1545
  163MOL    C1632740   6.475   7.794   2.943  0.7787  0.3451  0.3449
  163MOL    H1732741   6.290   7.975   2.788 -0.0758  1.3477 -1.3240
  163MOL    H1832742   6.281   8.152   2.830 -1.4541  0.2494 -1.1712
  163MOL    H1932743   6.601   7.937   3.026  0.1902 -1.4506  0.5190
  163MOL    H2032744   6.488   7.740   3.037  1.9779  2.2174  1.2932
  163MOL    H2132745   6.377   7.772   2.901  0.5929 -1.2043  1.5522
  163MOL    C2232746   6.560   7.733   2.836 -0.3472 -0.6338  0.1863
  163MOL    C2332747   6.546   7.583   2.814 -0.0405  0.0680  0.4537
  163MOL   Cl2432748   6.686   7.532   2.739 -0.0383 -0.4021  0.0764
  163MOL    C2532749   6.447   7.502   2.833  0.2379  0.0638  0.2898
  163MOL    C2632750   6.437   7.354   2.787  0.3860 -0.0410 -0.7471
  163MOL    H2732751   6.506   7.758   2.745 -1.4723 -0.7743  0.8080
  163MOL    H2832752   6.665   7.759   2.844  0.8350 -4.8204 -0.8448
  163MOL    H2932753   6.360   7.540   2.885  0.2569 -1.3005  1.3619
  163MOL    H3032754   6.341   7.343   2.737 -0.7129 -0.1698  1.3183
  163MOL    H3132755   6.515   7.323   2.718  0.0223  1.0745 -1.6703
  163MOL    C3232756   6.429   7.268   2.910  0.2222 -1.1722  0.5370
  163MOL    C3332757   6.412   7.118   2.890  0.8595  0.0324 -0.1742
  163MOL   Cl3432758   6.528   7.029   2.982  0.3502 -0.0458 -0.1585
  163MOL    C3532759   6.318   7.061   2.812  0.3621  0.5834 -0.1422
  163MOL    C3632760   6.301   6.912   2.790  0.2706 -0.2697  0.4213
  163MOL    H3732761   6.526   7.280   2.960 -0.0860  1.5023  0.5528
  163MOL    H3832762   6.346   7.304   2.970 -0.9571  0.3137 -1.9254
  163MOL    H3932763   6.253   7.128   2.758  2.1687  2.0581 -0.5254
  163MOL    H4032764   6.315   6.891   2.684  0.1985  1.5746  0.0372
  163MOL    H4132765   6.383   6.858   2.837 -0.2619 -1.0929  0.4133
  163MOL    C4232766   6.161   6.868   2.831  0.2050  0.7216  0.0946
  163MOL    C4332767   6.125   6.733   2.765  0.4889 -0.3605 -0.2578
  163MOL   Cl4432768   6.015   6.756   2.634 -0.1357 -0.4332 -0.4788
  163MOL    C4532769   6.166   6.614   2.795 -0.6446  0.4246 -0.6683
  163MOL    C4632770   6.261   6.568   2.903  0.1328 -0.1119  0.0194
  163MOL    H4732771   6.156   6.861   2.939 -0.4649  0.4468  0.0474
  163MOL    H4832772   6.085   6.936   2.793  0.1481  0.0078 -1.0870
  163MOL    H4932773   6.134   6.532   2.733  1.4029  0.9815 -2.4835
  163MOL    H5032774   6.340   6.540   2.834  0.3795 -1.5322  0.8540
  163MOL    H5132775   6.289   6.647   2.973  0.7480 -0.6749  0.4116
  163MOL    C5232776   6.232   6.441   2.983 -0.0610 -0.2616 -0.4177
  163MOL    C5332777   6.116   6.451   3.083 -0.0524  0.1311 -0.5973
  163MOL   Cl5432778   5.963   6.391   3.025  0.1439  0.4965 -0.1026
  163MOL    C5532779   6.133   6.493   3.212 -0.5701  0.8798  0.1652
  163MOL    C5632780   6.026   6.495   3.319  0.3782  0.0548 -0.5334
  163MOL    H5732781   6.211   6.361   2.912  2.1300 -2.7478  1.6708
  163MOL    H5832782   6.329   6.412   3.023 -0.1497  0.2248  0.1568
  163MOL    H5932783   6.236   6.516   3.234 -0.3371 -2.0682  2.3855
  163MOL    H6032784   5.938   6.432   3.304  0.5152  0.3623 -2.7042
  163MOL    H6132785   6.078   6.446   3.401  0.8812  2.8972  0.9098
  163MOL    C6232786   5.991   6.638   3.356  0.8056  0.7264  0.1419
  163MOL    C6332787   5.883   6.691   3.257 -0.4196  0.1228  0.1114
  163MOL   Cl6432788   5.730   6.700   3.332  0.2350  0.1797  0.1053
  163MOL    C6532789   5.908   6.735   3.133 -0.0281  0.4209  0.5171
  163MOL    C6632790   5.808   6.779   3.030  0.1281 -0.8568 -0.3393
  163MOL    H6732791   5.965   6.645   3.462  0.8340 -1.0559  0.2816
  163MOL    H6832792   6.078   6.704   3.348 -0.9228  2.8656 -1.2865
  163MOL    H6932793   6.011   6.737   3.101 -0.0185 -2.4112  0.1707
  163MOL    H7032794   5.713   6.740   3.064 -0.2879 -1.8441 -2.5060
  163MOL    H7132795   5.830   6.732   2.933 -0.6307 -1.7019 -0.1040
  163MOL    C7232796   5.796   6.929   3.007  0.6425  0.1405 -0.3123
  163MOL    C7332797   5.690   6.969   2.904 -0.3596 -0.4190 -0.4106
  163MOL   Cl7432798   5.743   6.977   2.741  0.3325  0.3230 -0.4657
  163MOL    C7532799   5.571   7.006   2.937 -0.3877 -0.9179 -0.5424
  163MOL    C7632800   5.456   7.036   2.837 -0.3313  0.2824  0.3027
  163MOL    H7732801   5.894   6.975   2.989  0.8475 -0.4433 -0.7307
  163MOL    H7832802   5.759   6.970   3.100 -0.7771  0.7687 -1.1377
  163MOL    H7932803   5.546   7.007   3.042  1.6433  0.7176 -0.0296
  163MOL    H8032804   5.504   7.057   2.741 -1.9017 -0.8765 -0.7538
  163MOL    H8132805   5.403   7.126   2.865  0.6236  1.2936 -1.1076
  163MOL    C8232806   5.375   6.914   2.823  0.6810  0.4057  0.9846
  163MOL    C8332807   5.263   6.940   2.719 -0.1354  0.3850  0.2117
  163MOL   Cl8432808   5.205   6.790   2.641  0.6464  0.2600 -0.2869
  163MOL    C8532809   5.213   7.060   2.684  0.2658 -0.2801 -0.2792
  163MOL    C8632810   5.115   7.075   2.573 -0.2409  0.0954  0.4278
  163MOL    H8732811   5.336   6.869   2.914  1.9718  0.2588  1.4739
  163MOL    H8832812   5.444   6.838   2.785  1.1632  1.2306  0.2064
  163MOL    H8932813   5.248   7.143   2.743  2.0139 -1.9793  1.1792
  163MOL    H9032814   5.182   7.126   2.504  0.8041 -1.4317  0.2963
  163MOL    H9132815   5.086   6.982   2.525 -0.2409  0.5967 -0.5618
  163MOL    C9232816   4.993   7.150   2.613 -0.3905  0.9653  0.1444
  163MOL    C9332817   4.939   7.231   2.495  0.5268 -0.1601  0.5379
  163MOL   Cl9432818   4.777   7.187   2.448 -0.0721 -0.0448  0.3028
  163MOL    C9532819   4.997   7.339   2.441 -0.4969  0.3028 -0.5211
  163MOL    C9632820   5.139   7.401   2.474  0.1659  0.4536  0.1674
  163MOL    H9732821   5.008   7.228   2.689 -3.0550  1.6446  0.0474
  163MOL    H9832822   4.914   7.089   2.657  0.3028  0.4992  0.7334
  163MOL    H9932823   4.947   7.402   2.369 -0.3280  2.5942  1.2872
  163MOL   H10032824   5.120   7.506   2.495 -0.7722  0.1440  0.9012
  163MOL   H10132825   5.187   7.352   2.559 -0.4566 -0.6588 -0.1046
  163MOL   C10232826   5.234   7.399   2.352  0.2664  0.3716  0.9012
  163MOL   C10332827   5.359   7.484   2.363  0.5727  0.3791  0.1008
  163MOL  Cl10432828   5.469   7.469   2.225 -0.5861 -0.3850  0.3841
  163MOL   C10532829   5.383   7.567   2.463  0.2989 -0.2358  0.1699
  163MOL   C10632830   5.507   7.663   2.482 -0.2637 -0.5215 -0.1271
  163MOL   H10732831   5.276   7.299   2.336 -1.3080 -0.4255  1.5750
  163MOL   H10832832   5.179   7.441   2.268 -1.3500 -2.7938  0.2840
  163MOL   H10932833   5.319   7.575   2.550  3.4845  0.8237  2.5273
  163MOL   H11032834   5.585   7.614   2.424 -1.8646 -3.3248  0.0100
  163MOL   H11132835   5.471   7.747   2.423  0.9992  1.1140  1.3512
  163MOL   C11232836   5.555   7.714   2.620  0.4714 -0.4887 -0.1835
  163MOL   C11332837   5.692   7.780   2.618 -0.7833 -0.0257  0.1726
  163MOL  Cl11432838   5.692   7.924   2.523  0.0855 -0.0811 -0.2809
  163MOL   C11532839   5.806   7.734   2.665  0.7704 -0.6822 -0.9231
  163MOL   C11632840   5.829   7.603   2.736  0.0791  0.2468 -0.9065
  163MOL   H11732841   5.486   7.787   2.663  0.4644 -0.2939 -0.5275
  163MOL   H11832842   5.552   7.627   2.686  0.6187 -0.6278 -0.3583
  163MOL   H11932843   5.896   7.792   2.650  0.6218  0.9146  3.4914
  163MOL   H12032844   5.907   7.555   2.677  0.3062 -1.5891  0.8520
  163MOL   H12132845   5.742   7.537   2.728  0.5702 -0.3938 -1.0175
  163MOL   C12232846   5.889   7.625   2.879  0.3178 -0.2098  0.4153
  163MOL   C12332847   5.912   7.489   2.947  0.1166 -0.3480  0.2189
  163MOL  Cl12432848   6.077   7.450   2.945  0.5565  0.1479 -0.3691
  163MOL   C12532849   5.824   7.411   3.006 -0.1834 -1.3465  0.6667
  163MOL   C12632850   5.677   7.438   3.027 -0.4118  0.0885  0.3481
  163MOL   H12732851   5.981   7.679   2.857  0.2781  0.2752  1.4124
  163MOL   H12832852   5.816   7.683   2.935  1.7686  1.2321  0.8482
  163MOL   H12932853   5.861   7.319   3.049  1.0229 -0.8445  0.7121
  163MOL   H13032854   5.650   7.535   2.985 -1.2183  0.3002  1.3505
  163MOL   H13132855   5.630   7.359   2.969  2.7114 -0.8198 -1.0654
  163MOL   C13232856   5.645   7.430   3.176  0.0108 -0.2008  0.4227
  163MOL   C13332857   5.495   7.427   3.195  0.5557 -0.7545 -0.0564
  163MOL  Cl13432858   5.432   7.268   3.195  0.1053  0.2427  0.0536
  163MOL   C13532859   5.414   7.539   3.223  0.4655  0.1911 -0.4089
  163MOL   C13632860   5.469   7.675   3.216 -0.1411 -0.7166  0.4256
  163MOL   H13732861   5.692   7.338   3.211 -0.7996 -0.5296  0.6453
  163MOL   H13832862   5.685   7.521   3.219  0.2704 -0.2428  0.2690
  163MOL   H13932863   5.308   7.521   3.235  0.8019 -0.4178  1.8489
  163MOL   H14032864   5.457   7.719   3.315 -0.3344  2.4664 -0.9453
  163MOL   H14132865   5.570   7.690   3.178 -0.2911  0.8079  0.5907
  163MOL   C14232866   5.381   7.760   3.126  0.4318  0.2160 -0.0349
  163MOL   C14332867   5.430   7.908   3.104 -0.1327 -0.0804 -0.2168
  163MOL  Cl14432868   5.490   7.941   2.955 -0.1826 -0.0451  0.3059
  163MOL   C14532869   5.396   8.012   3.186 -0.1280 -0.3054  0.6146
  163MOL   C14632870   5.412   8.166   3.163 -0.2627 -0.3722  0.2142
  163MOL   H14732871   5.288   7.782   3.178 -0.1901  0.1365 -1.0851
  163MOL   H14832872   5.346   7.710   3.035  1.9293  0.5678 -0.8063
  163MOL   H14932873   5.351   7.993   3.282  0.7874 -0.7882  0.9490
  163MOL   H15032874   5.394   8.179   3.056  0.7835  0.4988  0.1392
  163MOL   H15132875   5.327   8.219   3.205  1.4446  2.7209 -0.1100
  163MOL   C15232876   5.546   8.219   3.214  0.0245  0.2930 -0.4417
  163MOL   C15332877   5.571   8.371   3.210 -0.1919  0.1620 -0.2656
  163MOL  Cl15432878   5.740   8.416   3.227 -0.3166  0.0523 -0.1227
  163MOL   C15532879   5.484   0.047   3.174  0.2996 -0.5311  0.4987
  163MOL   C15632880   5.510   0.196   3.156 -0.8090 -0.0466 -0.6779
  163MOL   H15732881   5.552   8.208   3.322  0.1903 -0.0842 -0.4884
  163MOL   H15832882   5.633   8.166   3.176  0.1284  0.2639 -0.1635
  163MOL   H15932883   5.387   0.007   3.150  0.0082  0.9642 -0.8814
  163MOL   H16032884   5.607   0.201   3.107 -0.0769  2.1555  0.9470
  163MOL   H16132885   5.525   0.237   3.255  1.1894 -0.6167 -0.7269
  163MOL   C16232886   5.412   0.274   3.071  0.8846 -0.1064  0.0177
  163MOL   C16332887   5.455   0.405   3.019  0.9512 -0.9828  0.4695
  163MOL  Cl16432888   5.311   0.492   2.965 -0.1285  0.1929 -0.2006
  163MOL   C16532889   5.576   0.459   3.025  0.8183  0.1700  0.1920
  163MOL   C16632890   5.613   0.597   2.978  0.1948  0.8429 -0.5093
  163MOL   H16732891   5.381   0.222   2.981  0.2814 -0.4265  0.4034
  163MOL   H16832892   5.328   0.288   3.139 -1.2119 -0.7453 -2.4087
  163MOL   H16932893   5.659   0.408   3.073  1.6286 -0.0751 -1.4152
  163MOL   H17032894   5.721   0.602   2.959  0.1498  0.4527 -0.9116
  163MOL   H17132895   5.578   0.624   2.878 -1.1594 -0.6100 -0.4501
  163MOL   C17232896   5.584   0.705   3.082 -0.2343  0.0318 -0.6236
  163MOL   C17332897   5.691   0.742   3.179 -0.4614 -0.0958 -0.5881
  163MOL  Cl17432898   5.815   0.840   3.099  0.2374  0.1814  0.0289
  163MOL   C17532899   5.693   0.696   3.308 -1.3063 -0.5740  0.5589
  163MOL   C17632900   5.793   0.716   3.418 -0.2151 -0.0739  0.3142
  163MOL   H17732901   5.497   0.674   3.141  0.2600  2.0925  1.2749
  163MOL   H17832902   5.546   0.794   3.033 -1.4699 -0.7650 -1.1349
  163MOL   H17932903   5.609   0.636   3.341 -1.8443  1.5105  3.1448
  163MOL   H18032904   5.872   0.780   3.380 -1.0877  0.0982 -1.2399
  163MOL   H18132905   5.843   0.620   3.436 -0.6381  0.0642  2.4428
  163MOL   C18232906   5.735   0.771   3.547 -0.0709  0.4820 -0.0788
  163MOL   C18332907   5.844   0.796   3.645 -0.1588  0.1132 -0.4619
  163MOL  Cl18432908   5.839   0.964   3.676 -0.1324 -0.1471 -0.1594
  163MOL   C18532909   5.917   0.696   3.704  0.1288  0.4907  0.0777
  163MOL   C18632910   6.030   0.713   3.803  0.5689 -0.0294 -0.0878
  163MOL   H18732911   5.673   0.857   3.523 -0.3789  0.7271  1.5567
  163MOL   H18832912   5.658   0.705   3.587  1.2590 -0.4768  0.9386
  163MOL   H18932913   5.891   0.597   3.670  0.1668 -0.2774  2.2428
  163MOL   H19032914   6.127   0.698   3.756  1.0587  0.9054  0.5888
  163MOL   H19132915   6.064   0.810   3.841  4.1340 -0.6841 -1.4162
  163MOL   C19232916   5.989   0.631   3.926 -0.3571  0.1940  0.2244
  163MOL   C19332917   6.107   0.572   3.987 -0.2167  0.3834 -0.1746
  163MOL  Cl19432918   6.151   0.432   3.900  0.2274 -0.0610 -0.2362
  163MOL   C19532919   6.171   0.612   4.097  0.1501  0.1432 -0.1267
  163MOL   C19632920   6.133   0.732   4.180 -0.2104  0.8854 -0.1353
  163MOL   H19732921   5.922   0.547   3.909  0.6608 -0.9945  1.8985
  163MOL   H19832922   5.929   0.700   3.985  3.0345  1.8263  1.9215
  163MOL   H19932923   6.258   0.558   4.128 -1.7934 -2.5230  0.8895
  163MOL   H20032924   6.218   0.788   4.217  1.2566 -1.1551 -0.3757
  163MOL   H20132925   6.077   0.714   4.272 -0.2599 -2.0176 -0.6907
  163MOL   H20232926   6.065   0.797   4.125 -0.5656  1.7509  1.3061
  164MOL     C132927   1.146   0.682   5.774  0.1359  0.0440  0.1748
  164MOL     C232928   1.187   0.639   5.631 -0.5163 -0.2428  0.2605
  164MOL    Cl332929   1.044   0.634   5.540 -0.0759  0.0958  0.0290
  164MOL     C432930   1.306   0.592   5.591  0.1473 -0.0009  0.7359
  164MOL     C532931   1.434   0.581   5.676 -0.8264  0.2182 -0.5263
  164MOL     H632932   1.057   0.623   5.797 -0.4126  0.3487 -1.0972
  164MOL     H732933   1.121   0.788   5.779  2.1237  0.4663  1.8815
  164MOL     H832934   1.307   0.551   5.491 -0.1886 -0.3184  0.8585
  164MOL     H932935   1.409   0.628   5.771 -0.6654 -0.3755 -0.1923
  164MOL    H1032936   1.453   0.477   5.701 -1.2834 -0.1019 -1.4891
  164MOL    H1132937   1.216   0.657   5.853 -0.0892  0.1180  0.3974
  164MOL    C1232938   1.547   0.641   5.592 -0.6139 -0.8820  0.1434
  164MOL    C1332939   1.533   0.796   5.601  0.3226  0.8400 -0.0207
  164MOL   Cl1432940   1.574   0.864   5.751  0.3816  0.0775  0.2245
  164MOL    C1532941   1.511   0.871   5.497 -0.2720 -0.6991 -0.0347
  164MOL    C1632942   1.489   0.821   5.350 -0.0172  0.4967 -0.0613
  164MOL    H1732943   1.634   0.603   5.646 -1.2418 -2.3254  0.1505
  164MOL    H1832944   1.548   0.593   5.494 -0.0093 -0.2810 -0.1566
  164MOL    H1932945   1.507   0.977   5.512 -0.2850 -0.8482  1.0758
  164MOL    H2032946   1.475   0.713   5.349  1.5476  0.2970 -2.0136
  164MOL    H2132947   1.399   0.870   5.312  0.1509  1.0940  0.3103
  164MOL    C2232948   1.610   0.841   5.263 -0.0481 -0.5536  0.3107
  164MOL    C2332949   1.594   0.801   5.118 -0.2152 -0.4363 -0.5106
  164MOL   Cl2432950   1.742   0.749   5.056 -0.2499 -0.0592 -0.2641
  164MOL    C2532951   1.476   0.783   5.054 -0.3265 -0.3908  0.2130
  164MOL    C2632952   1.452   0.727   4.914 -0.0895  0.0687  0.3867
  164MOL    H2732953   1.629   0.948   5.269  1.6116 -0.7713 -0.5409
  164MOL    H2832954   1.693   0.784   5.305  0.9920  1.7146  1.4145
  164MOL    H2932955   1.378   0.801   5.096  0.1055  1.6595  0.3590
  164MOL    H3032956   1.545   0.719   4.859  1.2069  1.6120  2.2975
  164MOL    H3132957   1.416   0.627   4.941 -0.7968  0.2528  0.1348
  164MOL    C3232958   1.346   0.811   4.850 -0.4767 -0.1542 -0.2233
  164MOL    C3332959   1.282   0.764   4.720  0.3754  0.3247  0.5726
  164MOL   Cl3432960   1.396   0.715   4.604 -0.0916 -0.1239  0.1405
  164MOL    C3532961   1.149   0.769   4.703  0.5066 -0.2718  0.2504
  164MOL    C3632962   1.083   0.712   4.583  0.3012 -0.3449  0.1170
  164MOL    H3732963   1.271   0.837   4.926 -1.9687  1.3460 -2.1683
  164MOL    H3832964   1.386   0.908   4.823  0.6743 -0.0310  1.8316
  164MOL    H3932965   1.085   0.804   4.783 -0.6159 -2.1663  0.1933
  164MOL    H4032966   1.001   0.782   4.566 -0.4237 -1.1534  0.2218
  164MOL    H4132967   1.144   0.734   4.495 -0.8868 -0.9384 -0.8750
  164MOL    C4232968   1.023   0.567   4.602  0.1116 -0.2158  0.5824
  164MOL    C4332969   1.126   0.458   4.590 -0.4094 -0.2176 -0.2699
  164MOL   Cl4432970   1.201   0.466   4.433 -0.3307 -0.3700 -0.3390
  164MOL    C4532971   1.172   0.376   4.690  0.0724 -0.2111  0.4011
  164MOL    C4632972   1.119   0.367   4.831  0.1416 -0.3318  0.3258
  164MOL    H4732973   0.957   0.554   4.688 -1.2932 -0.7634 -0.5423
  164MOL    H4832974   0.952   0.552   4.520 -0.8794 -0.5302  1.4760
  164MOL    H4932975   1.260   0.314   4.681  0.9445  0.6367  2.6792
  164MOL    H5032976   1.033   0.432   4.844 -0.2570 -1.0779  1.4599
  164MOL    H5132977   1.072   0.270   4.845  0.1011 -0.5647 -1.2790
  164MOL    C5232978   1.232   0.389   4.939 -0.1659 -0.1939 -0.3225
  164MOL    C5332979   1.180   0.409   5.076  0.2976  0.3465 -0.0317
  164MOL   Cl5432980   1.225   0.564   5.129 -0.0741 -0.1371 -0.3639
  164MOL    C5532981   1.103   0.324   5.149 -0.1438  0.0744  1.0239
  164MOL    C5632982   1.026   0.363   5.278 -0.1649 -0.6795 -0.3871
  164MOL    H5732983   1.304   0.307   4.942 -1.0549 -1.0163 -0.8739
  164MOL    H5832984   1.297   0.470   4.908  0.0915 -1.0653 -2.1600
  164MOL    H5932985   1.085   0.230   5.099  3.7145 -0.9236  1.3826
  164MOL    H6032986   1.041   0.468   5.305  0.4833 -0.8708 -0.0021
  164MOL    H6132987   0.918   0.355   5.261 -0.6593 -0.6985  2.5518
  164MOL    C6232988   1.052   0.267   5.402  0.0075  0.7924  0.5509
  164MOL    C6332989   0.985   0.309   5.532 -0.5024 -0.2001 -0.0071
  164MOL   Cl6432990   1.101   0.314   5.650 -0.2596  0.2533 -0.1433
  164MOL    C6532991   0.853   0.334   5.558 -0.1015 -0.5209 -0.2977
  164MOL    C6632992   0.795   0.376   5.694  0.1188 -0.2908 -0.3140
  164MOL    H6732993   0.995   0.175   5.386 -0.3479  0.6975  2.3269
  164MOL    H6832994   1.160   0.255   5.410 -0.0612 -1.3873 -1.0999
  164MOL    H6932995   0.786   0.310   5.477 -1.9057 -1.8864  1.5372
  164MOL    H7032996   0.870   0.422   5.759 -1.7815 -0.6798  2.2363
  164MOL    H7132997   0.768   0.280   5.740  0.6582  0.0495  0.7428
  164MOL    C7232998   0.683   0.475   5.663 -0.0116  0.3672  0.8203
  164MOL    C7332999   0.614   0.525   5.782  0.2980  0.2539 -0.8152
  164MOL   Cl7433000   0.514   0.408   5.863  0.0643  0.4297 -0.1427
  164MOL    C7533001   0.619   0.654   5.820 -0.1645 -0.4905  0.1561
  164MOL    C7633002   0.546   0.706   5.946 -0.0870 -0.0235 -0.9422
  164MOL    H7733003   0.602   0.437   5.600  0.4645 -0.2522  0.5800
  164MOL    H7833004   0.726   0.557   5.606 -2.5434 -0.6530 -2.7152
  164MOL    H7933005   0.672   0.730   5.764 -0.8535 -0.2538 -0.1839
  164MOL    H8033006   0.609   0.784   5.989  1.0515 -0.8766 -1.0431
  164MOL    H8133007   0.548   0.632   6.026 -0.4382  1.2101  0.2260
  164MOL    C8233008   0.412   0.759   5.920 -0.4220 -0.9693  0.2245
  164MOL    C8333009   0.349   0.851   6.026  0.4013  0.3778 -0.3682
  164MOL   Cl8433010   0.213   0.773   6.105 -0.5709 -0.4943  0.2525
  164MOL    C8533011   0.387   0.978   6.055 -0.4657 -0.1642 -0.5769
  164MOL    C8633012   0.330   1.066   6.165  0.5566  0.0225  0.1924
  164MOL    H8733013   0.339   0.681   5.899  1.0141 -2.4008  0.5026
  164MOL    H8833014   0.400   0.816   5.827 -2.0671 -1.6266  0.0173
  164MOL    H8933015   0.464   1.028   5.998  0.4810 -1.2726 -0.2871
  164MOL    H9033016   0.324   1.168   6.127  0.5384  0.7438  2.0805
  164MOL    H9133017   0.228   1.037   6.192  0.6296  0.1953  0.6534
  164MOL    C9233018   0.421   1.071   6.283 -0.1327 -0.0263 -0.5010
  164MOL    C9333019   0.443   1.202   6.346 -0.1565 -0.4598  0.1781
  164MOL   Cl9433020   0.367   1.193   6.502  0.0836 -0.0138 -0.3507
  164MOL    C9533021   0.504   1.311   6.294 -0.0155  0.7136  0.0536
  164MOL    C9633022   0.571   1.317   6.152  0.0899 -0.8136 -0.3409
  164MOL    H9733023   0.519   1.040   6.246 -0.6602 -0.0095 -1.9405
  164MOL    H9833024   0.402   0.994   6.358  0.3787  0.3645  0.0317
  164MOL    H9933025   0.506   1.403   6.352 -1.6614  0.6819  0.1883
  164MOL   H10033026   0.546   1.221   6.106  2.2042 -1.1348 -0.8623
  164MOL   H10133027   0.521   1.395   6.095 -0.9168 -0.6942  0.6881
  164MOL   C10233028   0.725   1.328   6.163  0.3444  0.2087 -0.4746
  164MOL   C10333029   0.806   1.316   6.037  0.4800  0.1316  0.2766
  164MOL  Cl10433030   0.901   1.457   5.992  0.1015  0.2394  0.0342
  164MOL   C10533031   0.800   1.214   5.954 -0.4199  0.3677  0.5314
  164MOL   C10633032   0.850   1.204   5.817  0.2860  0.7923  0.6550
  164MOL   H10733033   0.739   1.423   6.213  0.3145 -0.5511  0.9975
  164MOL   H10833034   0.766   1.246   6.222 -0.4266 -0.2832 -0.6190
  164MOL   H10933035   0.748   1.125   5.983  1.9848 -0.5177  2.2824
  164MOL   H11033036   0.762   1.191   5.754 -0.3435 -0.2787  1.7258
  164MOL   H11133037   0.891   1.298   5.779 -3.0130  1.5078 -1.3324
  164MOL   C11233038   0.940   1.083   5.812 -0.2685  0.4749  0.6749
  164MOL   C11333039   0.963   1.018   5.674 -0.0286  0.2540 -0.1954
  164MOL  Cl11433040   0.812   0.944   5.625 -0.2996 -0.1486  0.0090
  164MOL   C11533041   1.070   1.022   5.593  0.3146  0.3797 -0.0066
  164MOL   C11633042   1.205   1.082   5.630 -0.0971  0.1871 -0.6101
  164MOL   H11733043   1.038   1.110   5.852  0.5690  3.1695 -2.9513
  164MOL   H11833044   0.904   0.998   5.870 -0.3721 -1.4378 -2.0982
  164MOL   H11933045   1.062   0.967   5.500 -0.4349  2.6781 -1.3604
  164MOL   H12033046   1.266   0.995   5.654 -1.9884 -0.7122  0.9817
  164MOL   H12133047   1.203   1.143   5.720  1.9977  1.1445 -1.1636
  164MOL   C12233048   1.261   1.156   5.514 -0.4899 -0.2875  0.1523
  164MOL   C12333049   1.199   1.292   5.494  0.1842  0.0979  0.5955
  164MOL  Cl12433050   1.099   1.300   5.357 -0.1511 -0.0739 -0.4302
  164MOL   C12533051   1.207   1.403   5.575 -0.4338  0.0992  1.0281
  164MOL   C12633052   1.289   1.418   5.704 -0.9203  0.0189 -0.0730
  164MOL   H12733053   1.366   1.175   5.533 -0.8310  1.2121  0.6260
  164MOL   H12833054   1.251   1.099   5.421  1.2751  1.1556 -0.9582
  164MOL   H12933055   1.148   1.490   5.549 -0.1729  0.0796  0.3644
  164MOL   H13033056   1.362   1.339   5.724 -0.1099  0.5664 -0.8714
  164MOL   H13133057   1.349   1.507   5.687 -2.5439  1.3049  0.7720
  164MOL   C13233058   1.202   1.447   5.821  0.1549 -0.2908 -0.7174
  164MOL   C13333059   1.276   1.464   5.950 -0.6193 -0.3663 -1.1437
  164MOL  Cl13433060   1.371   1.607   5.952 -0.2117 -0.3968 -0.1841
  164MOL   C13533061   1.259   1.389   6.065 -1.0336 -0.2965  0.4130
  164MOL   C13633062   1.170   1.277   6.090  0.5630  0.0943 -0.3487
  164MOL   H13733063   1.148   1.539   5.798  1.2031  0.5652  0.1738
  164MOL   H13833064   1.132   1.364   5.832 -2.1247  1.4066 -1.8231
  164MOL   H13933065   1.318   1.411   6.153  2.5188  0.8806 -2.1579
  164MOL   H14033066   1.134   1.308   6.188 -3.1609  2.6589 -2.4126
  164MOL   H14133067   1.086   1.270   6.021  0.6066  0.9219 -0.4959
  164MOL   C14233068   1.245   1.148   6.091 -0.0954 -0.3037 -0.2405
  164MOL   C14333069   1.183   1.050   6.189  0.0660 -0.5630  0.8565
  164MOL  Cl14433070   1.276   1.005   6.324 -0.2688  0.3718  0.1755
  164MOL   C14533071   1.063   0.991   6.162 -0.1408  0.5812  0.5052
  164MOL   C14633072   0.994   0.885   6.248  0.3111 -0.0427  0.6052
  164MOL   H14733073   1.348   1.162   6.124 -0.4124 -1.0368  1.1180
  164MOL   H14833074   1.250   1.106   5.991 -2.1372 -0.1262 -0.4463
  164MOL   H14933075   1.015   1.016   6.068 -1.2843 -0.7280  0.7258
  164MOL   H15033076   0.981   0.789   6.197  0.6832  0.7108 -0.9266
  164MOL   H15133077   1.053   0.871   6.339  0.0432 -1.2622  0.6085
  164MOL   C15233078   0.852   0.937   6.286  0.7347  0.7163  0.0870
  164MOL   C15333079   0.775   0.830   6.363  0.0224  0.2680  0.7034
  164MOL  Cl15433080   0.789   0.861   6.540 -0.0051  0.5136  0.1972
  164MOL   C15533081   0.712   0.724   6.318 -0.2908 -0.1051  0.2276
  164MOL   C15633082   0.645   0.617   6.404  0.4049  0.6878 -0.4580
  164MOL   H15733083   0.872   1.014   6.360  1.2713  0.6327  0.0306
  164MOL   H15833084   0.806   0.991   6.203 -0.5251 -1.8419 -0.9487
  164MOL   H15933085   0.715   0.696   6.213  1.1346  0.9257 -0.0099
  164MOL   H16033086   0.599   0.664   6.492  1.2734  0.6618  0.0161
  164MOL   H16133087   0.718   0.546   6.444  0.3382  0.4051 -0.8381
  164MOL   C16233088   0.540   0.538   6.320 -0.7566 -0.0764  0.0537
  164MOL   C16333089   0.461   0.436   6.411  0.1850 -0.7464 -0.3379
  164MOL  Cl16433090   0.509   0.274   6.374  0.1104 -0.0320 -0.1192
  164MOL   C16533091   0.361   0.472   6.495  1.2582 -0.1966 -1.3944
  164MOL   C16633092   0.277   0.372   6.572  0.7215  0.6756 -0.2187
  164MOL   H16733093   0.456   0.595   6.280  0.7594 -0.0832 -3.3473
  164MOL   H16833094   0.587   0.487   6.236 -0.3021  0.8905 -0.2805
  164MOL   H16933095   0.351   0.578   6.512  1.8694 -0.2581 -0.6367
  164MOL   H17033096   0.307   0.268   6.563  1.4429  0.8908 -0.3609
  164MOL   H17133097   0.287   0.403   6.676  0.8828 -0.3111  0.0624
  164MOL   C17233098   0.124   0.382   6.545  0.7358 -0.3787  0.3981
  164MOL   C17333099   0.092   0.362   6.396 -0.0323  0.4447  0.6635
  164MOL  Cl17433100   0.033   0.509   6.336 -0.0183 -0.0652 -0.5932
  164MOL   C17533101   0.111   0.246   6.325 -0.0651  0.4320  0.8515
  164MOL   C17633102   0.083   0.237   6.176 -0.1827  0.5397 -0.6632
  164MOL   H17733103   0.094   0.470   6.602 -0.6957 -0.1394 -0.6926
  164MOL   H17833104   0.068   0.308   6.602  0.3992 -1.6731 -1.5915
  164MOL   H17933105   0.150   0.157   6.372  2.4588  0.5941 -0.8264
  164MOL   H18033106   0.020   0.322   6.152  0.3911  1.3075  0.5180
  164MOL   H18133107   0.022   0.150   6.151 -0.4311  1.4575 -3.4034
  164MOL   C18233108   0.207   0.237   6.083 -0.0800 -0.0634 -0.0587
  164MOL   C18333109   0.178   0.264   5.935 -0.2058  0.1732 -0.3563
  164MOL  Cl18433110   0.175   0.118   5.836  0.1933  0.2973 -0.3786
  164MOL   C18533111   0.152   0.388   5.884  0.1547  0.2077  0.2128
  164MOL   C18633112   0.128   0.422   5.743 -1.0912  0.0456  0.8456
  164MOL   H18733113   0.269   0.322   6.113  1.9366 -0.9757 -1.4468
  164MOL   H18833114   0.264   0.145   6.091 -0.9341 -0.3063  3.7622
  164MOL   H18933115   0.160   0.467   5.958  1.8660  1.1324 -0.9398
  164MOL   H19033116   0.222   0.460   5.706 -0.8635 -1.4467 -0.1599
  164MOL   H19133117   0.098   0.333   5.687 -1.9704  0.5658  0.4716
  164MOL   C19233118   0.015   0.524   5.727 -0.7740 -0.2630 -0.3240
  164MOL   C19333119   8.376   0.548   5.588  0.3837  0.4392  0.1571
  164MOL  Cl19433120   8.263   0.432   5.534  0.5557 -0.0338 -0.4197
  164MOL   C19533121   8.394   0.661   5.518  0.4073  0.1547 -0.5619
  164MOL   C19633122   0.064   0.774   5.569 -0.4350 -0.4310  0.1964
  164MOL   H19733123   0.050   0.619   5.766 -0.2054  0.2956 -2.1480
  164MOL   H19833124   8.355   0.507   5.799 -0.1228 -2.3882 -0.0492
  164MOL   H19933125   8.340   0.668   5.425 -1.0822  0.7137  0.3172
  164MOL   H20033126   0.002   0.849   5.618  2.0844  1.5605  0.3640
  164MOL   H20133127   0.113   0.822   5.484 -0.2777  0.7585  0.9534
  164MOL   H20233128   0.143   0.754   5.640  0.0255 -0.5137 -0.3316
  165MOL     C133129   7.610   3.704   7.099 -0.1987 -0.1488 -0.6957
  165MOL     C233130   7.612   3.636   6.965  0.4344  0.8778  1.0642
  165MOL    Cl333131   7.529   3.741   6.858  0.3776 -0.4374  0.4011
  165MOL     C433132   7.674   3.519   6.939  0.7700  0.4628  0.1708
  165MOL     C533133   7.744   3.436   7.043 -0.8905 -0.0609 -0.2695
  165MOL     H633134   7.553   3.645   7.171 -1.0694 -0.3052 -1.5030
  165MOL     H733135   7.567   3.804   7.096  0.2281  0.1220  1.5637
  165MOL     H833136   7.678   3.461   6.849 -0.3619 -2.6030  2.0399
  165MOL     H933137   7.841   3.409   7.000 -1.2851 -2.3021  0.1609
  165MOL    H1033138   7.769   3.495   7.131  0.4235  1.6567 -1.7676
  165MOL    H1133139   7.708   3.708   7.146 -0.4151 -0.9986 -0.1529
  165MOL    C1233140   7.668   3.307   7.074 -0.2067  0.7513 -0.1634
  165MOL    C1333141   7.754   3.203   7.141 -0.3695 -0.1068  0.1646
  165MOL   Cl1433142   7.724   3.182   7.311 -0.1300 -0.0731 -0.1496
  165MOL    C1533143   7.834   3.122   7.077  0.0995  0.0045 -0.0147
  165MOL    C1633144   7.858   3.120   6.926  0.7213 -0.1946  0.2110
  165MOL    H1733145   7.584   3.339   7.135 -0.0592  1.5767 -0.3957
  165MOL    H1833146   7.627   3.256   6.987  0.4496 -0.8717  0.4556
  165MOL    H1933147   7.885   3.048   7.137  0.5982  0.5947  0.2892
  165MOL    H2033148   7.774   3.063   6.888  1.6925 -2.0201  0.7568
  165MOL    H2133149   7.860   3.223   6.888 -0.9301  0.0300  0.7036
  165MOL    C2233150   7.988   3.051   6.868 -0.2225  0.2818 -0.3274
  165MOL    C2333151   7.987   3.058   6.710  0.1835 -0.6051  0.1139
  165MOL   Cl2433152   7.859   2.966   6.639  0.2210 -0.1210  0.0362
  165MOL    C2533153   8.066   3.138   6.640  0.5796  0.4147  0.2519
  165MOL    C2633154   8.061   3.143   6.494  0.8970 -0.4493 -0.0286
  165MOL    H2733155   8.074   3.112   6.896 -0.4967  0.2714  0.5778
  165MOL    H2833156   8.003   2.950   6.906  0.5732  0.2829 -0.6297
  165MOL    H2933157   8.131   3.207   6.693  0.7634  2.5787 -2.6559
  165MOL    H3033158   8.002   3.061   6.455 -1.3003  0.5234  1.1626
  165MOL    H3133159   8.022   3.242   6.471  0.3140 -0.7871 -0.4802
  165MOL    C3233160   8.199   3.137   6.423 -0.6168  0.0857  0.2904
  165MOL    C3333161   8.193   3.113   6.273  0.3381 -0.2130  0.6733
  165MOL   Cl3433162   8.091   3.228   6.192  0.0490  0.1103 -0.0644
  165MOL    C3533163   8.247   3.004   6.213  0.2902  0.3336  0.2690
  165MOL    C3633164   8.243   2.965   6.066 -0.3797  0.1686 -0.8010
  165MOL    H3733165   8.257   3.228   6.439 -0.4070 -0.4943  3.0901
  165MOL    H3833166   8.260   3.056   6.465  2.6642  3.0635  1.5835
  165MOL    H3933167   8.304   2.936   6.274 -1.5092  1.9287  3.8662
  165MOL    H4033168   8.194   3.041   6.005  0.4210  2.8855  1.8255
  165MOL    H4133169   8.347   2.971   6.037 -0.5408  2.4161 -0.9611
  165MOL    C4233170   8.189   2.823   6.036  0.4970  0.0233 -0.3162
  165MOL    C4333171   8.229   2.765   5.905 -0.2073  0.5118 -0.0498
  165MOL   Cl4433172   8.362   2.654   5.922  0.1273  0.0229  0.0569
  165MOL    C4533173   8.155   2.769   5.790  0.7341  0.5125  0.0847
  165MOL    C4633174   8.033   2.862   5.777 -0.1143  0.1734  0.1148
  165MOL    H4733175   8.224   2.753   6.113  0.1744 -0.5180 -0.6626
  165MOL    H4833176   8.081   2.813   6.047  0.6261 -0.1544  0.8681
  165MOL    H4933177   8.186   2.718   5.700  1.2497 -0.9414  1.0563
  165MOL    H5033178   7.943   2.808   5.748 -0.2349  1.0618 -1.2345
  165MOL    H5133179   7.997   2.901   5.872 -0.6289 -0.2612  0.1038
  165MOL    C5233180   8.059   2.988   5.701  0.1791 -0.5620 -0.3213
  165MOL    C5333181   7.945   3.086   5.698  0.1355 -0.5197 -0.0258
  165MOL   Cl5433182   7.820   3.037   5.587  0.6501 -0.1645  0.4115
  165MOL    C5533183   7.932   3.197   5.772  0.0628  0.1497 -0.0265
  165MOL    C5633184   7.826   3.304   5.771  0.2327  0.2715 -0.1012
  165MOL    H5733185   8.150   3.031   5.744 -0.5035  0.7497 -0.1407
  165MOL    H5833186   8.078   2.949   5.601 -0.2976 -2.7934  0.4420
  165MOL    H5933187   8.005   3.216   5.849  1.0885  2.3347 -1.4928
  165MOL    H6033188   7.863   3.397   5.726 -3.4271 -0.0427 -4.1253
  165MOL    H6133189   7.738   3.289   5.709  0.1991  1.9682 -0.4848
  165MOL    C6233190   7.779   3.344   5.911  0.0651 -0.7013  0.2257
  165MOL    C6333191   7.680   3.462   5.926 -0.1669 -0.0262 -0.6033
  165MOL   Cl6433192   7.526   3.412   5.982 -0.4952  0.2714  0.1317
  165MOL    C6533193   7.716   3.590   5.912 -0.5387  0.3866  0.2174
  165MOL    C6633194   7.617   3.708   5.942 -0.1729  0.5367 -0.6423
  165MOL    H6733195   7.737   3.253   5.954 -0.0644 -1.4863 -1.5284
  165MOL    H6833196   7.862   3.369   5.977  1.4571 -0.5170 -1.5695
  165MOL    H6933197   7.818   3.609   5.883  0.0377  1.2352  2.6937
  165MOL    H7033198   7.658   3.770   6.022  1.7703  0.7029 -1.7407
  165MOL    H7133199   7.522   3.673   5.982  1.7277 -1.2231  2.5661
  165MOL    C7233200   7.624   3.784   5.807  1.0777 -0.3218 -0.0903
  165MOL    C7333201   7.517   3.885   5.798 -0.0482  0.0347  0.6221
  165MOL   Cl7433202   7.437   3.869   5.641  0.1643 -0.3098  0.3513
  165MOL    C7533203   7.499   3.986   5.883 -0.0958 -0.2623  0.3005
  165MOL    C7633204   7.381   4.082   5.872  0.5276 -0.3150 -0.8503
  165MOL    H7733205   7.613   3.707   5.730 -1.5204 -0.5240  0.4599
  165MOL    H7833206   7.716   3.839   5.790  0.6838  1.5858  3.5804
  165MOL    H7933207   7.559   3.995   5.972 -1.9448  0.1896  1.5279
  165MOL    H8033208   7.345   4.088   5.975  0.2969  1.5534 -1.0265
  165MOL    H8133209   7.296   4.038   5.819 -1.8933  1.1599  1.6448
  165MOL    C8233210   7.413   4.225   5.821 -0.3859  0.2085  0.7138
  165MOL    C8333211   7.497   4.300   5.919 -0.6571 -0.4791 -0.5300
  165MOL   Cl8433212   7.643   4.352   5.853  0.4013 -0.2897 -0.2948
  165MOL    C8533213   7.463   4.349   6.044  0.2966  0.7028 -0.7132
  165MOL    C8633214   7.546   4.443   6.130 -0.1950 -0.6158  0.6316
  165MOL    H8733215   7.329   4.285   5.785  0.7710 -0.0419 -2.5653
  165MOL    H8833216   7.474   4.213   5.732  0.7681 -2.3622  1.7902
  165MOL    H8933217   7.365   4.323   6.080  0.9235 -0.5798  0.0944
  165MOL    H9033218   7.647   4.457   6.092  0.3822  0.5981  2.5724
  165MOL    H9133219   7.502   4.542   6.142 -1.7039 -1.0008 -1.4302
  165MOL    C9233220   7.538   4.397   6.277  0.5216  1.0279 -0.5743
  165MOL    C9333221   7.400   4.368   6.332  0.3314  0.4045 -0.6372
  165MOL   Cl9433222   7.349   4.206   6.316  0.4930 -0.1906  0.2073
  165MOL    C9533223   7.317   4.465   6.381  0.1075 -0.0816 -0.4327
  165MOL    C9633224   7.340   4.614   6.403  0.0069 -0.3102  0.6156
  165MOL    H9733225   7.595   4.477   6.322 -1.4133  2.6246 -0.8846
  165MOL    H9833226   7.595   4.306   6.292 -1.6149 -0.3400 -0.4307
  165MOL    H9933227   7.216   4.434   6.402  0.5150 -1.3717 -0.3194
  165MOL   H10033228   7.425   4.640   6.340 -1.0993  1.7782 -0.0623
  165MOL   H10133229   7.250   4.666   6.369  0.2674 -0.6408 -0.5846
  165MOL   C10233230   7.371   4.657   6.544 -0.0419  0.6621 -0.7141
  165MOL   C10333231   7.439   4.791   6.545 -0.3482  0.2688  0.8472
  165MOL  Cl10433232   7.334   4.917   6.603 -0.1186 -0.3476  0.2610
  165MOL   C10533233   7.560   4.821   6.489 -0.2603  1.0005 -0.2386
  165MOL   C10633234   7.624   4.956   6.505 -1.1392 -0.2140  0.2526
  165MOL   H10733235   7.287   4.646   6.614 -0.1846 -3.0847 -1.3422
  165MOL   H10833236   7.447   4.592   6.587 -1.9940 -0.5462  1.0347
  165MOL   H10933237   7.617   4.748   6.433  0.3001  0.9083  0.4612
  165MOL   H11033238   7.627   5.006   6.408  1.1200  1.8801  1.3710
  165MOL   H11133239   7.565   5.029   6.559  1.1172  0.7822  1.4360
  165MOL   C11233240   7.767   4.966   6.556 -0.0180 -0.1302  0.6039
  165MOL   C11333241   7.821   5.107   6.552  0.4453 -0.3477 -0.3818
  165MOL  Cl11433242   7.864   5.155   6.711 -0.1551  0.2080 -0.1101
  165MOL   C11533243   7.851   5.183   6.442 -0.1677 -0.4851  0.0373
  165MOL   C11633244   7.826   5.141   6.298 -0.3090 -0.6058 -0.2640
  165MOL   H11733245   7.782   4.922   6.655 -3.8928  0.8699  1.7165
  165MOL   H11833246   7.833   4.917   6.484 -0.0618 -2.2093  1.9581
  165MOL   H11933247   7.900   5.278   6.453  0.7698 -1.1661  1.9755
  165MOL   H12033248   7.740   5.194   6.257  0.3836 -0.4435 -1.5354
  165MOL   H12133249   7.811   5.033   6.297 -0.0655 -0.6557  0.8312
  165MOL   C12233250   7.949   5.173   6.218 -0.6213  0.4638  0.1914
  165MOL   C12333251   7.930   5.119   6.076 -0.3740  0.3053  0.3728
  165MOL  Cl12433252   7.899   4.952   6.070 -0.0397  0.0744  0.1687
  165MOL   C12533253   7.906   5.188   5.963 -0.6792 -0.1394 -0.5479
  165MOL   C12633254   7.901   5.339   5.950  0.6935  1.1599  0.0071
  165MOL   H12733255   7.991   5.273   6.220  0.4929  0.0457 -1.4308
  165MOL   H12833256   8.030   5.117   6.264  0.3004  0.5683 -1.2873
  165MOL   H12933257   7.890   5.138   5.869 -2.5179 -1.1543  0.2780
  165MOL   H13033258   7.942   5.395   6.033 -0.4735 -0.2491  1.5600
  165MOL   H13133259   7.978   5.356   5.874 -1.0457  1.4336 -1.7447
  165MOL   C13233260   7.765   5.385   5.902  0.1501 -0.4877  0.0194
  165MOL   C13333261   7.735   5.532   5.933 -0.5398 -0.2292 -0.2674
  165MOL  Cl13433262   7.836   5.646   5.847 -0.1112 -0.0121 -0.2952
  165MOL   C13533263   7.648   5.584   6.014 -0.2727  0.7436  0.1943
  165MOL   C13633264   7.562   5.512   6.112 -0.1270 -0.1695 -0.6626
  165MOL   H13733265   7.767   5.364   5.796  0.4801 -0.4093  0.0097
  165MOL   H13833266   7.684   5.323   5.940  0.0794 -1.4073 -1.5983
  165MOL   H13933267   7.637   5.691   6.017  2.4180  1.0460  0.5813
  165MOL   H14033268   7.602   5.412   6.127  1.1904  0.3386 -0.7344
  165MOL   H14133269   7.592   5.561   6.205  1.3910 -0.3774 -1.0300
  165MOL   C14233270   7.422   5.509   6.062 -0.3081  0.4442  0.0408
  165MOL   C14333271   7.332   5.418   6.144  0.5844 -0.4273 -0.0229
  165MOL  Cl14433272   7.252   5.311   6.034  0.1447  0.0982 -0.2216
  165MOL   C14533273   7.307   5.420   6.276  0.1235 -0.3327  0.6943
  165MOL   C14633274   7.207   5.324   6.348  0.7429 -0.6163 -0.2241
  165MOL   H14733275   7.420   5.466   5.962 -0.5636  2.3573 -0.7867
  165MOL   H14833276   7.374   5.607   6.062 -3.1875 -0.8561  2.9085
  165MOL   H14933277   7.370   5.488   6.332  1.2921 -2.6826  2.2875
  165MOL   H15033278   7.160   5.382   6.427 -0.7930  0.5660 -1.9490
  165MOL   H15133279   7.131   5.284   6.281  0.4908  2.0108 -1.6032
  165MOL   C15233280   7.284   5.201   6.412 -0.0631 -0.4781  0.3035
  165MOL   C15333281   7.319   5.093   6.302 -0.4052  0.8322  0.2655
  165MOL  Cl15433282   7.200   4.973   6.300 -0.1639 -0.3421  0.0555
  165MOL   C15533283   7.426   5.094   6.222 -0.4603  0.1670  0.1890
  165MOL   C15633284   7.454   4.990   6.119 -0.0977 -0.0556 -0.0216
  165MOL   H15733285   7.375   5.230   6.465  0.5819  1.5572 -1.8025
  165MOL   H15833286   7.217   5.142   6.474  1.0376 -0.3768  1.6220
  165MOL   H15933287   7.507   5.165   6.228  1.0617 -1.3121 -1.9420
  165MOL   H16033288   7.360   4.952   6.079 -0.9839  1.1321  0.8935
  165MOL   H16133289   7.490   4.901   6.171 -0.7215 -0.3874 -0.1542
  165MOL   C16233290   7.544   5.033   6.003 -0.2847  0.1623 -0.0655
  165MOL   C16333291   7.572   4.935   5.897  0.4382  0.6228  0.0806
  165MOL  Cl16433292   7.581   4.774   5.956 -0.5405  0.1248 -0.1675
  165MOL   C16533293   7.580   4.959   5.762 -0.5457 -0.3056  0.7731
  165MOL   C16633294   7.596   4.852   5.657  0.1141  0.3179 -0.3838
  165MOL   H16733295   7.518   5.130   5.961  1.6208  0.4447 -0.6726
  165MOL   H16833296   7.639   5.062   6.048  0.1210  3.9553 -3.0713
  165MOL   H16933297   7.566   5.059   5.724 -1.0179 -0.3014  0.9624
  165MOL   H17033298   7.681   4.870   5.591 -1.1739  3.5587 -1.2579
  165MOL   H17133299   7.613   4.757   5.709 -1.3124 -0.4543 -1.2791
  165MOL   C17233300   7.463   4.821   5.581 -0.7177 -0.1173 -0.0165
  165MOL   C17333301   7.471   4.691   5.504 -0.2435  0.8538 -0.1039
  165MOL  Cl17433302   7.570   4.716   5.367 -0.3206  0.1757 -0.5693
  165MOL   C17533303   7.406   4.579   5.529 -0.3900  0.7602 -0.2305
  165MOL   C17633304   7.406   4.461   5.443  0.0992  0.1200 -0.5226
  165MOL   H17733305   7.419   4.896   5.515 -1.9039 -0.7357  0.0561
  165MOL   H17833306   7.382   4.817   5.655  0.0533 -4.1002  0.7034
  165MOL   H17933307   7.351   4.568   5.621  4.0425  1.6063  2.6191
  165MOL   H18033308   7.490   4.395   5.465  1.3375  2.4442  1.9644
  165MOL   H18133309   7.421   4.477   5.336  0.3998  2.3688 -0.1596
  165MOL   C18233310   7.278   4.374   5.468  0.7792  0.1359  0.1606
  165MOL   C18333311   7.277   4.249   5.381  0.5189  0.1726  0.3747
  165MOL  Cl18433312   7.211   4.282   5.229  0.2898  0.1387  0.3480
  165MOL   C18533313   7.313   4.130   5.425  0.0236  0.1552  0.7930
  165MOL   C18633314   7.318   4.011   5.328  0.1197  0.1164  0.0782
  165MOL   H18733315   7.268   4.357   5.575  1.8746 -3.3994 -0.2219
  165MOL   H18833316   7.193   4.432   5.433  0.3341 -0.1903  0.6977
  165MOL   H18933317   7.343   4.116   5.528 -1.0846 -1.8462  0.8653
  165MOL   H19033318   7.328   4.056   5.229 -0.6116  0.9404  0.3657
  165MOL   H19133319   7.408   3.958   5.359 -1.2513 -0.6973  2.9008
  165MOL   C19233320   7.191   3.923   5.341 -0.0531 -0.3564 -0.6815
  165MOL   C19333321   7.187   3.816   5.235  0.6200  0.6811  0.3329
  165MOL  Cl19433322   7.167   3.874   5.072 -0.2714 -0.2309  0.1743
  165MOL   C19533323   7.212   3.689   5.262  0.2829 -0.3478  0.1575
  165MOL   C19633324   7.252   3.637   5.396 -0.4235 -0.1723 -0.3138
  165MOL   H19733325   7.108   3.992   5.326 -0.6621 -0.6828  1.0973
  165MOL   H19833326   7.169   3.883   5.440  1.2350  0.6479  0.0257
  165MOL   H19933327   7.203   3.613   5.185 -1.4365  0.5542 -0.5811
  165MOL   H20033328   7.330   3.561   5.399 -0.0138  0.2700  0.3173
  165MOL   H20133329   7.166   3.595   5.449 -0.8630  1.1641  0.0620
  165MOL   H20233330   7.292   3.715   5.461 -1.3158  0.9154 -1.0533
  166MOL     C133331   4.808   5.436   3.277  0.1328 -0.0979 -0.0066
  166MOL     C233332   4.731   5.489   3.156 -0.2994 -0.0968  0.2814
  166MOL    Cl333333   4.819   5.613   3.071 -0.0683  0.2697 -0.1572
  166MOL     C433334   4.622   5.439   3.100  0.3329  0.7467  0.2128
  166MOL     C533335   4.545   5.317   3.158  0.2283  0.1400  0.3581
  166MOL     H633336   4.743   5.449   3.364 -0.5597 -0.6799 -0.4358
  166MOL     H733337   4.899   5.496   3.289 -0.0324  0.1614 -0.0335
  166MOL     H833338   4.580   5.479   3.009  1.8681  0.6174 -0.5693
  166MOL     H933339   4.586   5.275   3.250  1.4594  0.8091  0.1201
  166MOL    H1033340   4.451   5.362   3.190  0.7667  1.1983  0.4485
  166MOL    H1133341   4.835   5.334   3.251 -1.4687 -1.0286  1.8949
  166MOL    C1233342   4.526   5.211   3.051 -0.5246 -0.4793  0.2545
  166MOL    C1333343   4.469   5.085   3.100 -0.3133 -0.6729 -0.5065
  166MOL   Cl1433344   4.306   5.110   3.131  0.0290  0.2293 -0.4832
  166MOL    C1533345   4.539   4.979   3.140 -0.0538  0.0950 -0.1250
  166MOL    C1633346   4.688   4.955   3.125 -0.2081  0.0461 -0.1439
  166MOL    H1733347   4.477   5.256   2.964  3.3199 -1.3161 -2.4630
  166MOL    H1833348   4.623   5.195   3.005 -0.9825  1.5263 -1.4750
  166MOL    H1933349   4.477   4.901   3.181 -0.0571 -1.0701 -2.2910
  166MOL    H2033350   4.746   5.048   3.128  0.2410 -0.2267 -0.3916
  166MOL    H2133351   4.711   4.909   3.221  0.7821 -0.1823 -0.4862
  166MOL    C2233352   4.726   4.863   3.010  0.3281 -0.2559  0.4579
  166MOL    C2333353   4.845   4.779   3.045  0.5670  0.6997  0.2445
  166MOL   Cl2433354   4.798   4.615   3.058  0.2507 -0.4844  0.1823
  166MOL    C2533355   4.971   4.817   3.060 -0.1573  0.7311  0.3989
  166MOL    C2633356   5.086   4.725   3.110 -0.2089  0.7539  0.6697
  166MOL    H2733357   4.643   4.799   2.979  0.0884 -0.7347  2.0314
  166MOL    H2833358   4.743   4.919   2.919 -1.3279 -0.0624  0.2415
  166MOL    H2933359   4.996   4.921   3.042 -0.4510  0.7296 -0.0187
  166MOL    H3033360   5.115   4.752   3.211  0.9478  0.5701  0.3948
  166MOL    H3133361   5.049   4.623   3.118  0.3983  0.5146  0.4158
  166MOL    C3233362   5.199   4.716   3.010 -0.0739  0.2309 -0.5580
  166MOL    C3333363   5.335   4.655   3.054 -0.2762  0.5047 -0.6465
  166MOL   Cl3433364   5.407   4.763   3.174 -0.1406  0.4946  0.1355
  166MOL    C3533365   5.389   4.539   3.016  0.1436 -0.2789  0.0661
  166MOL    C3633366   5.517   4.473   3.059 -0.1961 -0.6218  0.0548
  166MOL    H3733367   5.161   4.680   2.914  0.9469 -0.6962 -0.6293
  166MOL    H3833368   5.229   4.818   2.983  0.7609  0.1094 -0.0958
  166MOL    H3933369   5.337   4.496   2.932  0.9459 -0.0299 -0.5695
  166MOL    H4033370   5.559   4.536   3.138  0.0808  1.8757 -1.9956
  166MOL    H4133371   5.484   4.386   3.116 -0.8236  0.4372  1.3471
  166MOL    C4233372   5.618   4.453   2.950 -0.1976  0.2256  0.0425
  166MOL    C4333373   5.674   4.585   2.897 -0.5641  0.3643 -0.0368
  166MOL   Cl4433374   5.745   4.681   3.024  0.2524 -0.5861 -0.3508
  166MOL    C4533375   5.679   4.626   2.770 -0.2132 -0.4071 -0.5130
  166MOL    C4633376   5.634   4.537   2.647  0.5439 -0.4892  0.1985
  166MOL    H4733377   5.701   4.393   2.987  1.4447  1.1521 -2.0483
  166MOL    H4833378   5.573   4.385   2.878  2.0789 -1.6418  0.3230
  166MOL    H4933379   5.730   4.719   2.749 -2.2413  1.2285  1.5437
  166MOL    H5033380   5.713   4.530   2.573 -0.0668  1.7632 -0.7018
  166MOL    H5133381   5.602   4.434   2.667  0.7988 -0.4567  0.7903
  166MOL    C5233382   5.515   4.591   2.578  0.8606 -0.5960 -0.0175
  166MOL    C5333383   5.499   4.541   2.430  0.1638 -0.4241 -0.8209
  166MOL   Cl5433384   5.400   4.656   2.343 -0.1083  0.1431 -0.1505
  166MOL    C5533385   5.543   4.422   2.387 -0.2763 -0.0774  0.2014
  166MOL    C5633386   5.528   4.363   2.256 -0.1734  0.3214  0.3061
  166MOL    H5733387   5.427   4.552   2.630 -0.4870  1.2112 -0.9208
  166MOL    H5833388   5.512   4.699   2.590  0.6206 -0.7516  1.4858
  166MOL    H5933389   5.601   4.356   2.450  2.4424  2.8070  0.8472
  166MOL    H6033390   5.455   4.283   2.267  1.4057 -1.5252 -2.2525
  166MOL    H6133391   5.486   4.443   2.194  3.3270  1.7883 -0.2731
  166MOL    C6233392   5.661   4.315   2.192 -0.1526  0.4126 -0.6716
  166MOL    C6333393   5.659   4.253   2.056  0.2602 -0.6233 -0.0631
  166MOL   Cl6433394   5.823   4.248   2.003 -0.0584 -0.3305  0.6400
  166MOL    C6533395   5.552   4.222   1.983 -0.7620  0.1237 -0.7820
  166MOL    C6633396   5.566   4.179   1.831  0.3371  0.4522 -0.2830
  166MOL    H6733397   5.736   4.393   2.186  0.0261  0.2843 -0.0519
  166MOL    H6833398   5.710   4.240   2.254 -1.6350 -0.5544 -0.6420
  166MOL    H6933399   5.452   4.222   2.023 -0.8545  0.6258 -1.0141
  166MOL    H7033400   5.516   4.083   1.817 -0.3502  1.0448 -1.9066
  166MOL    H7133401   5.669   4.156   1.804  0.4882  1.0356 -0.2002
  166MOL    C7233402   5.505   4.286   1.740 -0.4138  0.7241 -0.7011
  166MOL    C7333403   5.526   4.246   1.593 -0.2867  0.0986  0.2964
  166MOL   Cl7433404   5.377   4.177   1.532 -0.0452 -0.7221 -0.0833
  166MOL    C7533405   5.636   4.260   1.518  0.5513  0.5840 -0.1785
  166MOL    C7633406   5.652   4.222   1.378  0.0598 -0.2756  0.3988
  166MOL    H7733407   5.556   4.378   1.767  1.4390 -0.1695 -1.0030
  166MOL    H7833408   5.398   4.289   1.759  0.0138 -0.6411  2.1899
  166MOL    H7933409   5.714   4.299   1.581  3.2357 -2.1962 -1.6590
  166MOL    H8033410   5.553   4.194   1.343 -0.2779  0.9657  0.3352
  166MOL    H8133411   5.714   4.132   1.379  0.1592 -0.2249 -1.1662
  166MOL    C8233412   5.709   4.336   1.280  0.3213  0.1204  0.3044
  166MOL    C8333413   5.690   4.285   1.133 -0.3536  0.3481 -0.0671
  166MOL   Cl8433414   5.611   4.399   1.031 -0.0088  0.3610 -0.4249
  166MOL    C8533415   5.746   4.170   1.081  0.9129 -0.3959 -0.3269
  166MOL    C8633416   5.743   4.132   0.932 -0.2650  0.0161  0.1825
  166MOL    H8733417   5.815   4.327   1.301 -0.2413 -2.4258  2.3671
  166MOL    H8833418   5.669   4.436   1.293  1.3105  0.5216  0.2871
  166MOL    H8933419   5.792   4.104   1.153 -0.3513 -1.9110 -0.8650
  166MOL    H9033420   5.662   4.187   0.883 -0.0221  0.4681  0.2861
  166MOL    H9133421   5.834   4.163   0.881 -0.0426 -1.3313 -0.2502
  166MOL    C9233422   5.717   3.978   0.920 -0.3010 -0.1052  0.2991
  166MOL    C9333423   5.686   3.929   0.781 -0.4137 -0.2081  0.3172
  166MOL   Cl9433424   5.517   3.895   0.760  0.2308  0.3225  0.2975
  166MOL    C9533425   5.774   3.911   0.679  0.1387  0.2822  0.2977
  166MOL    C9633426   5.921   3.953   0.685 -0.0733 -0.4965 -0.6008
  166MOL    H9733427   5.630   3.953   0.981  1.3148 -1.9535  1.9165
  166MOL    H9833428   5.801   3.921   0.960  1.3137  1.8076 -0.3073
  166MOL    H9933429   5.733   3.872   0.587  0.9730  0.3681 -0.1144
  166MOL   H10033430   5.943   3.971   0.790 -0.5953  0.3199 -0.6294
  166MOL   H10133431   5.986   3.872   0.650  0.9920 -0.0567  0.3296
  166MOL   C10233432   5.951   4.076   0.598  0.3295 -0.1883  0.4841
  166MOL   C10333433   6.084   4.147   0.610  0.2461 -0.1641  0.4052
  166MOL  Cl10433434   6.061   4.317   0.655  0.0718  0.4933 -0.5139
  166MOL   C10533435   6.204   4.092   0.619 -0.8582  0.4287  0.7441
  166MOL   C10633436   6.333   4.155   0.666  0.0659 -0.0111  0.0678
  166MOL   H10733437   5.934   4.058   0.492  0.3710  2.6370 -0.0508
  166MOL   H10833438   5.871   4.146   0.623  0.5517  0.0721  0.4658
  166MOL   H10933439   6.211   3.988   0.591 -2.8285  0.7324 -1.0088
  166MOL   H11033440   6.300   4.250   0.708 -0.0053  0.2743 -0.6263
  166MOL   H11133441   6.380   4.096   0.745  0.1126 -1.7766 -1.2371
  166MOL   C11233442   6.431   4.189   0.544 -0.4832 -0.0123 -0.2237
  166MOL   C11333443   6.571   4.214   0.596  0.4773  0.5480  0.5889
  166MOL  Cl11433444   6.662   4.071   0.564 -0.1660 -0.3448  0.2031
  166MOL   C11533445   6.612   4.317   0.667  0.5005 -0.3336 -0.3154
  166MOL   C11633446   6.526   4.438   0.692  0.0947 -0.7297 -0.4572
  166MOL   H11733447   6.428   4.108   0.472 -0.8144  1.1342 -1.5240
  166MOL   H11833448   6.393   4.271   0.483  1.7158  0.5957 -0.8300
  166MOL   H11933449   6.713   4.326   0.702  0.5774 -1.2863 -0.2651
  166MOL   H12033450   6.550   4.472   0.793 -0.6575 -0.5988 -0.3178
  166MOL   H12133451   6.421   4.411   0.697 -0.3070  0.6427 -1.2067
  166MOL   C12233452   6.546   4.550   0.584 -0.1454 -0.3788  0.0098
  166MOL   C12333453   6.505   4.685   0.629 -0.0022  0.1502  0.2738
  166MOL  Cl12433454   6.642   4.790   0.642 -0.0378 -0.0953  0.2873
  166MOL   C12533455   6.381   4.740   0.632 -0.0927  0.3475 -0.2015
  166MOL   C12633456   6.249   4.672   0.610  0.1833  0.2133  0.0571
  166MOL   H12733457   6.644   4.553   0.537  0.4549 -0.6387  1.2179
  166MOL   H12833458   6.478   4.518   0.505 -1.4630  1.1286  0.5179
  166MOL   H12933459   6.366   4.846   0.650 -0.2214  0.4139 -0.6827
  166MOL   H13033460   6.264   4.573   0.566  0.9797 -0.4198  1.7264
  166MOL   H13133461   6.204   4.657   0.708  1.4331 -0.8033  0.4852
  166MOL   C13233462   6.156   4.729   0.506  0.8414 -0.0846  0.9842
  166MOL   C13333463   6.017   4.673   0.498 -0.8635  0.1162 -0.8706
  166MOL  Cl13433464   5.904   4.757   0.597  0.2307 -0.5087 -0.0074
  166MOL   C13533465   5.974   4.572   0.411 -0.2579 -0.8442 -0.4072
  166MOL   C13633466   6.068   4.495   0.321  0.2582  0.1785 -0.1200
  166MOL   H13733467   6.165   4.838   0.508 -0.5666  0.0456  0.5160
  166MOL   H13833468   6.207   4.720   0.410  1.2728  0.4358  1.1640
  166MOL   H13933469   5.870   4.545   0.402 -0.0674 -1.8240  0.2945
  166MOL   H14033470   6.173   4.524   0.318  0.6674 -1.4576 -2.4753
  166MOL   H14133471   6.076   4.393   0.359  2.5588  0.3867  0.0186
  166MOL   C14233472   6.016   4.497   0.176  0.1940  0.0028 -0.7856
  166MOL   C14333473   6.125   4.482   0.067  0.7694  0.3888 -0.4187
  166MOL  Cl14433474   6.128   4.616   8.387 -0.3045 -0.3284 -0.3823
  166MOL   C14533475   6.196   4.372   0.059 -0.1441 -0.4774  0.5044
  166MOL   C14633476   6.299   4.354   8.367  0.1539  0.4581  0.7073
  166MOL   H14733477   5.954   4.585   0.162 -1.6597 -0.9588  1.0993
  166MOL   H14833478   5.961   4.409   0.143 -0.2196 -0.2073  0.4193
  166MOL   H14933479   6.183   4.291   0.128 -0.3980 -0.3333  0.6281
  166MOL   H15033480   6.239   4.341   8.277  0.5412 -0.2316  0.5473
  166MOL   H15133481   6.351   4.449   8.354  0.7166  0.3018  1.7498
  166MOL   C15233482   6.399   4.239   8.394  0.3116  0.1284  0.1937
  166MOL   C15333483   6.492   4.259   0.094 -0.3804 -0.4126 -0.2011
  166MOL  Cl15433484   6.503   4.116   0.179  0.4088  0.0433 -0.0530
  166MOL   C15533485   6.554   4.367   0.137  0.2932 -0.0779 -0.3408
  166MOL   C15633486   6.639   4.381   0.262 -0.8015 -0.1086  0.3910
  166MOL   H15733487   6.346   4.144   8.398  0.2965  0.1408  0.2787
  166MOL   H15833488   6.464   4.220   8.308 -0.4294 -0.5558 -0.2299
  166MOL   H15933489   6.537   4.454   0.075 -2.7354  0.1042  0.6794
  166MOL   H16033490   6.636   4.296   0.329 -0.1390 -0.8920 -0.5551
  166MOL   H16133491   6.602   4.471   0.311 -1.6768 -1.0728  1.5076
  166MOL   C16233492   6.787   4.411   0.220 -0.0149  0.2141 -0.4760
  166MOL   C16333493   6.867   4.480   0.331  0.2100 -0.2476 -0.0198
  166MOL  Cl16433494   6.914   4.638   0.298 -0.3502 -0.0178 -0.2512
  166MOL   C16533495   6.894   4.428   0.451 -0.1358 -0.5623  0.7122
  166MOL   C16633496   6.966   4.489   0.565 -0.2831  0.3419  0.2794
  166MOL   H16733497   6.839   4.324   0.181 -0.9847  0.1393 -1.6492
  166MOL   H16833498   6.787   4.480   0.135  1.6804 -0.3658 -0.9538
  166MOL   H16933499   6.857   4.327   0.465  0.0217 -0.8268 -0.6848
  166MOL   H17033500   6.977   4.594   0.541  0.4461  0.5714  1.5821
  166MOL   H17133501   6.916   4.479   0.661 -0.3045  0.0794  0.2423
  166MOL   C17233502   7.111   4.435   0.578 -0.1901 -0.4044 -0.2886
  166MOL   C17333503   7.203   4.498   0.677 -0.4581 -0.4376  0.8334
  166MOL  Cl17433504   7.366   4.508   0.621  0.3263  0.3903 -0.0703
  166MOL   C17533505   7.164   4.535   0.801 -0.3739 -0.8537 -0.3309
  166MOL   C17633506   7.250   4.589   0.917  0.6852  0.0405  0.1241
  166MOL   H17733507   7.159   4.436   0.480 -1.1935 -2.5292 -0.8199
  166MOL   H17833508   7.109   4.331   0.611 -1.2121 -0.2283  0.2253
  166MOL   H17933509   7.063   4.512   0.829 -0.1892  1.8264  2.9765
  166MOL   H18033510   7.357   4.587   0.895  0.9214  2.0378  0.9724
  166MOL   H18133511   7.232   4.532   1.008 -1.0809  0.2819 -0.0730
  166MOL   C18233512   7.227   4.736   0.952 -0.7974 -0.0316 -0.5317
  166MOL   C18333513   7.231   4.833   0.832  0.4015 -0.4707  0.0148
  166MOL  Cl18433514   7.396   4.883   0.807  0.2556 -0.0817  0.1615
  166MOL   C18533515   7.125   4.869   0.755  0.3156 -0.1718 -0.8099
  166MOL   C18633516   7.118   4.953   0.627  0.2445  0.7482 -0.1288
  166MOL   H18733517   7.130   4.748   1.000 -0.2337  0.1506  0.5826
  166MOL   H18833518   7.295   4.777   1.028 -1.2646  1.6108 -0.9795
  166MOL   H18933519   7.024   4.842   0.782  0.3872 -0.8930 -1.2327
  166MOL   H19033520   7.036   5.023   0.640 -1.3244 -1.2427  0.9623
  166MOL   H19133521   7.207   5.016   0.622  1.0958 -0.3895  0.3978
  166MOL   C19233522   7.065   4.875   0.507  0.1469  0.2982  0.1160
  166MOL   C19333523   7.085   4.961   0.382 -0.1493 -0.6257  0.7727
  166MOL  Cl19433524   6.960   5.082   0.371  0.0106  0.0845  0.1978
  166MOL   C19533525   7.181   4.941   0.286 -0.0925  0.6916  0.4578
  166MOL   C19633526   7.293   4.844   0.289 -0.5542  1.0024 -0.7070
  166MOL   H19733527   6.962   4.839   0.504 -0.0599  0.7765  1.3510
  166MOL   H19833528   7.129   4.787   0.506  1.7588  1.4478 -0.6477
  166MOL   H19933529   7.172   5.011   0.205 -0.2463  0.3590  0.1889
  166MOL   H20033530   7.246   4.755   0.246 -0.5498  0.7860 -0.2648
  166MOL   H20133531   7.332   4.835   0.390  0.5998  0.6771 -1.1810
  166MOL   H20233532   7.376   4.870   0.224 -0.6822  1.6632 -0.6153
  167MOL     C133533   7.854   5.081   5.187  0.4120 -0.0534  0.1133
  167MOL     C233534   7.892   5.188   5.083  0.0462  0.1246 -0.5813
  167MOL    Cl333535   7.816   5.337   5.103 -0.1129 -0.2065 -0.0443
  167MOL     C433536   7.968   5.172   4.976 -0.2879  0.0022 -0.5668
  167MOL     C533537   8.027   5.044   4.932 -0.2016 -0.2636 -0.0058
  167MOL     H633538   7.798   5.119   5.273  1.8717  1.6357  0.3293
  167MOL     H733539   7.944   5.038   5.230  1.2628  1.3119 -0.2774
  167MOL     H833540   7.987   5.261   4.919  0.8663  0.2334  0.1744
  167MOL     H933541   8.135   5.042   4.949 -0.2361 -2.9042  0.0880
  167MOL    H1033542   7.979   4.960   4.982  0.1043 -1.1647 -1.2235
  167MOL    H1133543   7.787   5.006   5.145 -0.4985  1.6486 -1.5724
  167MOL    C1233544   7.996   5.019   4.779 -0.4389 -0.3434 -0.2569
  167MOL    C1333545   8.082   4.909   4.719  0.0555 -0.5829  0.3131
  167MOL   Cl1433546   8.222   4.976   4.646 -0.1983 -0.0238 -0.0968
  167MOL    C1533547   8.054   4.775   4.702 -0.0480  0.4607 -0.5628
  167MOL    C1633548   7.928   4.693   4.743  0.5731 -0.5749 -0.1471
  167MOL    H1733549   7.889   5.015   4.758 -0.8314  1.6416  1.2907
  167MOL    H1833550   8.021   5.112   4.727  1.6388 -1.6771 -1.7206
  167MOL    H1933551   8.133   4.723   4.651  0.5183  3.3084 -2.7004
  167MOL    H2033552   7.857   4.764   4.785 -0.4893 -1.5156 -0.3330
  167MOL    H2133553   7.886   4.653   4.651  0.6536  1.4013 -1.0635
  167MOL    C2233554   7.958   4.589   4.853 -0.3415  0.4174  0.7624
  167MOL    C2333555   7.837   4.499   4.882 -0.3259 -0.2061  0.7014
  167MOL   Cl2433556   7.805   4.382   4.762  0.3555 -0.3118 -0.5173
  167MOL    C2533557   7.752   4.508   4.982  0.0604 -0.5034  0.7248
  167MOL    C2633558   7.632   4.420   5.015  0.1677  0.0324  1.0170
  167MOL    H2733559   8.035   4.518   4.822  1.2256  0.9218  3.3717
  167MOL    H2833560   8.003   4.623   4.946 -1.6429 -0.2643  1.6502
  167MOL    H2933561   7.763   4.591   5.049  1.9191  2.0007 -2.5072
  167MOL    H3033562   7.545   4.481   5.035 -0.9021 -1.2478  0.3363
  167MOL    H3133563   7.607   4.362   4.926  1.9080  1.7274 -0.6174
  167MOL    C3233564   7.647   4.334   5.136 -0.2441  0.3270 -0.0018
  167MOL    C3333565   7.734   4.208   5.117  0.1732 -0.0398 -0.8883
  167MOL   Cl3433566   7.633   4.065   5.134  0.0142 -0.1778  0.1450
  167MOL    C3533567   7.867   4.196   5.104 -0.1175  0.3868  0.3742
  167MOL    C3633568   7.945   4.069   5.085  0.3445  0.3024 -0.2788
  167MOL    H3733569   7.671   4.390   5.226 -0.0367 -0.8793  0.6932
  167MOL    H3833570   7.551   4.297   5.170  0.2548 -1.1997 -0.2171
  167MOL    H3933571   7.922   4.289   5.110  1.8862 -0.6361 -1.4458
  167MOL    H4033572   7.985   4.049   5.185  1.3243  0.4451 -0.6390
  167MOL    H4133573   7.878   3.985   5.064 -0.7379  1.5630 -1.9749
  167MOL    C4233574   8.056   4.076   4.986  0.2489 -0.1510  0.5398
  167MOL    C4333575   8.147   3.951   4.989 -0.3086  0.4253 -0.1226
  167MOL   Cl4433576   8.093   3.846   4.871 -0.0598  0.1017  0.1863
  167MOL    C4533577   8.252   3.924   5.073 -0.3272 -0.3010 -0.2484
  167MOL    C4633578   8.299   4.021   5.178  0.0689  0.5999 -0.0455
  167MOL    H4733579   8.014   4.076   4.885  0.3641  0.8783  0.4836
  167MOL    H4833580   8.126   4.159   4.996 -0.1584  0.4358 -1.3138
  167MOL    H4933581   8.311   3.834   5.072  0.2398  0.0706 -1.1679
  167MOL    H5033582   8.248   4.117   5.170  0.9776  1.0507 -0.4934
  167MOL    H5133583   8.257   3.978   5.270 -0.6393  0.6486 -0.3408
  167MOL    C5233584   0.028   4.039   5.178 -0.9421  0.1413 -0.4179
  167MOL    C5333585   0.073   4.101   5.314  0.2230  0.1037  0.5336
  167MOL   Cl5433586   0.093   4.266   5.292 -0.2414  0.0926 -0.0875
  167MOL    C5533587   0.099   4.026   5.421  0.1374 -0.4076  0.1043
  167MOL    C5633588   0.151   4.084   5.550 -0.3813  0.4454  0.6580
  167MOL    H5733589   0.079   3.942   5.171  0.2160  0.6275  1.0963
  167MOL    H5833590   0.056   4.102   5.094 -2.4530  1.8774  0.3565
  167MOL    H5933591   0.083   3.919   5.410  1.1477 -0.4690 -0.8678
  167MOL    H6033592   0.185   4.186   5.533 -4.4385  1.8930  0.9000
  167MOL    H6133593   0.071   4.071   5.622 -2.6551 -0.9930 -2.0269
  167MOL    C6233594   0.274   4.016   5.608  0.5484 -0.1980 -0.1988
  167MOL    C6333595   0.403   4.034   5.522 -0.2013 -0.2360 -0.7086
  167MOL   Cl6433596   0.537   3.941   5.585 -0.0366  0.0241  0.2220
  167MOL    C6533597   0.418   4.110   5.410 -0.4590 -0.1577 -0.3797
  167MOL    C6633598   0.549   4.132   5.335 -0.1763  0.1737 -0.4345
  167MOL    H6733599   0.302   4.062   5.703  0.4430 -2.0501  0.7579
  167MOL    H6833600   0.250   3.914   5.636 -0.2153 -0.2608 -1.0652
  167MOL    H6933601   0.341   4.169   5.365 -0.7072  0.1578  0.4534
  167MOL    H7033602   0.626   4.070   5.383 -1.7280 -0.0071  1.8836
  167MOL    H7133603   0.576   4.236   5.355 -0.3922  0.8167 -3.3091
  167MOL    C7233604   0.528   4.115   5.183 -0.1906 -0.6573  0.8728
  167MOL    C7333605   0.655   4.167   5.115 -0.6799 -0.1385  0.7080
  167MOL   Cl7433606   0.751   4.045   5.050  0.3175 -0.4131  0.2955
  167MOL    C7533607   0.684   4.297   5.097 -0.5844 -0.0530  0.6919
  167MOL    C7633608   0.809   4.348   5.029 -0.1656 -0.0340  0.0647
  167MOL    H7733609   0.447   4.187   5.170 -0.1657 -1.0116 -1.4492
  167MOL    H7833610   0.494   4.027   5.130 -1.5381  0.1435  0.3705
  167MOL    H7933611   0.612   4.367   5.137 -1.1915 -0.9295  1.1535
  167MOL    H8033612   0.806   4.304   4.929 -1.4166 -1.4873  0.7376
  167MOL    H8133613   0.897   4.319   5.087 -0.2059 -0.3546 -0.0359
  167MOL    C8233614   0.813   4.504   5.015  0.3353 -0.5975  0.0639
  167MOL    C8333615   0.899   4.546   4.902  0.1718  0.0942 -0.0096
  167MOL   Cl8433616   1.065   4.504   4.937  0.0852 -0.0210 -0.2088
  167MOL    C8533617   0.865   4.598   4.782 -0.3119  0.2497 -0.7262
  167MOL    C8633618   0.954   4.637   4.664 -0.6878  0.1120 -0.4851
  167MOL    H8733619   0.860   4.545   5.104 -0.1168  2.0312 -0.8569
  167MOL    H8833620   0.710   4.539   5.008  0.7058  0.7970  1.4729
  167MOL    H8933621   0.761   4.621   4.765 -0.6770 -0.1725  0.8938
  167MOL    H9033622   1.035   4.706   4.688 -0.6457  0.2869 -1.1274
  167MOL    H9133623   1.001   4.548   4.621 -1.5939  0.6312 -2.5856
  167MOL    C9233624   0.873   4.705   4.552  0.5165  0.5189 -0.3663
  167MOL    C9333625   0.792   4.602   4.466 -1.0207 -0.3887 -0.1287
  167MOL   Cl9433626   0.899   4.531   4.354  0.1677  0.0249  0.0757
  167MOL    C9533627   0.665   4.571   4.464  0.2266  0.8559  0.9908
  167MOL    C9633628   0.553   4.625   4.547 -0.1370  0.3211 -0.0833
  167MOL    H9733629   0.942   4.751   4.482 -0.2670  1.6295 -0.4109
  167MOL    H9833630   0.812   4.782   4.598  0.7114 -0.0262  0.8252
  167MOL    H9933631   0.636   4.499   4.389 -1.1111  3.3068 -0.9420
  167MOL   H10033632   0.539   4.546   4.620  0.5128  0.8335  0.6052
  167MOL   H10133633   0.594   4.713   4.598  1.6141 -0.6477  0.2167
  167MOL   C10233634   0.429   4.668   4.470  0.6688  0.2174 -0.3935
  167MOL   C10333635   0.310   4.687   4.565 -0.2132 -0.4853 -0.0085
  167MOL  Cl10433636   0.221   4.546   4.574 -0.1870 -0.0162  0.4717
  167MOL   C10533637   0.276   4.804   4.622  0.0374 -0.5522  0.3204
  167MOL   C10633638   0.150   4.835   4.688 -0.3004  0.4983 -0.1244
  167MOL   H10733639   0.437   4.762   4.417 -0.1838  1.8522  2.2599
  167MOL   H10833640   0.410   4.591   4.395  2.3205 -1.4024  0.8037
  167MOL   H10933641   0.339   4.891   4.613  1.4204 -1.2909  2.5190
  167MOL   H11033642   0.105   4.919   4.636 -1.2458 -0.1480 -0.3655
  167MOL   H11133643   0.072   4.759   4.683  0.1559  0.0748 -0.8140
  167MOL   C11233644   0.178   4.862   4.833  0.1282 -0.3510 -0.0432
  167MOL   C11333645   0.055   4.909   4.910  0.0006 -0.4552  0.2732
  167MOL  Cl11433646   0.020   5.077   4.902  0.2429  0.1328  0.3024
  167MOL   C11533647   8.392   4.830   4.982 -0.4860 -1.4264  0.5515
  167MOL   C11633648   8.410   4.681   4.999 -0.2472 -0.7068  0.0204
  167MOL   H11733649   0.216   4.772   4.882 -0.5578  1.1205  3.3081
  167MOL   H11833650   0.254   4.940   4.837 -0.9713  0.6981  0.3582
  167MOL   H11933651   8.311   4.882   5.031  1.0998  0.4700  1.2374
  167MOL   H12033652   0.026   4.654   5.098 -0.2235  0.5826  0.3702
  167MOL   H12133653   0.071   4.641   4.939  0.7162  1.4284 -0.1486
  167MOL   C12233654   8.273   4.606   4.981 -0.3772  0.0382  0.3373
  167MOL   C12333655   8.289   4.459   5.029 -0.1339  0.3483  0.5241
  167MOL  Cl12433656   8.241   4.428   5.190  0.1466 -0.1247  0.0900
  167MOL   C12533657   8.349   4.354   4.964 -0.9726  0.0969  0.1352
  167MOL   C12633658   8.398   4.357   4.815  0.5674  0.2008  0.0670
  167MOL   H12733659   8.209   4.664   5.048 -1.9781  0.2496 -1.3338
  167MOL   H12833660   8.230   4.609   4.881 -0.4831  0.1589  0.3853
  167MOL   H12933661   8.363   4.262   5.019 -0.5864  0.0459 -0.0474
  167MOL   H13033662   8.376   4.458   4.783 -0.9257 -0.3373 -0.6186
  167MOL   H13133663   0.086   4.346   4.814  0.5400 -0.3533  1.3699
  167MOL   C13233664   8.324   4.262   4.726  0.3668  0.1263  0.6622
  167MOL   C13333665   8.358   4.266   4.576  0.0861  0.0979 -0.6981
  167MOL  Cl13433666   8.323   4.424   4.515  0.2636 -0.3030 -0.0893
  167MOL   C13533667   8.399   4.172   4.490  0.3201 -0.1054 -0.1748
  167MOL   C13633668   8.417   4.025   4.517  0.4859  0.0312 -0.0532
  167MOL   H13733669   8.317   4.156   4.750  2.5226 -0.4497 -1.1177
  167MOL   H13833670   8.219   4.289   4.739  0.4582 -0.4259  2.6437
  167MOL   H13933671   8.417   4.203   4.388 -0.2373 -0.1700 -0.2964
  167MOL   H14033672   0.023   4.011   4.622 -1.4301 -0.0545  0.4424
  167MOL   H14133673   8.321   3.975   4.509  0.6008 -0.2760  0.4769
  167MOL   C14233674   0.106   3.952   4.433  0.4976  0.0471 -0.6714
  167MOL   C14333675   0.101   3.797   4.445 -0.0097  0.7943  0.0580
  167MOL  Cl14433676   0.258   3.734   4.413  0.3500 -0.0319  0.2801
  167MOL   C14533677   8.418   3.723   4.490 -0.1440 -0.9087  0.0281
  167MOL   C14633678   0.009   3.567   4.500 -0.7045 -0.6102  0.1164
  167MOL   H14733679   0.202   3.994   4.465  1.1736 -2.5200  0.8302
  167MOL   H14833680   0.090   3.974   4.327 -0.7315  0.8112 -0.3260
  167MOL   H14933681   8.321   3.764   4.513  0.6921  0.2753  1.4200
  167MOL   H15033682   0.109   3.548   4.540 -0.3392 -1.6828 -1.2895
  167MOL   H15133683   8.360   3.522   4.571 -1.1840 -0.3737 -0.1992
  167MOL   C15233684   8.417   3.500   4.356 -0.3608  0.9153  0.3685
  167MOL   C15333685   0.023   3.350   4.356 -1.0438  0.4709 -0.6802
  167MOL  Cl15433686   8.297   3.254   4.335  0.1818 -0.0779 -0.2652
  167MOL   C15533687   0.145   3.293   4.353 -0.1031  0.1646 -0.1466
  167MOL   C15633688   0.165   3.138   4.359 -0.3812 -0.2151  0.9471
  167MOL   H15733689   8.316   3.514   4.318 -0.2023 -2.2776 -1.4045
  167MOL   H15833690   0.071   3.546   4.292  0.4711 -1.1946 -0.2404
  167MOL   H15933691   0.230   3.359   4.352  1.2724 -1.5873 -0.9972
  167MOL   H16033692   0.075   3.081   4.384  1.0257 -2.6593  0.6072
  167MOL   H16133693   0.228   3.126   4.447  3.3757  4.1347 -0.9739
  167MOL   C16233694   0.235   3.082   4.233  0.1780  0.3412 -0.7766
  167MOL   C16333695   0.174   3.120   4.100  0.2619 -0.3144  0.2772
  167MOL  Cl16433696   0.259   3.248   4.021  0.0803  0.2829  0.0739
  167MOL   C16533697   0.062   3.064   4.053 -0.3509  1.0967 -0.3063
  167MOL   C16633698   8.419   3.094   3.924 -0.5710 -0.0531  0.1680
  167MOL   H16733699   0.340   3.112   4.229  2.0088 -4.8877  2.1097
  167MOL   H16833700   0.232   2.973   4.242 -0.3684  0.4629  0.5331
  167MOL   H16933701   0.012   2.987   4.109 -1.3711 -0.9396 -3.8631
  167MOL   H17033702   0.071   3.134   3.854  0.8449 -1.7201  0.6561
  167MOL   H17133703   8.388   2.998   3.884 -2.0892  0.9791 -1.2082
  167MOL   C17233704   8.303   3.194   3.950  0.6224 -0.3917  0.2223
  167MOL   C17333705   8.163   3.144   3.968  0.7288  1.1236 -0.5438
  167MOL  Cl17433706   8.072   3.170   3.822 -0.0604  0.2355 -0.0070
  167MOL   C17533707   8.122   3.079   4.084  0.8494  0.6780 -0.7150
  167MOL   C17633708   7.984   3.023   4.105 -0.0233 -0.5356  0.1011
  167MOL   H17733709   8.309   3.263   3.866  1.9868  1.0633  1.4886
  167MOL   H17833710   8.329   3.255   4.037  0.4230 -1.3377  0.9613
  167MOL   H17933711   8.189   3.072   4.168  2.6581 -0.9677 -2.2417
  167MOL   H18033712   7.923   3.040   4.017  0.1325  1.6668  0.4074
  167MOL   H18133713   7.929   3.082   4.179 -0.5342 -0.8366 -0.0312
  167MOL   C18233714   7.974   2.872   4.123  0.2851  0.1999  0.8316
  167MOL   C18333715   7.992   2.788   3.997 -0.6727  0.2108  0.1552
  167MOL  Cl18433716   8.164   2.766   3.976  0.1973 -0.1680 -0.3010
  167MOL   C18533717   7.904   2.747   3.910  0.2921  0.2925 -0.3288
  167MOL   C18633718   7.926   2.672   3.783 -0.4313  0.2010  0.2640
  167MOL   H18733719   8.043   2.836   4.199 -0.1365 -1.6864  0.3224
  167MOL   H18833720   7.876   2.855   4.167 -0.5328 -0.5390 -1.2109
  167MOL   H18933721   7.798   2.749   3.931  0.3847  2.0836  0.1189
  167MOL   H19033722   8.032   2.662   3.759 -0.7964  0.9516 -1.7258
  167MOL   H19133723   7.894   2.569   3.802 -0.2797 -0.0958 -1.0754
  167MOL   C19233724   7.857   2.747   3.668  0.5490  0.0734 -0.0936
  167MOL   C19333725   7.889   2.698   3.536 -0.0643  0.3631  0.5825
  167MOL  Cl19433726   7.768   2.597   3.458 -0.4290  0.1842 -0.2735
  167MOL   C19533727   7.998   2.722   3.469 -0.6325  0.3755  0.1405
  167MOL   C19633728   8.117   2.802   3.507 -0.2137 -0.3850  0.2397
  167MOL   H19733729   7.848   2.855   3.671  0.0474  0.0657 -1.1143
  167MOL   H19833730   7.752   2.720   3.682  0.4792 -0.7374 -2.0788
  167MOL   H19933731   8.003   2.678   3.370 -1.2593  0.9692 -0.1585
  167MOL   H20033732   8.177   2.751   3.583  0.7079  0.3084 -0.0164
  167MOL   H20133733   8.086   2.896   3.552  2.4486  0.4023  0.4913
  167MOL   H20233734   8.172   2.823   3.415 -2.3067  0.5632 -0.8282
  168MOL     C133735   2.604   7.141   3.404 -0.6417  0.2011 -0.9355
  168MOL     C233736   2.536   7.238   3.312 -0.5331 -0.5071 -0.1380
  168MOL    Cl333737   2.550   7.181   3.149  0.3982 -0.0655 -0.0962
  168MOL     C433738   2.463   7.349   3.344  0.5700  0.2359 -0.0961
  168MOL     C533739   2.441   7.403   3.486 -0.3198 -0.4690 -0.0069
  168MOL     H633740   2.677   7.197   3.462 -0.5233 -0.6782 -0.2127
  168MOL     H733741   2.663   7.067   3.350 -0.2816 -1.4161  1.5875
  168MOL     H833742   2.416   7.401   3.262 -1.4395 -2.2551 -0.5515
  168MOL     H933743   2.340   7.380   3.519 -0.0989 -0.0029  1.0130
  168MOL    H1033744   2.506   7.353   3.557  0.8669 -0.3642 -0.9902
  168MOL    H1133745   2.529   7.093   3.467 -0.4166  2.7604  1.3975
  168MOL    C1233746   2.480   7.551   3.497 -0.0246  0.1330 -0.3432
  168MOL    C1333747   2.441   7.599   3.639 -0.3671  0.5909 -0.3707
  168MOL   Cl1433748   2.574   7.592   3.746  0.0807  0.1414  0.2026
  168MOL    C1533749   2.316   7.630   3.684 -0.5211  0.0997 -0.4226
  168MOL    C1633750   2.190   7.641   3.603  0.1358 -0.0159  0.3097
  168MOL    H1733751   2.583   7.575   3.469  0.4465 -0.1565  1.1044
  168MOL    H1833752   2.421   7.614   3.430  0.4554  0.7054 -0.2335
  168MOL    H1933753   2.294   7.653   3.788 -1.6457 -0.3939 -0.5492
  168MOL    H2033754   2.142   7.731   3.640  1.8435  0.8904  0.3445
  168MOL    H2133755   2.215   7.644   3.497  1.3375  1.3798  0.6262
  168MOL    C2233756   2.086   7.526   3.617  0.1949  0.1202  0.2700
  168MOL    C2333757   1.978   7.534   3.508  0.5845 -0.1712  0.4430
  168MOL   Cl2433758   1.903   7.686   3.493 -0.1779 -0.1418 -0.1094
  168MOL    C2533759   1.968   7.442   3.404  0.1658  0.3123  0.1451
  168MOL    C2633760   1.870   7.458   3.282  0.2223 -0.0833 -0.0935
  168MOL    H2733761   2.133   7.428   3.611 -1.2679 -0.5809 -0.0851
  168MOL    H2833762   2.034   7.537   3.713 -1.2892  1.2018 -0.6296
  168MOL    H2933763   2.037   7.360   3.395  0.6526  0.5845  1.3130
  168MOL    H3033764   1.823   7.361   3.268  0.0850  0.1965 -1.7012
  168MOL    H3133765   1.792   7.529   3.307 -1.3731 -1.4888 -0.9877
  168MOL    C3233766   1.944   7.503   3.152 -0.3588 -0.0278  0.0266
  168MOL    C3333767   2.057   7.409   3.113 -0.2390 -0.5889  0.0649
  168MOL   Cl3433768   2.211   7.477   3.115  0.1835  0.3937 -0.2326
  168MOL    C3533769   2.026   7.280   3.083  0.1343 -0.1004 -0.2599
  168MOL    C3633770   2.132   7.175   3.046 -0.7284 -0.0096 -0.2314
  168MOL    H3733771   1.885   7.505   3.060  0.4762  0.4370 -0.5106
  168MOL    H3833772   1.977   7.607   3.152 -0.5818  0.0512  1.0651
  168MOL    H3933773   1.925   7.244   3.074  0.2937 -0.3665 -1.0452
  168MOL    H4033774   2.228   7.217   3.076 -0.9519  0.6231 -0.3849
  168MOL    H4133775   2.094   7.083   3.091 -0.3082 -0.3233 -0.5176
  168MOL    C4233776   2.149   7.159   2.894 -0.2620  0.6090 -0.2189
  168MOL    C4333777   2.266   7.065   2.866 -0.2749  0.3689 -0.4441
  168MOL   Cl4433778   2.412   7.156   2.848  0.0666 -0.2967 -0.0613
  168MOL    C4533779   2.263   6.935   2.869  0.4611  0.3111 -0.2862
  168MOL    C4633780   2.142   6.849   2.890  0.3409 -0.2245 -0.0033
  168MOL    H4733781   2.057   7.114   2.858  1.2001 -1.2272 -1.7974
  168MOL    H4833782   2.156   7.260   2.854  1.0775  0.9358  0.7674
  168MOL    H4933783   2.356   6.886   2.845  0.0243 -1.0796  0.7602
  168MOL    H5033784   2.143   6.800   2.987  1.4825 -1.8753 -0.8225
  168MOL    H5133785   2.050   6.906   2.880 -0.5800 -1.5924  0.5152
  168MOL    C5233786   2.150   6.729   2.792  0.0507 -0.0795 -0.1449
  168MOL    C5333787   2.062   6.608   2.829 -1.0363 -0.1374  0.6039
  168MOL   Cl5433788   2.129   6.518   2.967 -0.0608  0.1111  0.2052
  168MOL    C5533789   1.954   6.583   2.756 -0.3364  0.2809 -0.0829
  168MOL    C5633790   1.861   6.460   2.768 -0.2042 -0.3918  0.2335
  168MOL    H5733791   2.137   6.763   2.689  0.1534  0.0598 -0.1101
  168MOL    H5833792   2.249   6.685   2.798 -1.0180 -2.3832  1.3022
  168MOL    H5933793   1.923   6.658   2.685  1.1204  1.1234  0.1502
  168MOL    H6033794   1.897   6.385   2.698 -1.5472 -0.3770 -0.4797
  168MOL    H6133795   1.860   6.426   2.872 -1.0442 -3.6454 -0.7751
  168MOL    C6233796   1.714   6.483   2.737  0.5337  0.1493 -0.1852
  168MOL    C6333797   1.626   6.359   2.729 -0.3805 -0.9199 -0.1464
  168MOL   Cl6433798   1.640   6.268   2.872  0.2495  0.2037  0.1327
  168MOL    C6533799   1.556   6.317   2.624  0.3759  0.2106  0.5612
  168MOL    C6633800   1.479   6.193   2.609  0.4728  0.0889  0.3523
  168MOL    H6733801   1.660   6.542   2.810 -0.3152 -2.1144  1.0801
  168MOL    H6833802   1.703   6.537   2.642  1.6156  2.1306  0.7885
  168MOL    H6933803   1.572   6.375   2.534  1.2523 -0.0804  0.5214
  168MOL    H7033804   1.373   6.220   2.619  1.3114  2.5634  3.2072
  168MOL    H7133805   1.500   6.137   2.699 -1.5877  2.2537  2.2530
  168MOL    C7233806   1.520   6.121   2.479  0.2039 -0.2939  0.3323
  168MOL    C7333807   1.483   5.975   2.464  0.4241 -0.1217 -0.2197
  168MOL   Cl7433808   1.340   5.953   2.366 -0.1236  0.4739  0.0973
  168MOL    C7533809   1.558   5.866   2.512  0.2936 -0.4235  0.2374
  168MOL    C7633810   1.542   5.720   2.478  0.1773 -0.3894 -0.2325
  168MOL    H7733811   1.629   6.120   2.470  0.1939 -0.1117  0.1911
  168MOL    H7833812   1.492   6.178   2.390  0.9148  2.1449  1.6215
  168MOL    H7933813   1.645   5.878   2.575  2.2305 -2.4968 -1.9371
  168MOL    H8033814   1.557   5.699   2.372  0.8866  1.6360 -0.5570
  168MOL    H8133815   1.439   5.692   2.496 -0.0652 -1.2568 -2.7171
  168MOL    C8233816   1.634   5.635   2.562  0.0161 -0.3167  0.6462
  168MOL    C8333817   1.599   5.644   2.713  0.3524  0.6690 -0.2823
  168MOL   Cl8433818   1.728   5.705   2.809  0.1826 -0.0555  0.0148
  168MOL    C8533819   1.496   5.575   2.770  0.5390  0.5063 -0.3158
  168MOL    C8633820   1.470   5.584   2.920  0.2650  0.5415  0.3747
  168MOL    H8733821   1.741   5.654   2.550 -0.1234  0.8458  1.1554
  168MOL    H8833822   1.639   5.535   2.519  1.9211 -1.4124  3.2510
  168MOL    H8933823   1.428   5.525   2.704  0.6747  0.8126 -0.6944
  168MOL    H9033824   1.511   5.677   2.961  2.6738 -0.0759 -0.5138
  168MOL    H9133825   1.362   5.575   2.922  0.3686 -0.5688  1.5697
  168MOL    C9233826   1.524   5.464   2.994  0.2856  0.5712  0.0309
  168MOL    C9333827   1.479   5.449   3.137 -0.4017 -0.3133  0.8044
  168MOL   Cl9433828   1.350   5.336   3.148  0.1216 -0.0597 -0.2637
  168MOL    C9533829   1.535   5.504   3.247  0.1602  0.3703 -0.0036
  168MOL    C9633830   1.651   5.602   3.254 -0.4116  0.9235  0.8477
  168MOL    H9733831   1.632   5.484   2.992  0.3495  0.1579 -0.9440
  168MOL    H9833832   1.502   5.371   2.942  2.0812 -0.3390  0.8247
  168MOL    H9933833   1.491   5.478   3.341 -2.0194  2.6881 -0.3385
  168MOL   H10033834   1.719   5.550   3.321 -1.1656 -1.3920 -0.1179
  168MOL   H10133835   1.701   5.614   3.158  1.5278  1.5345  1.9158
  168MOL   C10233836   1.607   5.731   3.311  0.4441 -0.7771 -1.0116
  168MOL   C10333837   1.549   5.831   3.216  1.3100 -0.2699  0.6447
  168MOL  Cl10433838   1.661   5.962   3.192  0.1096 -0.0494  0.0216
  168MOL   C10533839   1.420   5.832   3.181  0.4906  0.1064  0.3640
  168MOL   C10633840   1.351   5.941   3.101 -0.4589 -0.1998 -0.3398
  168MOL   H10733841   1.532   5.710   3.387  1.6216  2.6723  1.2368
  168MOL   H10833842   1.689   5.773   3.370 -1.6065  0.8987  0.7228
  168MOL   H10933843   1.357   5.747   3.201 -1.2722  0.6416 -2.4810
  168MOL   H11033844   1.306   6.015   3.167  1.1824  1.1753 -0.7043
  168MOL   H11133845   1.417   6.016   3.057 -0.0570  0.4190  1.2961
  168MOL   C11233846   1.261   5.890   2.996 -0.2288 -0.3612  0.3389
  168MOL   C11333847   1.190   5.993   2.908  0.1109  0.2972  0.0997
  168MOL  Cl11433848   1.254   5.993   2.748  0.0096 -0.1363  0.0330
  168MOL   C11533849   1.081   6.064   2.950  0.2744 -0.7771 -0.1890
  168MOL   C11633850   1.002   6.049   3.085  0.1233  0.5128 -1.1990
  168MOL   H11733851   1.300   5.812   2.930 -0.5782  0.4070 -0.7980
  168MOL   H11833852   1.188   5.835   3.055 -0.2296 -1.4705 -0.6694
  168MOL   H11933853   1.051   6.148   2.889  1.5204 -0.1470  0.0444
  168MOL   H12033854   1.047   5.978   3.153 -2.7138  0.2430  0.4793
  168MOL   H12133855   0.900   6.012   3.074 -0.2426  0.9062  0.7068
  168MOL   C12233856   0.997   6.182   3.159  0.2132  0.4958  1.1418
  168MOL   C12333857   0.933   6.175   3.296 -0.1943 -0.8468 -0.0825
  168MOL  Cl12433858   0.769   6.231   3.299  0.0360 -0.2310  0.1671
  168MOL   C12533859   0.999   6.133   3.405  0.0097 -0.1480  0.5839
  168MOL   C12633860   1.145   6.087   3.413  0.7349  0.2709 -0.8679
  168MOL   H12733861   1.093   6.230   3.142 -0.1458  0.0285 -2.7289
  168MOL   H12833862   0.933   6.246   3.098  1.3072  1.2403  0.7680
  168MOL   H12933863   0.951   6.123   3.501  0.3501  2.5319  1.0659
  168MOL   H13033864   1.143   5.979   3.410 -2.7089  0.1941  1.0676
  168MOL   H13133865   1.183   6.122   3.317 -0.7216  1.3293 -1.0767
  168MOL   C13233866   1.213   6.157   3.532  0.2029 -0.4517 -0.5007
  168MOL   C13333867   1.357   6.120   3.541  0.3753  0.3479  0.4125
  168MOL  Cl13433868   1.368   5.952   3.594  0.0060 -0.6425 -0.3102
  168MOL   C13533869   1.463   6.191   3.490  0.4474 -0.6561  0.1219
  168MOL   C13633870   1.446   6.329   3.428 -0.4360 -0.3361  0.8573
  168MOL   H13733871   1.199   6.266   3.537  0.1998 -0.3847 -1.8145
  168MOL   H13833872   1.163   6.120   3.622 -2.4171  3.0748 -0.3495
  168MOL   H13933873   1.568   6.165   3.484  0.2501 -1.2090 -0.9726
  168MOL   H14033874   1.340   6.342   3.407 -0.0809  0.9713 -0.2547
  168MOL   H14133875   1.460   6.403   3.507 -0.4164  0.7466 -0.1441
  168MOL   C14233876   1.531   6.364   3.302  0.6748  0.3208  0.0358
  168MOL   C14333877   1.494   6.502   3.248  0.3312  0.3864  0.2198
  168MOL  Cl14433878   1.461   6.504   3.074  0.8747  0.2311  0.2785
  168MOL   C14533879   1.488   6.608   3.328  0.1058 -0.4904  0.0577
  168MOL   C14633880   1.443   6.750   3.286 -0.4375  0.2255  1.2033
  168MOL   H14733881   1.526   6.283   3.229  1.3387 -0.3540  0.7288
  168MOL   H14833882   1.631   6.362   3.344  0.3865 -2.5408  0.6917
  168MOL   H14933883   1.511   6.605   3.434 -1.8314  0.0627  0.5293
  168MOL   H15033884   1.403   6.749   3.185  2.1364 -1.7376  0.1737
  168MOL   H15133885   1.362   6.786   3.351 -3.6343  0.3950 -2.6724
  168MOL   C15233886   1.549   6.858   3.276 -0.4809 -0.1278  0.6449
  168MOL   C15333887   1.503   6.974   3.199  0.6159 -0.3322 -0.1250
  168MOL  Cl15433888   1.640   7.065   3.143 -0.0396  0.2231  0.2409
  168MOL   C15533889   1.374   7.018   3.175 -0.5920 -0.7434  0.0864
  168MOL   C15633890   1.349   7.137   3.083 -0.6761  0.2001  0.4481
  168MOL   H15733891   1.580   6.886   3.377  1.6918  2.9354 -0.7950
  168MOL   H15833892   1.644   6.824   3.235 -0.2287  2.6798 -1.2861
  168MOL   H15933893   1.291   6.965   3.219 -1.5070 -0.4704 -1.2893
  168MOL   H16033894   1.438   7.156   3.023 -0.5363 -1.5868  0.0526
  168MOL   H16133895   1.338   7.217   3.156  1.2253 -1.3461  2.4965
  168MOL   C16233896   1.225   7.113   2.997  0.5486 -0.1324  0.7466
  168MOL   C16333897   1.202   7.217   2.895 -0.4846  0.9562 -0.6672
  168MOL  Cl16433898   1.034   7.273   2.902 -0.1398 -0.0516  0.2805
  168MOL   C16533899   1.284   7.241   2.791 -0.3793 -0.7297 -0.2359
  168MOL   C16633900   1.251   7.324   2.667  0.0479  0.2808  0.3381
  168MOL   H16733901   1.245   7.024   2.937  1.4393  0.6017 -0.0651
  168MOL   H16833902   1.134   7.096   3.054  0.7012 -1.8805  0.4977
  168MOL   H16933903   1.381   7.194   2.785 -0.2566 -0.5013 -0.0318
  168MOL   H17033904   1.162   7.385   2.684 -0.1191 -0.3610  1.8978
  168MOL   H17133905   1.335   7.390   2.646  1.0324 -2.0171 -3.4114
  168MOL   C17233906   1.230   7.232   2.547 -0.2560 -0.2364  0.1141
  168MOL   C17333907   1.176   7.298   2.418 -0.3700  0.1591 -0.3349
  168MOL  Cl17433908   1.146   7.179   2.292 -0.0978  0.2677  0.0879
  168MOL   C17533909   1.154   7.426   2.408  0.2233  0.2118  0.3760
  168MOL   C17633910   1.113   7.505   2.286  0.1181  0.2901 -0.0644
  168MOL   H17733911   1.160   7.149   2.560 -0.8391  0.1520 -0.4793
  168MOL   H17833912   1.323   7.186   2.517 -0.1899 -1.5976  2.3249
  168MOL   H17933913   1.158   7.488   2.496  1.2440 -0.1452  0.5862
  168MOL   H18033914   1.155   7.464   2.194  3.2573 -1.3938  2.0159
  168MOL   H18133915   1.160   7.603   2.287 -2.5703  1.6404 -0.6558
  168MOL   C18233916   0.956   7.506   2.277  0.1619  0.0568  0.1116
  168MOL   C18333917   0.901   7.589   2.160 -0.3689  0.7528  1.4239
  168MOL  Cl18433918   0.880   7.487   2.019 -0.3295  0.0060  0.4060
  168MOL   C18533919   0.864   7.719   2.166 -0.0880 -0.1592  0.5240
  168MOL   C18633920   0.814   7.809   2.048 -0.5257 -0.4254  0.3717
  168MOL   H18733921   0.924   7.403   2.257  0.3343  0.0505 -0.1326
  168MOL   H18833922   0.908   7.540   2.369  0.0508  1.5254 -0.4796
  168MOL   H18933923   0.866   7.767   2.263 -0.9286 -1.4229  1.1747
  168MOL   H19033924   0.870   7.902   2.041  0.5756 -1.1814 -1.0462
  168MOL   H19133925   0.850   7.770   1.953  1.8046 -0.5575  1.2682
  168MOL   C19233926   0.668   7.844   2.049 -0.0180  0.3189 -0.8827
  168MOL   C19333927   0.617   7.874   1.904 -0.2633 -0.1878 -0.8484
  168MOL  Cl19433928   0.644   8.039   1.876  0.2552  0.2293 -0.0992
  168MOL   C19533929   0.561   7.794   1.812 -0.6741  0.2932 -0.7712
  168MOL   C19633930   0.543   7.651   1.841  1.1680  0.4338 -0.6599
  168MOL   H19733931   0.661   7.940   2.100  0.4380  0.7420 -1.6020
  168MOL   H19833932   0.617   7.755   2.086  0.1958  0.8628  0.7434
  168MOL   H19933933   0.531   7.839   1.718  0.0753  2.1898 -0.1117
  168MOL   H20033934   0.552   7.592   1.750 -0.0125 -0.4800 -0.2005
  168MOL   H20133935   0.435   7.658   1.859  1.1980  1.6955 -0.8940
  168MOL   H20233936   0.612   7.614   1.916  0.8801  1.3220  0.0546
  169MOL     C133937   0.111   5.584   1.254  0.6949 -0.7608 -0.3811
  169MOL     C233938   0.220   5.521   1.164 -0.1740  0.1684 -0.3761
  169MOL    Cl333939   0.150   5.413   1.051  0.4004 -0.2931  0.3529
  169MOL     C433940   0.352   5.540   1.169 -0.3223  0.3664 -0.8555
  169MOL     C533941   0.418   5.642   1.260 -0.6782  0.4679 -0.4021
  169MOL     H633942   0.062   5.500   1.304 -0.7426 -0.8809 -1.9498
  169MOL     H733943   0.031   5.633   1.198  1.9497  1.3392 -0.3558
  169MOL     H833944   0.416   5.473   1.113  0.2627  0.1653  0.0214
  169MOL     H933945   0.344   5.711   1.299 -0.1010  0.5604  0.5606
  169MOL    H1033946   0.458   5.612   1.357  1.6300 -1.2185 -1.8191
  169MOL    H1133947   0.151   5.658   1.322 -0.8605  0.4469 -0.7561
  169MOL    C1233948   0.522   5.727   1.184  0.0064 -0.2088 -0.7958
  169MOL    C1333949   0.590   5.832   1.270  0.8440 -0.0563  1.0202
  169MOL   Cl1433950   0.508   5.982   1.240 -0.0209 -0.2873 -0.2509
  169MOL    C1533951   0.689   5.820   1.360 -0.5410 -0.2715  0.2794
  169MOL    C1633952   0.762   5.696   1.412 -0.7955  0.0404  0.7225
  169MOL    H1733953   0.592   5.660   1.133  0.7041 -0.9241  1.0363
  169MOL    H1833954   0.474   5.767   1.095  2.1687 -0.8554 -2.2990
  169MOL    H1933955   0.709   5.913   1.412 -3.4959 -0.4383  1.8427
  169MOL    H2033956   0.757   5.607   1.349 -0.2726  0.2795  0.3293
  169MOL    H2133957   0.870   5.716   1.407 -1.1878  1.7513 -2.2627
  169MOL    C2233958   0.708   5.659   1.552 -0.3122  0.1795  0.3058
  169MOL    C2333959   0.786   5.547   1.618  0.0062 -0.1082 -0.4071
  169MOL   Cl2433960   0.950   5.535   1.569  0.1576  0.3861  0.3435
  169MOL    C2533961   0.745   5.472   1.726  0.4580  0.5283  0.0983
  169MOL    C2633962   0.810   5.351   1.788 -0.3574  0.0436 -0.4963
  169MOL    H2733963   0.721   5.745   1.618 -1.0949 -0.8364  1.8154
  169MOL    H2833964   0.602   5.632   1.547  0.1736 -1.8959  0.6446
  169MOL    H2933965   0.649   5.498   1.769  0.3703  1.7289 -0.7741
  169MOL    H3033966   0.732   5.276   1.780 -1.3445  1.1032 -0.9598
  169MOL    H3133967   0.885   5.311   1.720 -0.1648  0.7918 -0.7251
  169MOL    C3233968   0.842   5.350   1.936 -0.4510 -0.7330  0.1087
  169MOL    C3333969   0.863   5.210   1.981 -0.5355  0.3960  0.0470
  169MOL   Cl3433970   0.740   5.165   2.094  0.0056 -0.1411  0.5572
  169MOL    C3533971   0.979   5.146   1.957  0.1478 -1.0240  0.0324
  169MOL    C3633972   1.024   5.008   2.003  0.2743  0.4114  0.0941
  169MOL    H3733973   0.930   5.410   1.956 -0.1848 -0.8656 -0.6240
  169MOL    H3833974   0.765   5.407   1.988 -1.4229 -3.6319  1.9743
  169MOL    H3933975   1.057   5.195   1.901 -0.3492  2.7378  2.4903
  169MOL    H4033976   0.960   4.980   2.087 -0.3232 -1.0676 -0.8176
  169MOL    H4133977   0.995   4.943   1.920  2.0406  0.1415 -0.3269
  169MOL    C4233978   1.175   5.006   2.047 -0.5382  0.1608  0.3795
  169MOL    C4333979   1.229   4.874   2.097  0.3784  0.0487 -0.5052
  169MOL   Cl4433980   1.132   4.738   2.110  0.4148 -0.1720 -0.2255
  169MOL    C4533981   1.360   4.862   2.138  0.0480 -0.2308 -0.1213
  169MOL    C4633982   1.462   4.981   2.151 -0.3712 -0.1346  0.2343
  169MOL    H4733983   1.240   5.043   1.968 -0.7335 -0.8625 -0.2658
  169MOL    H4833984   1.177   5.072   2.134 -4.1933 -0.0670  0.7269
  169MOL    H4933985   1.390   4.760   2.157 -1.4114 -0.6023  0.2041
  169MOL    H5033986   1.560   4.946   2.117 -1.1928 -0.7344 -1.5639
  169MOL    H5133987   1.434   5.062   2.083  0.7027  0.1831  0.1569
  169MOL    C5233988   1.471   5.044   2.292 -0.4088 -0.0876  0.4496
  169MOL    C5333989   1.571   5.157   2.307  0.0116 -0.5669 -0.2163
  169MOL   Cl5433990   1.503   5.258   2.426 -1.0643 -0.1716  0.5231
  169MOL    C5533991   1.683   5.184   2.239 -0.6305 -0.5406  0.2718
  169MOL    C5633992   1.767   5.311   2.255 -0.4331  1.2158 -0.1959
  169MOL    H5733993   1.373   5.082   2.319  0.7321  1.2061  2.9937
  169MOL    H5833994   1.491   4.977   2.376  0.2778 -3.3072 -2.1994
  169MOL    H5933995   1.729   5.121   2.165  1.4187  1.9193 -0.6093
  169MOL    H6033996   1.713   5.380   2.320 -0.5399  1.0528 -0.1089
  169MOL    H6133997   1.855   5.272   2.305 -1.7023 -0.4758  0.7943
  169MOL    C6233998   1.805   5.358   2.117 -0.6724  0.4350  0.1214
  169MOL    C6333999   1.869   5.492   2.123 -0.1308 -0.4473  0.4342
  169MOL   Cl6434000   1.966   5.529   1.983  0.0382 -0.2802  0.1902
  169MOL    C6534001   1.860   5.588   2.218  0.6404  0.1640  0.2585
  169MOL    C6634002   1.933   5.719   2.222 -0.2695 -0.1447  0.1060
  169MOL    H6734003   1.875   5.286   2.074 -0.3164  0.2816  0.9454
  169MOL    H6834004   1.718   5.378   2.053 -1.0273  1.3573  0.8918
  169MOL    H6934005   1.798   5.575   2.305  0.0616  0.1208 -0.1601
  169MOL    H7034006   2.015   5.728   2.152  1.6085  0.2820  2.2969
  169MOL    H7134007   1.974   5.717   2.323  1.6973 -0.9249 -0.6909
  169MOL    C7234008   1.845   5.840   2.236 -0.0882 -0.2360 -0.5216
  169MOL    C7334009   1.920   5.963   2.278  0.0898  0.0243 -0.4313
  169MOL   Cl7434010   1.913   5.989   2.451 -0.0477 -0.1690 -0.1822
  169MOL    C7534011   1.968   6.060   2.199 -0.1352 -0.4532 -0.4193
  169MOL    C7634012   2.026   6.197   2.238  0.0207  0.1981 -0.0122
  169MOL    H7734013   1.760   5.830   2.304  1.7210 -1.4078  1.6098
  169MOL    H7834014   1.793   5.851   2.141 -0.9887  1.6908  0.1801
  169MOL    H7934015   1.974   6.055   2.091 -2.8336  0.1821 -0.6305
  169MOL    H8034016   2.123   6.211   2.190  1.3369 -1.7885  1.9523
  169MOL    H8134017   2.043   6.206   2.346  1.2463  1.0330 -0.2600
  169MOL    C8234018   1.940   6.308   2.188 -0.3401 -0.0148 -0.2136
  169MOL    C8334019   1.998   6.448   2.211  0.2564 -0.3381  0.1701
  169MOL   Cl8434020   1.979   6.513   2.372  0.1244 -0.1814 -0.0107
  169MOL    C8534021   2.047   6.522   2.112 -0.1725 -0.2454  0.1136
  169MOL    C8634022   2.091   6.671   2.112 -0.1607  0.6122  0.6535
  169MOL    H8734023   1.841   6.298   2.233 -0.2875 -2.7134 -0.6304
  169MOL    H8834024   1.929   6.291   2.081  0.3451 -2.0455  0.0245
  169MOL    H8934025   2.062   6.478   2.014  1.7434 -1.0005  0.7314
  169MOL    H9034026   2.019   6.738   2.158  1.0488  2.3170  0.0863
  169MOL    H9134027   2.182   6.686   2.169 -0.2389 -0.4511  1.0800
  169MOL    C9234028   2.122   6.713   1.966  0.1157  0.6096  0.3638
  169MOL    C9334029   2.181   6.854   1.961  0.7420 -0.0688  0.6857
  169MOL   Cl9434030   2.347   6.853   1.932 -0.1050 -0.0230 -0.1490
  169MOL    C9534031   2.121   6.979   1.955 -0.0897 -0.2857 -0.6524
  169MOL    C9634032   1.977   6.998   1.967  0.0094  0.1682 -0.5410
  169MOL    H9734033   2.041   6.707   1.894 -0.2260 -0.6736  0.8477
  169MOL    H9834034   2.193   6.650   1.912 -0.8564 -1.1391  1.1034
  169MOL    H9934035   2.177   7.071   1.945 -0.0405 -0.3003 -0.5215
  169MOL   H10034036   1.940   7.022   1.867  0.7102  0.0065 -0.8380
  169MOL   H10134037   1.933   6.902   1.993 -0.3891  0.5771  0.3289
  169MOL   C10234038   1.942   7.112   2.066  0.0189  0.8021 -1.1557
  169MOL   C10334039   1.796   7.143   2.071 -0.7399 -0.1827 -0.7376
  169MOL  Cl10434040   1.754   7.243   1.939  0.0347  0.3857  0.1528
  169MOL   C10534041   1.710   7.108   2.165  1.2494 -0.0266 -0.3872
  169MOL   C10634042   1.559   7.136   2.157 -0.9862  0.5618  0.5009
  169MOL   H10734043   1.966   7.064   2.161  0.4747  1.8835 -0.7172
  169MOL   H10834044   1.998   7.202   2.043  0.0149  0.9928 -0.4217
  169MOL   H10934045   1.748   7.059   2.253  1.0555 -0.4835 -0.5570
  169MOL   H11034046   1.530   7.164   2.055  1.4962  0.2530 -0.3146
  169MOL   H11134047   1.510   7.039   2.166 -0.4704  0.1034 -1.4727
  169MOL   C11234048   1.520   7.252   2.257 -0.4587  0.1848  0.1208
  169MOL   C11334049   1.584   7.386   2.232 -0.0827 -0.2220 -0.3212
  169MOL  Cl11434050   1.517   7.447   2.087 -0.0788 -0.0972  0.1595
  169MOL   C11534051   1.673   7.453   2.307  1.2065  0.3675  0.1907
  169MOL   C11634052   1.745   7.402   2.432  0.1700  0.5451  0.6955
  169MOL   H11734053   1.414   7.267   2.238 -0.5511 -0.2550  0.2854
  169MOL   H11834054   1.522   7.220   2.361  2.0462 -0.5954 -0.1358
  169MOL   H11934055   1.696   7.556   2.283 -0.7186  1.1372  1.4280
  169MOL   H12034056   1.850   7.404   2.402  0.7766  1.4854  2.7845
  169MOL   H12134057   1.707   7.302   2.451 -1.7248  0.8193 -1.3823
  169MOL   C12234058   1.701   7.475   2.556 -0.4753  0.7517 -0.6294
  169MOL   C12334059   1.746   7.409   2.682 -0.2875 -0.4628  0.3849
  169MOL  Cl12434060   1.639   7.287   2.737  0.0691  0.0826 -0.4360
  169MOL   C12534061   1.865   7.424   2.748 -0.1184  0.0309  0.0315
  169MOL   C12634062   1.981   7.505   2.695  0.8335 -0.0633 -0.2314
  169MOL   H12734063   1.741   7.576   2.565  1.4128 -0.1060  1.0504
  169MOL   H12834064   1.598   7.510   2.551 -0.3109  1.4370  0.5337
  169MOL   H12934065   1.883   7.380   2.844 -2.2944  1.1187  0.9719
  169MOL   H13034066   2.078   7.465   2.725 -0.2377 -3.4102 -1.0185
  169MOL   H13134067   1.984   7.500   2.586  1.1328 -0.0139 -0.2267
  169MOL   C13234068   1.969   7.649   2.734 -0.2118  0.3177  0.5144
  169MOL   C13334069   2.091   7.731   2.686 -0.4498  0.0744 -0.9315
  169MOL  Cl13434070   2.192   7.776   2.817 -0.2663  0.4517 -0.2995
  169MOL   C13534071   2.131   7.755   2.562  0.1998  1.1201 -0.0658
  169MOL   C13634072   2.051   7.717   2.439  0.5312  0.0396  0.1633
  169MOL   H13734073   1.885   7.699   2.683 -1.5958 -0.9275  1.5386
  169MOL   H13834074   1.952   7.657   2.841 -0.9008 -2.1741  0.6200
  169MOL   H13934075   2.228   7.793   2.533 -0.5458  2.4498 -0.8658
  169MOL   H14034076   1.949   7.683   2.458 -0.1335  1.2492 -1.1206
  169MOL   H14134077   2.039   7.808   2.380  0.3582 -0.1837 -0.1447
  169MOL   C14234078   2.127   7.615   2.352 -0.0787 -0.3764  0.1885
  169MOL   C14334079   2.048   7.576   2.225  0.1864 -0.1324 -0.2256
  169MOL  Cl14434080   2.111   7.421   2.173 -0.5632 -0.1794 -0.1003
  169MOL   C14534081   1.939   7.635   2.166  0.2922 -0.1390 -0.5675
  169MOL   C14634082   1.866   7.583   2.045  0.1558 -0.0355  0.0952
  169MOL   H14734083   2.148   7.531   2.419  1.6275  1.4985  2.0646
  169MOL   H14834084   2.218   7.663   2.317  1.8759 -2.2750  2.4727
  169MOL   H14934085   1.895   7.727   2.202 -1.2226 -0.8997 -0.4618
  169MOL   H15034086   1.869   7.474   2.046  0.0740 -0.1177 -3.0240
  169MOL   H15134087   1.761   7.608   2.059  0.1339 -0.4898  0.8076
  169MOL   C15234088   1.927   7.652   1.924  0.2143 -0.0198 -0.8292
  169MOL   C15334089   1.872   7.612   1.790 -0.4946 -0.7632 -0.3516
  169MOL  Cl15434090   1.993   7.557   1.683  0.2299  0.4773  0.1250
  169MOL   C15534091   1.748   7.647   1.753 -1.1670  0.3253  0.2028
  169MOL   C15634092   1.686   7.630   1.618 -0.5089 -0.4510  0.2741
  169MOL   H15734093   1.926   7.761   1.921 -1.3750  0.0066 -0.1915
  169MOL   H15834094   2.028   7.614   1.932 -0.2712 -1.1930 -0.1778
  169MOL   H15934095   1.673   7.690   1.817 -2.2210 -2.2815  0.7870
  169MOL   H16034096   1.598   7.567   1.632 -1.0392 -0.2525 -1.8360
  169MOL   H16134097   1.740   7.577   1.540 -2.3445 -3.0125  0.6773
  169MOL   C16234098   1.613   7.756   1.567  0.0965  0.1995 -0.4022
  169MOL   C16334099   1.551   7.754   1.427 -0.1051 -0.7049 -0.1233
  169MOL  Cl16434100   1.478   7.902   1.390  0.3982 -0.0826  0.1333
  169MOL   C16534101   1.545   7.653   1.342  0.0768  0.0828 -0.1103
  169MOL   C16634102   1.500   7.634   1.196 -0.7875 -0.5999  0.0575
  169MOL   H16734103   1.531   7.771   1.636  0.4896 -1.0931  0.3523
  169MOL   H16834104   1.682   7.841   1.572  0.7427 -0.3995  1.2226
  169MOL   H16934105   1.590   7.558   1.367  1.6747  0.7544 -0.3888
  169MOL   H17034106   1.479   7.727   1.143 -0.5410  1.1794  2.9776
  169MOL   H17134107   1.589   7.592   1.149  0.8106 -1.5438  3.7596
  169MOL   C17234108   1.381   7.537   1.183 -0.2085  0.0842 -1.3286
  169MOL   C17334109   1.334   7.510   1.042 -0.3771 -0.1661  0.3851
  169MOL  Cl17434110   1.452   7.539   0.916  0.1660  0.1151  0.2781
  169MOL   C17534111   1.202   7.479   1.012 -0.0102  0.1145 -0.6432
  169MOL   C17634112   1.165   7.461   0.869 -0.3192 -0.2522  1.0630
  169MOL   H17734113   1.298   7.555   1.251  0.6691  0.9198 -0.4405
  169MOL   H17834114   1.428   7.443   1.212  0.7387  1.6118  2.4940
  169MOL   H17934115   1.124   7.476   1.088 -0.3031  2.7100 -0.7996
  169MOL   H18034116   1.074   7.400   0.864 -0.5038  0.2127 -2.0492
  169MOL   H18134117   1.230   7.406   0.800 -0.7516  0.6356 -0.0752
  169MOL   C18234118   1.140   7.594   0.795 -0.4440 -0.2161  0.5805
  169MOL   C18334119   1.061   7.568   0.667  0.5889 -0.3799 -0.9945
  169MOL  Cl18434120   0.887   7.560   0.692  0.5869  0.0402  0.3787
  169MOL   C18534121   1.105   7.539   0.547  0.3235  0.0456  0.2430
  169MOL   C18634122   1.019   7.515   0.419 -0.9447 -0.0203 -0.2740
  169MOL   H18734123   1.086   7.656   0.866  2.0018  1.0330  1.3923
  169MOL   H18834124   1.233   7.649   0.780 -1.0014  1.0051  1.5368
  169MOL   H18934125   1.212   7.535   0.534 -0.0588  0.8196 -3.8382
  169MOL   H19034126   0.911   7.501   0.426 -0.5792 -1.5694  4.0942
  169MOL   H19134127   1.034   7.604   0.358 -0.1771 -1.7747 -2.7371
  169MOL   C19234128   1.077   7.402   0.335  0.1068  0.2680  0.4791
  169MOL   C19334129   0.993   7.365   0.216 -0.3184  0.3935  0.3922
  169MOL  Cl19434130   1.037   7.463   0.083 -0.0822 -0.0756  0.2980
  169MOL   C19534131   0.906   7.267   0.203 -0.2933 -0.2853  0.4781
  169MOL   C19634132   0.870   7.159   0.297 -0.9811  0.2901 -0.0427
  169MOL   H19734133   1.081   7.317   0.403  2.1228  0.5313  0.7097
  169MOL   H19834134   1.178   7.430   0.305 -0.1337  0.7342  0.1091
  169MOL   H19934135   0.856   7.269   0.107  0.9770  4.8044 -0.2328
  169MOL   H20034136   0.930   7.070   0.283 -1.2625  0.2229 -0.8607
  169MOL   H20134137   0.765   7.129   0.286 -1.1925  0.7017  0.7718
  169MOL   H20234138   0.881   7.192   0.401  2.9203  0.4888 -0.4459
  170MOL     C134139   7.082   1.067   0.053 -0.3856  0.2947 -0.8083
  170MOL     C234140   7.015   0.930   0.031 -0.3911 -0.6044 -0.8779
  170MOL    Cl334141   6.923   0.921   8.305 -0.2446 -0.3060 -0.3391
  170MOL     C434142   7.033   0.825   0.109  0.1775  0.4904  0.0435
  170MOL     C534143   7.115   0.812   0.238 -0.3506  0.4754  0.2607
  170MOL     H634144   7.154   1.068   0.135 -0.7493 -1.5274 -0.4429
  170MOL     H734145   7.013   1.143   0.088 -0.2499 -0.4101  1.0463
  170MOL     H834146   6.990   0.727   0.095  0.2428  0.6651 -1.4354
  170MOL     H934147   7.121   0.914   0.276 -2.7530  1.2571 -1.3126
  170MOL    H1034148   7.067   0.753   0.317 -0.4212  0.2572  0.0561
  170MOL    H1134149   7.128   1.098   8.380  1.2595 -2.6394 -1.0467
  170MOL    C1234150   7.257   0.746   0.221  0.4101 -0.0875  0.0021
  170MOL    C1334151   7.360   0.853   0.213 -0.0247  0.0525  0.6262
  170MOL   Cl1434152   7.381   0.908   0.051  0.1367 -0.1591 -0.0941
  170MOL    C1534153   7.428   0.913   0.311 -0.2634 -0.5452  0.5880
  170MOL    C1634154   7.417   0.871   0.462  0.8354 -0.8564 -0.1333
  170MOL    H1734155   7.272   0.677   0.304  0.2939 -0.3159 -0.1645
  170MOL    H1834156   7.261   0.687   0.129  2.6053  1.2105 -0.7758
  170MOL    H1934157   7.501   0.985   0.276  0.9161 -3.0897 -2.4262
  170MOL    H2034158   7.328   0.813   0.486  1.1396 -1.3617 -0.2187
  170MOL    H2134159   7.494   0.796   0.480 -0.6654 -1.8697  2.3307
  170MOL    C2234160   7.451   0.983   0.563 -0.2340 -0.2873 -0.1226
  170MOL    C2334161   7.503   0.939   0.696 -0.3027  0.6394  0.2334
  170MOL   Cl2434162   7.394   0.986   0.827  0.0063 -0.2505  0.3100
  170MOL    C2534163   7.619   0.879   0.733  0.3956  0.6699 -0.1463
  170MOL    C2634164   7.662   0.854   0.875  0.1839 -0.1708  0.0524
  170MOL    H2734165   7.526   1.048   0.517  0.3857 -0.3650  0.7653
  170MOL    H2834166   7.356   1.035   0.575 -0.0467 -0.5566  2.6689
  170MOL    H2934167   7.685   0.848   0.653 -0.1720 -2.8879  0.6904
  170MOL    H3034168   7.650   0.955   0.913  1.4853  0.4669 -1.2117
  170MOL    H3134169   7.593   0.778   0.913 -0.0652  1.0071  2.0655
  170MOL    C3234170   7.811   0.814   0.870  0.1104  1.0472  0.0206
  170MOL    C3334171   7.877   0.836   0.999 -0.0834  0.2459  0.3397
  170MOL   Cl3434172   7.846   0.720   1.118  0.0089  0.0423 -0.0606
  170MOL    C3534173   7.965   0.935   1.022  0.1153 -0.5141  0.0723
  170MOL    C3634174   8.054   0.941   1.142  0.1644  0.0800  0.0657
  170MOL    H3734175   7.823   0.711   0.838  1.7021  1.1250  0.2886
  170MOL    H3834176   7.868   0.871   0.797  1.3924 -0.7006 -0.3749
  170MOL    H3934177   7.978   1.017   0.952 -1.6032  1.6448  2.2217
  170MOL    H4034178   7.995   0.977   1.227 -1.2629  0.8921 -1.2269
  170MOL    H4134179   8.087   0.841   1.169  0.0235  0.3152  1.1190
  170MOL    C4234180   8.185   1.020   1.116 -0.4856  0.2615  0.2611
  170MOL    C4334181   8.283   1.013   1.227 -0.8293 -0.3386 -0.2471
  170MOL   Cl4434182   8.253   1.133   1.338  0.0317  0.4695 -0.4039
  170MOL    C4534183   8.385   0.922   1.262 -0.1703  0.7992 -0.0088
  170MOL    C4634184   0.006   0.809   1.167  0.4440 -0.3316 -0.5547
  170MOL    H4734185   8.225   0.969   1.027  0.2880 -2.1189  1.9240
  170MOL    H4834186   8.162   1.122   1.085 -1.6245  0.4695  1.7571
  170MOL    H4934187   0.020   0.924   1.354 -1.3913  0.6696  0.7444
  170MOL    H5034188   8.343   0.743   1.145 -0.2654 -0.0937  1.2804
  170MOL    H5134189   0.031   0.861   1.075  0.4052  0.4633 -0.1247
  170MOL    C5234190   0.141   0.739   1.208  0.2053  0.1993 -0.1823
  170MOL    C5334191   0.117   0.656   1.332 -0.3237  0.2198 -0.3672
  170MOL   Cl5434192   0.201   0.715   1.471  0.0386 -0.4179  0.0799
  170MOL    C5534193   0.043   0.543   1.330  0.2920  0.8382 -0.3432
  170MOL    C5634194   0.009   0.456   1.451 -0.0723 -0.2930 -0.0350
  170MOL    H5734195   0.192   0.684   1.129 -0.8781 -0.5213 -0.3922
  170MOL    H5834196   0.213   0.816   1.235  0.6065 -0.7911  1.6830
  170MOL    H5934197   0.001   0.522   1.233 -3.1991 -0.7785  1.3969
  170MOL    H6034198   0.073   0.368   1.448  0.3354  0.0099 -0.4701
  170MOL    H6134199   0.017   0.514   1.543 -0.9306  0.9042 -0.6977
  170MOL    C6234200   8.286   0.400   1.449 -0.4244 -0.8200  0.0066
  170MOL    C6334201   8.181   0.511   1.437 -0.0870 -0.1223  0.4300
  170MOL   Cl6434202   8.130   0.523   1.276 -0.3231 -0.0789  0.3240
  170MOL    C6534203   8.134   0.588   1.538  0.2636 -0.3765  0.3114
  170MOL    C6634204   8.014   0.678   1.529 -0.3353  0.1202  0.2957
  170MOL    H6734205   8.276   0.333   1.363  0.4254 -0.6124 -0.2591
  170MOL    H6834206   8.279   0.339   1.539  1.2112 -2.7394 -1.1402
  170MOL    H6934207   8.180   0.581   1.636 -3.0290  0.1286  1.9850
  170MOL    H7034208   7.967   0.659   1.626  0.5858  2.1373  1.1621
  170MOL    H7134209   7.939   0.643   1.458  2.1329 -0.2027 -2.2321
  170MOL    C7234210   8.048   0.821   1.503  0.2485 -1.0346 -0.6982
  170MOL    C7334211   8.128   0.896   1.607 -0.3791  0.0107 -0.1262
  170MOL   Cl7434212   8.036   1.029   1.676  0.0597  0.3021 -0.3536
  170MOL    C7534213   8.251   0.869   1.656  0.5846  0.2325 -0.1400
  170MOL    C7634214   8.320   0.943   1.761  1.1397 -0.2779 -0.3756
  170MOL    H7734215   7.953   0.871   1.484 -0.2461 -1.8435 -0.3698
  170MOL    H7834216   8.106   0.826   1.411  2.4042  0.0561  0.6777
  170MOL    H7934217   8.297   0.787   1.603 -1.3108 -0.4363 -0.7913
  170MOL    H8034218   8.247   0.937   1.842 -0.6072  0.3319 -1.8836
  170MOL    H8134219   8.322   1.042   1.717  1.5326 -0.3246 -0.4610
  170MOL    C8234220   0.033   0.891   1.812  0.0748 -0.3078  0.2346
  170MOL    C8334221   0.081   0.963   1.930 -0.0999  0.1063  0.7605
  170MOL   Cl8434222   0.154   0.862   2.053 -0.1629 -0.1511  0.1283
  170MOL    C8534223   0.080   1.096   1.945 -0.0677  0.0450  0.8219
  170MOL    C8634224   0.136   1.183   2.059 -0.1529  0.6062  0.0878
  170MOL    H8734225   0.101   0.897   1.727 -1.6226 -0.2411 -1.1726
  170MOL    H8834226   0.035   0.783   1.824  1.7274 -0.1634  1.3735
  170MOL    H8934227   0.041   1.145   1.857 -0.4263 -0.6125  0.6122
  170MOL    H9034228   0.047   1.231   2.100 -0.6975  3.5435 -4.1448
  170MOL    H9134229   0.163   1.123   2.146 -0.7223  1.3981  0.8233
  170MOL    C9234230   0.237   1.286   2.014  0.0653  0.2722  0.1419
  170MOL    C9334231   0.186   1.425   2.057 -0.6359  0.2820 -0.2130
  170MOL   Cl9434232   0.120   1.507   1.914 -0.1092  0.1695  0.1112
  170MOL    C9534233   0.200   1.483   2.178 -0.0967 -0.1499  0.2903
  170MOL    C9634234   0.261   1.420   2.305 -1.4933  0.1282 -0.4365
  170MOL    H9734235   0.263   1.277   1.909  1.2606 -0.6155  0.5009
  170MOL    H9834236   0.334   1.280   2.064  1.0439  2.1667 -1.5002
  170MOL    H9934237   0.158   1.583   2.185 -0.4036 -0.1871 -0.8601
  170MOL   H10034238   0.298   1.318   2.292  1.0607  1.0671 -0.9326
  170MOL   H10134239   0.348   1.485   2.319 -1.3045 -0.0299 -0.8734
  170MOL   C10234240   0.160   1.441   2.424 -0.5323  0.6806 -0.2807
  170MOL   C10334241   0.210   1.414   2.562  0.7048 -0.5311 -1.0453
  170MOL  Cl10434242   0.087   1.361   2.674 -0.1770 -0.1629 -0.0381
  170MOL   C10534243   0.339   1.419   2.600  0.1308 -0.3910 -0.4097
  170MOL   C10634244   0.397   1.384   2.740  0.1120  0.3828  0.1188
  170MOL   H10734245   0.119   1.542   2.423 -2.1357  0.0440 -3.0877
  170MOL   H10834246   0.076   1.372   2.417  0.3675 -0.3667 -0.9711
  170MOL   H10934247   0.416   1.439   2.526 -0.2157 -0.3599 -0.7651
  170MOL   H11034248   0.320   1.337   2.801 -0.6706 -0.1563 -1.2489
  170MOL   H11134249   0.467   1.303   2.721 -1.3557 -0.8683 -0.1027
  170MOL   C11234250   0.482   1.484   2.811 -0.2792 -0.8853 -0.1473
  170MOL   C11334251   0.598   1.432   2.900 -0.3247  0.3300  0.2155
  170MOL  Cl11434252   0.527   1.341   3.031  0.0841 -0.2785 -0.1280
  170MOL   C11534253   0.729   1.436   2.873 -0.9047 -0.0060 -0.4054
  170MOL   C11634254   0.804   1.497   2.749 -0.0727  0.0263 -0.0895
  170MOL   H11734255   0.526   1.548   2.735 -0.0477 -1.6145 -0.6389
  170MOL   H11834256   0.421   1.549   2.873 -0.1648 -0.2017 -0.7544
  170MOL   H11934257   0.794   1.395   2.949 -1.4288 -2.1021 -1.0511
  170MOL   H12034258   0.904   1.532   2.773 -1.0703  1.9634  1.3526
  170MOL   H12134259   0.750   1.580   2.703 -0.5219  0.7642  1.7256
  170MOL   C12234260   0.816   1.385   2.649 -0.4879 -0.4743  0.6159
  170MOL   C12334261   0.848   1.441   2.510  0.3800  0.0420  0.2400
  170MOL  Cl12434262   0.701   1.453   2.416 -0.1361 -0.1607  0.2070
  170MOL   C12534263   0.968   1.489   2.470  0.5618  0.9713  0.3201
  170MOL   C12634264   1.106   1.494   2.540  0.2739 -0.6605 -0.2793
  170MOL   H12734265   0.887   1.304   2.666  2.3889  1.6019 -0.8649
  170MOL   H12834266   0.724   1.327   2.646 -0.1902 -0.9346  0.3259
  170MOL   H12934267   0.972   1.526   2.368  0.1677 -0.4599 -0.2257
  170MOL   H13034268   1.098   1.480   2.647  1.2754  0.4941 -0.0374
  170MOL   H13134269   1.166   1.421   2.487 -0.1205 -1.6441  0.6233
  170MOL   C13234270   1.172   1.631   2.532 -0.6163  0.3695 -0.3684
  170MOL   C13334271   1.111   1.736   2.631  0.4306 -0.5941 -0.1435
  170MOL  Cl13434272   1.184   1.738   2.782 -0.4539  0.2988 -0.1104
  170MOL   C13534273   1.015   1.823   2.589 -0.0071  0.2199  0.0279
  170MOL   C13634274   0.942   1.837   2.455  1.0054 -0.5673  0.3073
  170MOL   H13734275   1.277   1.615   2.559 -0.4044 -1.7570 -2.2659
  170MOL   H13834276   1.169   1.684   2.438 -0.3697  1.5723  0.2918
  170MOL   H13934277   0.995   1.900   2.663 -1.0810 -1.7287  1.8427
  170MOL   H14034278   0.982   1.929   2.411 -0.4408 -0.6099 -1.1639
  170MOL   H14134279   0.969   1.759   2.384  0.9661  1.3161 -1.8536
  170MOL   C14234280   0.788   1.858   2.471  0.2447  1.0136  0.5683
  170MOL   C14334281   0.727   1.868   2.336 -0.2370 -0.2706 -0.3908
  170MOL  Cl14434282   0.757   2.027   2.264 -0.4610  0.4253  0.3443
  170MOL   C14534283   0.657   1.770   2.278 -0.2832  0.2854 -1.0274
  170MOL   C14634284   0.598   1.775   2.143 -0.0714 -0.0338 -0.0456
  170MOL   H14734285   0.761   1.933   2.544  1.2769  0.7503  1.2187
  170MOL   H14834286   0.751   1.769   2.522  1.8316 -0.1306 -0.2062
  170MOL   H14934287   0.642   1.681   2.338  0.8558  0.7869  0.0236
  170MOL   H15034288   0.588   1.878   2.108  0.3742 -0.9128 -2.9086
  170MOL   H15134289   0.672   1.730   2.077 -0.0219 -0.2896  0.1840
  170MOL   C15234290   0.457   1.718   2.133 -0.1148 -1.0400 -0.0147
  170MOL   C15334291   0.421   1.734   1.990 -0.2595  0.6085  0.3947
  170MOL  Cl15434292   0.302   1.863   1.956 -0.0140  0.1509  0.0642
  170MOL   C15534293   0.471   1.656   1.895  0.9437 -0.6691 -0.4690
  170MOL   C15634294   0.425   1.651   1.752 -0.4043  0.3555  0.1550
  170MOL   H15734295   0.465   1.615   2.168  2.2665 -1.1175 -0.7131
  170MOL   H15834296   0.396   1.779   2.199  0.1508 -0.0824 -0.6461
  170MOL   H15934297   0.550   1.587   1.919  0.0003 -0.6479  2.9705
  170MOL   H16034298   0.345   1.722   1.730 -1.5299 -0.9821 -0.1275
  170MOL   H16134299   0.375   1.557   1.731 -0.8565  0.7750 -0.6860
  170MOL   C16234300   0.541   1.668   1.653  0.5454  0.1217 -0.0431
  170MOL   C16334301   0.508   1.595   1.518 -0.0925  0.1254  0.0996
  170MOL  Cl16434302   0.497   1.709   1.382  0.2703  0.0170  0.2783
  170MOL   C16534303   0.482   1.463   1.504  0.1072  0.2666  0.1050
  170MOL   C16634304   0.468   1.393   1.364  0.1750 -0.6182 -0.3788
  170MOL   H16734305   0.557   1.774   1.637 -0.1074  0.2606  0.2198
  170MOL   H16834306   0.630   1.627   1.700 -0.0230  1.5097  2.2868
  170MOL   H16934307   0.474   1.403   1.593 -3.3685  0.3785 -0.0899
  170MOL   H17034308   0.364   1.388   1.332 -0.1922  1.1489  0.4484
  170MOL   H17134309   0.522   1.453   1.291 -1.0131 -0.6406 -1.2872
  170MOL   C17234310   0.530   1.253   1.375 -0.1222  0.0187  0.0293
  170MOL   C17334311   0.531   1.178   1.240  0.2673 -0.0856 -0.3918
  170MOL  Cl17434312   0.497   1.012   1.272  0.2988 -0.0793  0.3928
  170MOL   C17534313   0.559   1.229   1.120 -0.4245  0.3019  0.9720
  170MOL   C17634314   0.570   1.142   1.000 -0.2820  0.3873 -0.1130
  170MOL   H17734315   0.467   1.200   1.445 -0.2681  0.5634  0.3139
  170MOL   H17834316   0.636   1.257   1.400  0.3762  2.8941 -2.1490
  170MOL   H17934317   0.584   1.334   1.123 -0.8235  0.3950  1.1412
  170MOL   H18034318   0.500   1.060   1.012 -2.3674  2.1083 -0.2170
  170MOL   H18134319   0.669   1.096   0.998  0.1296  0.9977  3.4087
  170MOL   C18234320   0.552   1.218   0.867  0.6188 -0.1697 -0.6762
  170MOL   C18334321   0.541   1.135   0.739  0.4537  0.5540  0.3761
  170MOL  Cl18434322   0.652   1.012   0.726  0.2956 -0.3547  0.2248
  170MOL   C18534323   0.451   1.161   0.642  0.8100  0.9178 -0.4147
  170MOL   C18634324   0.433   1.077   0.516  0.1855  0.5716  0.4454
  170MOL   H18734325   0.462   1.280   0.872 -0.4271 -1.7698  0.8080
  170MOL   H18834326   0.642   1.277   0.853  0.9731 -0.6383 -0.3730
  170MOL   H18934327   0.378   1.240   0.654 -0.7018 -0.6395  0.9731
  170MOL   H19034328   0.495   0.987   0.516 -2.8538 -1.6137  2.1451
  170MOL   H19134329   0.333   1.034   0.526  0.3563  0.7561  3.2859
  170MOL   C19234330   0.436   1.161   0.385  0.6053 -0.4783  0.1104
  170MOL   C19334331   0.393   1.071   0.272 -0.0350  0.4556 -0.3172
  170MOL  Cl19434332   0.525   1.026   0.173  0.3278  0.0183 -0.3559
  170MOL   C19534333   0.267   1.035   0.245  0.0244  0.0652  0.5253
  170MOL   C19634334   0.135   1.074   0.308 -0.1377  0.1530  0.0571
  170MOL   H19734335   0.531   1.210   0.364 -0.7415  1.8156 -0.8400
  170MOL   H19834336   0.366   1.243   0.401 -1.1890 -2.4037  2.4871
  170MOL   H19934337   0.247   0.963   0.166  1.0751  1.3652 -0.9452
  170MOL   H20034338   0.144   1.165   0.367  1.7248  0.1725 -0.2246
  170MOL   H20134339   0.097   0.994   0.372  0.6508 -1.6128 -1.6434
  170MOL   H20234340   0.063   1.086   0.226 -1.3454 -1.0523  0.9147
  171MOL     C134341   2.713   1.809   3.317 -0.0795 -0.4833 -0.2979
  171MOL     C234342   2.844   1.751   3.357 -0.0679  0.4000 -0.0437
  171MOL    Cl334343   2.935   1.706   3.218  0.2195 -0.3075  0.3142
  171MOL     C434344   2.907   1.748   3.479 -0.6374  0.0976 -0.4508
  171MOL     C534345   2.836   1.779   3.611  0.2887 -0.1567 -0.0678
  171MOL     H634346   2.720   1.870   3.227 -1.6349  0.4586  0.1887
  171MOL     H734347   2.667   1.870   3.395  0.6163  0.2198 -0.4378
  171MOL     H834348   3.007   1.707   3.487  0.1817  2.5670  2.9823
  171MOL     H934349   2.740   1.824   3.584  0.5228 -2.1272 -4.6923
  171MOL    H1034350   2.825   1.683   3.660  1.4188  0.2400  0.9783
  171MOL    H1134351   2.631   1.739   3.300 -2.1971  1.5901  1.0579
  171MOL    C1234352   2.915   1.877   3.701  0.2390  0.1685  0.0245
  171MOL    C1334353   2.867   1.875   3.841  0.5657  0.2738  0.1570
  171MOL   Cl1434354   2.988   1.820   3.952  0.3705 -0.0995 -0.4317
  171MOL    C1534355   2.751   1.918   3.888  0.2845  0.4928  0.2282
  171MOL    C1634356   2.629   1.979   3.816  0.0045  0.5529  0.2527
  171MOL    H1734357   3.018   1.841   3.702 -0.5565 -2.2388  1.3951
  171MOL    H1834358   2.915   1.976   3.655  1.6073 -0.1426 -0.6788
  171MOL    H1934359   2.741   1.907   3.995  1.0589 -0.6549  0.1846
  171MOL    H2034360   2.600   2.080   3.846 -3.1430 -0.7945  2.0460
  171MOL    H2134361   2.649   1.977   3.708  2.0956  0.5555  0.6188
  171MOL    C2234362   2.511   1.890   3.842  0.2145 -0.4567 -0.0684
  171MOL    C2334363   2.385   1.946   3.777  0.5133  0.5050 -0.0746
  171MOL   Cl2434364   2.360   1.855   3.625 -0.2987 -0.0353  0.2910
  171MOL    C2534365   2.304   2.037   3.837  0.1495 -0.0026 -0.3144
  171MOL    C2634366   2.179   2.090   3.780 -0.2454  0.7545 -0.5312
  171MOL    H2734367   2.536   1.793   3.799 -2.4335 -0.8936 -0.7501
  171MOL    H2834368   2.483   1.885   3.947 -0.7797  0.9982 -0.2487
  171MOL    H2934369   2.340   2.074   3.931  2.8065 -0.5460 -1.0845
  171MOL    H3034370   2.171   2.054   3.677 -1.2489 -2.2037  0.5248
  171MOL    H3134371   2.100   2.039   3.835 -0.4980  1.6238 -0.0749
  171MOL    C3234372   2.179   2.243   3.784 -0.1318 -0.2517 -0.5012
  171MOL    C3334373   2.069   2.313   3.705  0.0905  0.4516  0.5149
  171MOL   Cl3434374   2.120   2.469   3.660 -0.0572  0.4254  0.1973
  171MOL    C3534375   1.950   2.255   3.678  0.2749 -0.8081  0.2864
  171MOL    C3634376   1.832   2.327   3.620 -0.3391 -0.8523  0.6973
  171MOL    H3734377   2.182   2.271   3.889 -1.4288  0.7287 -0.7266
  171MOL    H3834378   2.271   2.286   3.743 -0.3999  1.4913  0.7149
  171MOL    H3934379   1.933   2.152   3.707  0.6742 -1.4345 -1.6167
  171MOL    H4034380   1.854   2.426   3.582 -2.1804 -0.4544  0.6363
  171MOL    H4134381   1.783   2.268   3.542 -1.0933 -1.7602  1.8362
  171MOL    C4234382   1.716   2.344   3.719 -0.3935  0.0966 -0.1464
  171MOL    C4334383   1.656   2.218   3.780 -0.4831  0.1534  0.4205
  171MOL   Cl4434384   1.536   2.141   3.677 -0.0543  0.1889 -0.1442
  171MOL    C4534385   1.668   2.180   3.908  0.3198  0.4386  0.6184
  171MOL    C4634386   1.759   2.244   4.016 -0.3160  0.3523  0.4311
  171MOL    H4734387   1.730   2.423   3.793 -1.7393  1.0780 -0.8987
  171MOL    H4834388   1.631   2.380   3.660  0.9815  1.8354 -1.1186
  171MOL    H4934389   1.620   2.091   3.947 -0.4098  1.2818  1.6884
  171MOL    H5034390   1.820   2.323   3.971  1.2911 -0.1075  1.7646
  171MOL    H5134391   1.707   2.298   4.096  2.3749  3.8777 -0.0570
  171MOL    C5234392   1.847   2.137   4.078 -0.0673  0.4427  0.5081
  171MOL    C5334393   1.944   2.181   4.188  0.0423 -1.2955 -0.1558
  171MOL   Cl5434394   1.999   2.050   4.288  0.3835 -0.4688 -0.1452
  171MOL    C5534395   2.012   2.300   4.194  0.5502 -0.3393 -0.0700
  171MOL    C5634396   2.122   2.336   4.288 -0.8987  0.0517  0.6259
  171MOL    H5734397   1.782   2.060   4.120  0.5555 -0.8512 -0.8532
  171MOL    H5834398   1.901   2.081   4.002 -0.7515 -0.2085  0.5015
  171MOL    H5934399   1.992   2.372   4.117  3.6549 -0.4855 -1.1015
  171MOL    H6034400   2.090   2.431   4.331 -3.3206 -0.8630  0.9157
  171MOL    H6134401   2.129   2.263   4.369 -0.4449 -0.1827  0.3777
  171MOL    C6234402   2.258   2.355   4.222  0.2240  0.1120 -0.4034
  171MOL    C6334403   2.379   2.353   4.318 -0.0935 -0.3877 -0.0921
  171MOL   Cl6434404   2.462   2.199   4.328  0.1595  0.0425  0.1745
  171MOL    C6534405   2.417   2.467   4.388 -0.7385  0.2261 -0.2849
  171MOL    C6634406   2.533   2.468   4.485  0.7229 -0.1685  0.2053
  171MOL    H6734407   2.269   2.267   4.160  3.3052  1.1137 -1.4166
  171MOL    H6834408   2.259   2.442   4.157  2.8498  1.8211  1.7859
  171MOL    H6934409   2.361   2.558   4.374 -1.7429 -0.2845  0.3820
  171MOL    H7034410   2.602   2.389   4.455 -0.3486 -0.8715 -0.4169
  171MOL    H7134411   2.507   2.425   4.582  1.3565  0.1519  0.5211
  171MOL    C7234412   2.603   2.601   4.514  0.4386 -0.3954  0.7490
  171MOL    C7334413   2.512   2.697   4.596  0.5851  0.5983  0.7894
  171MOL   Cl7434414   2.467   2.840   4.510  0.0724 -0.3452 -0.4109
  171MOL    C7534415   2.459   2.662   4.714 -0.4124  0.7682  0.0645
  171MOL    C7634416   2.372   2.751   4.802 -0.4124  0.0839 -0.1151
  171MOL    H7734417   2.635   2.652   4.423 -1.2364  0.8153  0.8112
  171MOL    H7834418   2.696   2.581   4.567  2.0022 -1.3313 -2.2816
  171MOL    H7934419   2.485   2.562   4.745 -2.4362 -0.4153 -1.8286
  171MOL    H8034420   2.377   2.854   4.767 -1.5261  0.6060  1.1836
  171MOL    H8134421   2.424   2.771   4.895 -2.1686 -0.3548  0.9947
  171MOL    C8234422   2.230   2.696   4.825  0.2740 -0.6427 -0.0424
  171MOL    C8334423   2.153   2.753   4.943 -0.2506  0.4652  1.4050
  171MOL   Cl8434424   2.131   2.629   5.062 -0.3304  0.3622  0.0888
  171MOL    C8534425   2.089   2.868   4.955 -0.0574  0.0288  0.1043
  171MOL    C8634426   1.993   2.915   5.059 -0.2004 -0.3759  0.2271
  171MOL    H8734427   2.230   2.587   4.835 -0.4921 -0.3696  3.5913
  171MOL    H8834428   2.166   2.704   4.737  0.7653 -0.2540 -0.3636
  171MOL    H8934429   2.100   2.934   4.869  0.7570  0.5639  0.6081
  171MOL    H9034430   1.910   2.930   4.991 -2.0269 -1.0834  2.2614
  171MOL    H9134431   1.958   2.835   5.124 -0.4766 -1.1613 -0.8865
  171MOL    C9234432   2.042   3.033   5.139  0.5821 -0.0280 -0.5644
  171MOL    C9334433   1.926   3.096   5.212  0.7347 -0.1827 -0.4790
  171MOL   Cl9434434   1.830   3.184   5.101 -0.2816  0.0158 -0.0761
  171MOL    C9534435   1.899   3.107   5.344  0.2990  0.2858 -0.7693
  171MOL    C9634436   1.981   3.040   5.456  0.1328 -0.2065 -0.5536
  171MOL    H9734437   2.087   3.105   5.070  3.1805 -2.5443 -1.6049
  171MOL    H9834438   2.110   2.997   5.216 -0.8082  0.4213  0.8805
  171MOL    H9934439   1.820   3.170   5.382  0.8507  0.2141  0.5321
  171MOL   H10034440   2.061   2.976   5.419 -0.0901 -0.1724 -1.1015
  171MOL   H10134441   2.030   3.128   5.497 -0.1492 -0.3430  0.0869
  171MOL   C10234442   1.890   2.968   5.551  0.0844  0.9031 -0.3139
  171MOL   C10334443   1.785   2.884   5.487  0.1613 -0.6389  0.3222
  171MOL  Cl10434444   1.633   2.911   5.566  0.0227 -0.4376  0.4687
  171MOL   C10534445   1.799   2.805   5.378 -0.1283 -0.6226  0.7229
  171MOL   C10634446   1.678   2.741   5.308  0.1746  0.2329  0.2101
  171MOL   H10734447   1.950   2.906   5.617 -1.2198  0.5442  0.5509
  171MOL   H10834448   1.842   3.044   5.613 -1.4857 -0.6176  0.3797
  171MOL   H10934449   1.897   2.793   5.334  0.1466  2.2646  0.4629
  171MOL   H11034450   1.634   2.661   5.368 -2.2381 -0.4226 -2.3086
  171MOL   H11134451   1.593   2.810   5.305  1.0268  1.2493 -1.3422
  171MOL   C11234452   1.709   2.703   5.159  0.2148  0.1288  0.0028
  171MOL   C11334453   1.613   2.602   5.100  0.0727 -0.0753 -0.2597
  171MOL  Cl11434454   1.669   2.436   5.101  0.1221  0.2468  0.2489
  171MOL   C11534455   1.488   2.635   5.056  0.2562 -0.2943  0.2696
  171MOL   C11634456   1.437   2.775   5.035 -0.6039 -0.5006  0.2862
  171MOL   H11734457   1.711   2.787   5.089  2.4098  0.6427  0.6383
  171MOL   H11834458   1.814   2.675   5.150  0.8575  1.5943  2.4474
  171MOL   H11934459   1.421   2.556   5.025 -0.5992  0.0174  1.2646
  171MOL   H12034460   1.504   2.856   5.065 -1.4713  0.1062  0.6054
  171MOL   H12134461   1.354   2.787   5.105 -1.5974  3.3639 -1.3688
  171MOL   C12234462   1.394   2.810   4.895 -0.5959  0.7820 -0.1679
  171MOL   C12334463   1.373   2.954   4.892  0.0328  0.0890 -0.4894
  171MOL  Cl12434464   1.516   3.039   4.865  0.0891 -0.0912  0.4115
  171MOL   C12534465   1.248   3.015   4.885  0.0483 -0.3523  0.8653
  171MOL   C12634466   1.109   2.947   4.892  0.2135 -0.4926 -0.1466
  171MOL   H12734467   1.459   2.776   4.814  0.7146  0.0209  1.1589
  171MOL   H12834468   1.306   2.750   4.872 -0.0424  0.3294 -1.1408
  171MOL   H12934469   1.264   3.120   4.866 -2.1325  0.2210  2.0828
  171MOL   H13034470   1.074   2.929   4.791  0.3100 -2.9320  0.2390
  171MOL   H13134471   1.117   2.841   4.915 -1.1052 -0.2195  1.6879
  171MOL   C13234472   1.004   3.013   4.980  0.6877  0.7292  0.2674
  171MOL   C13334473   1.015   2.952   5.121 -0.8081  0.2717  0.4675
  171MOL  Cl13434474   0.890   2.834   5.150  0.3206  0.2634  0.1227
  171MOL   C13534475   1.086   2.998   5.227 -0.5402  0.5695 -0.0342
  171MOL   C13634476   1.191   3.110   5.225 -0.0411  0.1517  0.2499
  171MOL   H13734477   1.006   3.122   4.980  2.7714  0.7093 -1.1172
  171MOL   H13834478   0.909   2.996   4.928  1.4569 -0.1038 -0.9076
  171MOL   H13934479   1.079   2.947   5.321  1.7644  0.8380  0.3120
  171MOL   H14034480   1.206   3.136   5.120  0.6146  2.1019  0.8183
  171MOL   H14134481   1.164   3.199   5.282  2.8078  1.9384 -1.0877
  171MOL   C14234482   1.328   3.065   5.286 -0.7303 -0.6502  0.1255
  171MOL   C14334483   1.424   3.185   5.314  0.2527  1.2178 -0.2303
  171MOL  Cl14434484   1.470   3.274   5.176 -0.1637  0.1746  0.5286
  171MOL   C14534485   1.460   3.223   5.439  0.7551  0.0348  0.3766
  171MOL   C14634486   1.558   3.333   5.468 -0.0498 -0.3322  0.3023
  171MOL   H14734487   1.382   2.988   5.232 -0.2673 -0.0812 -0.2349
  171MOL   H14834488   1.313   3.023   5.385  1.0232 -1.7059 -0.0313
  171MOL   H14934489   1.417   3.166   5.521 -1.7176 -1.9789 -2.1871
  171MOL   H15034490   1.635   3.335   5.392 -1.0524  0.0014 -0.7276
  171MOL   H15134491   1.515   3.434   5.471  0.2576 -0.2128  0.8901
  171MOL   C15234492   1.621   3.318   5.610  1.3855  0.0829 -0.2413
  171MOL   C15334493   1.713   3.430   5.659  0.5673  1.0397 -0.7470
  171MOL  Cl15434494   1.860   3.374   5.720 -0.1466 -0.2289  0.0533
  171MOL   C15534495   1.683   3.559   5.667 -0.1142 -0.3912 -0.1342
  171MOL   C15634496   1.757   3.679   5.727  0.0415  0.3397 -0.7270
  171MOL   H15734497   1.544   3.305   5.687  1.4146  1.3505  0.0121
  171MOL   H15834498   1.666   3.219   5.616 -0.7746 -0.9284  0.1039
  171MOL   H15934499   1.587   3.583   5.623  0.0457 -0.0933 -0.3222
  171MOL   H16034500   1.830   3.644   5.801 -0.1609 -0.0831 -0.7264
  171MOL   H16134501   1.684   3.722   5.795 -0.1781  0.7037 -1.1950
  171MOL   C16234502   1.823   3.778   5.623  0.7486  0.7064  0.7510
  171MOL   C16334503   1.902   3.703   5.511  0.3431  0.1798  0.8507
  171MOL  Cl16434504   1.802   3.682   5.365  0.2385 -0.8857  0.2207
  171MOL   C16534505   2.031   3.667   5.520 -0.8981 -0.2363 -0.4104
  171MOL   C16634506   2.112   3.596   5.411  0.2944  0.3723 -0.5575
  171MOL   H16734507   1.751   3.849   5.583 -0.5228  0.1948  2.0966
  171MOL   H16834508   1.895   3.840   5.677 -0.8572  1.4985  2.0273
  171MOL   H16934509   2.077   3.677   5.617 -2.6042 -0.8794  0.4888
  171MOL   H17034510   2.081   3.635   5.314 -1.2612 -1.0358 -0.6518
  171MOL   H17134511   2.218   3.621   5.418 -0.4283  3.7287 -0.6043
  171MOL   C17234512   2.080   3.442   5.403  0.6428 -0.3527  0.1549
  171MOL   C17334513   2.166   3.359   5.313 -0.8195 -0.7463 -0.4207
  171MOL  Cl17434514   2.126   3.406   5.155 -0.2226  0.0709 -0.0621
  171MOL   C17534515   2.255   3.263   5.352  0.4381  0.0897 -0.7132
  171MOL   C17634516   2.343   3.185   5.264 -0.3409  0.4409  0.0636
  171MOL   H17734517   1.979   3.429   5.366  0.8857 -1.8789 -0.0243
  171MOL   H17834518   2.066   3.400   5.502  3.9631  0.1614  0.9266
  171MOL   H17934519   2.271   3.246   5.457  2.2834 -3.4941 -1.5149
  171MOL   H18034520   2.430   3.243   5.235 -0.4064  0.4733 -0.0687
  171MOL   H18134521   2.295   3.158   5.170 -4.0057 -0.3736  2.0402
  171MOL   C18234522   2.389   3.060   5.341  0.0724  0.6057  0.6239
  171MOL   C18334523   2.474   2.969   5.253  0.0086  0.0464 -0.4084
  171MOL  Cl18434524   2.377   2.853   5.177  0.1740 -0.0120  0.1410
  171MOL   C18534525   2.612   2.974   5.244 -0.3936 -0.0778 -0.2965
  171MOL   C18634526   2.700   2.879   5.156 -0.2245 -0.2238 -0.3403
  171MOL   H18734527   2.447   3.092   5.428  1.4638 -1.0814  0.3412
  171MOL   H18834528   2.305   3.013   5.393 -0.6113 -0.9245 -1.7665
  171MOL   H18934529   2.672   3.044   5.301 -0.4944 -0.2347  0.0021
  171MOL   H19034530   2.755   2.811   5.221  1.5871  0.2427 -1.3583
  171MOL   H19134531   2.632   2.814   5.100  1.6418  0.3400 -3.3706
  171MOL   C19234532   2.790   2.953   5.052 -0.7181 -0.3371  0.6093
  171MOL   C19334533   2.924   3.003   5.113  0.1852 -0.3371  0.4198
  171MOL  Cl19434534   2.912   3.161   5.171 -0.5678 -0.2638 -0.1516
  171MOL   C19534535   3.042   2.934   5.107  0.3493 -0.4233  0.4528
  171MOL   C19634536   3.054   2.787   5.068  0.2087 -0.6616  0.0540
  171MOL   H19734537   2.737   3.029   4.994  1.2920  0.5799 -0.0824
  171MOL   H19834538   2.822   2.872   4.985  0.6153 -0.5075  1.4402
  171MOL   H19934539   3.134   2.984   5.133 -0.3464  1.0646  0.1253
  171MOL   H20034540   3.102   2.773   4.971 -0.6579 -0.1287 -0.4594
  171MOL   H20134541   2.952   2.749   5.060  0.2687 -0.7252 -0.4307
  171MOL   H20234542   3.101   2.734   5.151  1.2816  1.6872  1.0151
  172MOL     C134543   2.104   3.390   4.098 -0.1375  0.4627  0.0903
  172MOL     C234544   2.171   3.520   4.066 -0.4541 -0.5178 -0.3898
  172MOL    Cl334545   2.309   3.565   4.164 -0.1744 -0.4805  0.2219
  172MOL     C434546   2.139   3.594   3.963  0.5953  0.0484  0.8188
  172MOL     C534547   2.024   3.555   3.860 -0.4834 -0.6263  0.2107
  172MOL     H634548   2.119   3.308   4.027  1.9983  0.7013  0.2098
  172MOL     H734549   1.999   3.417   4.106 -0.3052 -0.1518 -0.0195
  172MOL     H834550   2.193   3.684   3.939  0.2026 -0.6836 -3.0969
  172MOL     H934551   1.973   3.464   3.892 -0.1422 -1.1612 -0.7296
  172MOL    H1034552   1.955   3.637   3.879 -0.8432 -1.1572  1.2239
  172MOL    H1134553   2.135   3.356   4.197  0.5099  0.1738 -0.2051
  172MOL    C1234554   2.079   3.550   3.720 -0.2746  0.2455  0.1794
  172MOL    C1334555   2.002   3.456   3.628 -0.2904 -0.2490  0.0580
  172MOL   Cl1434556   2.018   3.286   3.674 -0.0302  0.1634  0.3871
  172MOL    C1534557   1.916   3.489   3.526 -0.3436 -0.1911 -0.1274
  172MOL    C1634558   1.896   3.626   3.467  0.2345 -0.0843  0.1680
  172MOL    H1734559   2.067   3.649   3.676  1.7288  0.9809  1.2296
  172MOL    H1834560   2.185   3.528   3.711 -0.3941 -0.6717  0.9543
  172MOL    H1934561   1.864   3.409   3.475 -0.5273  0.6496 -1.2755
  172MOL    H2034562   1.899   3.704   3.543 -4.0106  2.2716 -1.9235
  172MOL    H2134563   1.988   3.642   3.411 -0.7545  1.8701 -0.9491
  172MOL    C2234564   1.768   3.652   3.376  0.3004  0.1677  0.3613
  172MOL    C2334565   1.742   3.554   3.262 -0.7766  0.3703  0.3280
  172MOL   Cl2434566   1.837   3.570   3.116  0.4359  0.2949  0.1464
  172MOL    C2534567   1.649   3.450   3.278 -0.3090  0.3422 -0.2535
  172MOL    C2634568   1.615   3.339   3.176 -0.2748 -0.5951 -0.2216
  172MOL    H2734569   1.673   3.661   3.428  0.6099  1.5680  0.7163
  172MOL    H2834570   1.785   3.756   3.345  1.0484  0.4620  1.7022
  172MOL    H2934571   1.599   3.459   3.374  2.1230 -1.4918  1.2471
  172MOL    H3034572   1.520   3.296   3.207  0.5441 -1.9204  0.4865
  172MOL    H3134573   1.606   3.401   3.086 -3.2143  1.3361  1.3177
  172MOL    C3234574   1.719   3.231   3.170  0.6254  0.0746 -0.2334
  172MOL    C3334575   1.705   3.137   3.053 -0.2670 -0.4446  0.3751
  172MOL   Cl3434576   1.681   2.975   3.096  0.1711 -0.3471 -0.2400
  172MOL    C3534577   1.714   3.179   2.923  0.6651 -0.2771 -0.6437
  172MOL    C3634578   1.685   3.088   2.806 -0.4822 -0.4787  0.2202
  172MOL    H3734579   1.817   3.278   3.161  0.7558  0.3498  2.2571
  172MOL    H3834580   1.721   3.169   3.260 -0.3308  3.0716  1.9354
  172MOL    H3934581   1.726   3.282   2.892  2.6637 -0.4953 -0.6174
  172MOL    H4034582   1.615   3.011   2.838 -0.9537  0.1315  0.6784
  172MOL    H4134583   1.635   3.136   2.722 -0.5035  0.8553  0.9618
  172MOL    C4234584   1.810   3.004   2.760  0.1270 -0.3540 -0.1721
  172MOL    C4334585   1.786   2.885   2.664 -0.0564  0.4068  0.2368
  172MOL   Cl4434586   1.622   2.850   2.615 -0.0891 -0.1887  0.2554
  172MOL    C4534587   1.880   2.806   2.608  0.4555 -0.2032  0.3670
  172MOL    C4634588   2.028   2.821   2.634 -0.4613 -0.1093 -0.2383
  172MOL    H4734589   1.887   3.067   2.716 -1.0930  1.1994 -0.1458
  172MOL    H4834590   1.862   2.957   2.843  2.7546  1.2138 -0.8861
  172MOL    H4934591   1.833   2.734   2.542 -0.7265 -0.3805  1.3855
  172MOL    H5034592   2.084   2.821   2.541 -1.4007 -0.7202 -0.8115
  172MOL    H5134593   2.050   2.918   2.679  1.3951  0.3033 -1.9664
  172MOL    C5234594   2.090   2.701   2.724  0.1925  0.1435  0.0288
  172MOL    C5334595   2.228   2.731   2.768 -0.4646  0.4562  0.4567
  172MOL   Cl5434596   2.251   2.747   2.940 -0.2093 -0.0199 -0.1404
  172MOL    C5534597   2.329   2.751   2.681 -0.2482 -0.0956 -0.4673
  172MOL    C5634598   2.477   2.780   2.718  0.5514 -0.7471 -0.1386
  172MOL    H5734599   2.022   2.686   2.808  0.1040  1.4646  0.2015
  172MOL    H5834600   2.082   2.610   2.665 -3.5896 -0.7375  1.7372
  172MOL    H5934601   2.304   2.757   2.576 -1.4538 -0.0448 -0.1792
  172MOL    H6034602   2.499   2.869   2.659  0.4409  1.2224  2.6900
  172MOL    H6134603   2.482   2.823   2.818 -2.7188 -0.3602 -0.0950
  172MOL    C6234604   2.580   2.675   2.674 -1.1201  0.3495 -0.4072
  172MOL    C6334605   2.726   2.726   2.652  0.0712  0.6401 -0.2661
  172MOL   Cl6434606   2.770   2.863   2.745  0.1453 -0.0701  0.0217
  172MOL    C6534607   2.798   2.666   2.559 -0.0294 -0.7620  0.4575
  172MOL    C6634608   2.928   2.712   2.514 -0.2904 -0.2444  0.2351
  172MOL    H6734609   2.580   2.591   2.743  1.6685 -0.8992 -1.8404
  172MOL    H6834610   2.536   2.639   2.580  1.3417 -0.8380 -1.1470
  172MOL    H6934611   2.761   2.586   2.497 -0.3057  1.0296 -1.7435
  172MOL    H7034612   3.003   2.633   2.506 -0.2469 -0.0502 -1.6366
  172MOL    H7134613   2.964   2.786   2.584  0.6388  0.8100 -1.3202
  172MOL    C7234614   2.920   2.787   2.375  0.3858 -0.3306  0.0844
  172MOL    C7334615   2.933   2.697   2.255  0.0629 -0.0222 -0.1910
  172MOL   Cl7434616   3.090   2.622   2.260  0.0578 -0.1350  0.2257
  172MOL    C7534617   2.847   2.679   2.153  0.3702  0.1097  0.2579
  172MOL    C7634618   2.861   2.577   2.043  0.2852  0.1875  0.3070
  172MOL    H7734619   3.009   2.849   2.369  0.2595 -0.3009 -1.8471
  172MOL    H7834620   2.830   2.848   2.371 -0.2572 -1.2829  0.0823
  172MOL    H7934621   2.752   2.731   2.158 -1.3530 -2.4684 -3.2600
  172MOL    H8034622   2.910   2.496   2.096 -0.1702 -1.2338 -1.3925
  172MOL    H8134623   2.932   2.618   1.971  1.7862  0.8737  2.1332
  172MOL    C8234624   2.723   2.522   1.987  0.2213 -0.9807 -0.6205
  172MOL    C8334625   2.739   2.405   1.899 -0.1735  0.5454  0.2514
  172MOL   Cl8434626   2.649   2.269   1.948 -0.0039  0.2389  0.0393
  172MOL    C8534627   2.804   2.415   1.780 -0.5206 -0.3236 -0.1128
  172MOL    C8634628   2.816   2.302   1.680  0.0674 -0.2307 -0.4035
  172MOL    H8734629   2.671   2.598   1.929  1.2273 -1.3414 -2.0162
  172MOL    H8834630   2.659   2.490   2.069 -0.0041  1.9161  0.3668
  172MOL    H8934631   2.848   2.510   1.755 -1.3414 -0.2127 -1.2069
  172MOL    H9034632   2.818   2.203   1.725  1.0575  0.1898  0.4964
  172MOL    H9134633   2.724   2.301   1.622 -1.7152 -1.2806  2.3468
  172MOL    C9234634   2.950   2.321   1.592  0.5841  0.5744 -1.2731
  172MOL    C9334635   2.969   2.214   1.485 -0.3216  0.4580 -0.3240
  172MOL   Cl9434636   2.897   2.260   1.333 -0.1681 -0.1452  0.3642
  172MOL    C9534637   3.032   2.095   1.492 -0.0642 -0.4244  0.1540
  172MOL    C9634638   3.113   2.042   1.606  0.0113  0.1411  0.0329
  172MOL    H9734639   3.039   2.311   1.654  0.7871  1.7596 -1.3583
  172MOL    H9834640   2.954   2.417   1.540  1.9156  1.3613  0.2362
  172MOL    H9934641   3.033   2.028   1.408  1.3724 -0.5663  0.2737
  172MOL   H10034642   3.111   2.112   1.689  1.6767 -0.9258  0.9866
  172MOL   H10134643   3.070   1.943   1.624 -0.4175  0.5909  1.5998
  172MOL   C10234644   3.261   2.033   1.560 -0.0048 -0.0353 -0.3243
  172MOL   C10334645   3.346   1.959   1.658 -0.2819  0.3327  0.6189
  172MOL  Cl10434646   3.425   2.057   1.779 -0.1669 -0.0946 -0.2913
  172MOL   C10534647   3.371   1.825   1.646 -1.0136  1.5513 -0.6500
  172MOL   C10634648   3.463   1.753   1.742 -0.3700  0.4238 -0.2507
  172MOL   H10734649   3.266   1.968   1.472  0.0855 -2.2577  1.2636
  172MOL   H10834650   3.308   2.124   1.524 -2.2606  0.5203 -1.9592
  172MOL   H10934651   3.328   1.761   1.571 -0.5671 -0.2949  0.6265
  172MOL   H11034652   3.552   1.715   1.692 -0.7735  0.2332 -0.8418
  172MOL   H11134653   3.483   1.821   1.824 -3.0463 -2.5630  3.0234
  172MOL   C11234654   3.396   1.626   1.794  0.4599  0.3423 -0.4745
  172MOL   C11334655   3.487   1.543   1.886  0.9173  0.3991  0.0581
  172MOL  Cl11434656   3.556   1.414   1.794 -0.1844 -0.1301 -0.0766
  172MOL   C11534657   3.497   1.547   2.018 -0.7317  0.4271 -0.0654
  172MOL   C11634658   3.427   1.647   2.113 -0.2565 -0.4120  0.9397
  172MOL   H11734659   3.307   1.665   1.842  1.2302  2.7490 -0.9062
  172MOL   H11834660   3.366   1.567   1.707 -0.4215 -0.9590  0.6874
  172MOL   H11934661   3.561   1.476   2.067 -2.4952  0.0918  1.8235
  172MOL   H12034662   3.342   1.610   2.170 -0.7238  0.1380  0.5917
  172MOL   H12134663   3.393   1.738   2.065 -0.4407  0.2497  2.3018
  172MOL   C12234664   3.532   1.701   2.211  0.2513 -0.0587 -0.3594
  172MOL   C12334665   3.485   1.823   2.289  0.3265 -0.3225  0.4320
  172MOL  Cl12434666   3.563   1.967   2.246  0.1284  0.4291 -0.1503
  172MOL   C12534667   3.408   1.816   2.398 -0.1989 -0.7900  0.6376
  172MOL   C12634668   3.339   1.689   2.453 -0.2127 -0.5095  0.5788
  172MOL   H12734669   3.555   1.617   2.277  2.6890  0.7279 -0.1808
  172MOL   H12834670   3.626   1.720   2.158  0.6869  1.2268  0.8668
  172MOL   H12934671   3.392   1.904   2.458  1.7910  0.3467 -0.4604
  172MOL   H13034672   3.404   1.602   2.442  0.4506  0.0842 -0.2160
  172MOL   H13134673   3.364   1.702   2.559  0.4650 -2.6156  0.7005
  172MOL   C13234674   3.185   1.675   2.416  1.1401 -0.3079  0.1505
  172MOL   C13334675   3.114   1.569   2.497  1.2641 -0.1003 -0.7583
  172MOL  Cl13434676   3.172   1.413   2.453  0.2758 -0.0522  0.4331
  172MOL   C13534677   2.998   1.581   2.571 -0.0886 -0.4948 -0.5462
  172MOL   C13634678   2.918   1.712   2.596 -0.1689  0.3243  0.8121
  172MOL   H13734679   3.142   1.769   2.450  1.5442  0.0797 -0.4157
  172MOL   H13834680   3.175   1.667   2.308 -2.4002  0.4376  0.3366
  172MOL   H13934681   2.962   1.491   2.620  0.6282 -0.9194 -0.7903
  172MOL   H14034682   2.858   1.706   2.687  0.5565  1.4410  1.3769
  172MOL   H14134683   2.995   1.789   2.602  1.6441 -1.2480 -1.5488
  172MOL   C14234684   2.831   1.744   2.469  0.4052  0.4247 -0.2090
  172MOL   C14334685   2.734   1.867   2.481  0.5104  0.0387  0.0615
  172MOL  Cl14434686   2.664   1.891   2.641 -0.6674  0.2405  0.2161
  172MOL   C14534687   2.677   1.945   2.389  0.1177 -0.3966  0.7987
  172MOL   C14634688   2.588   2.067   2.409 -0.5166 -0.1186  0.3697
  172MOL   H14734689   2.765   1.661   2.443 -1.1078 -0.3012  5.1760
  172MOL   H14834690   2.888   1.765   2.379  1.1563  0.8824  0.3687
  172MOL   H14934691   2.709   1.926   2.287 -0.6833 -1.9445  0.8294
  172MOL   H15034692   2.489   2.032   2.379 -0.2278 -0.3496 -0.3034
  172MOL   H15134693   2.578   2.093   2.515  0.8949  0.2350  0.4234
  172MOL   C15234694   2.627   2.192   2.325 -0.0133  0.1801 -0.6619
  172MOL   C15334695   2.509   2.286   2.330  0.8785  0.3648 -0.0772
  172MOL  Cl15434696   2.554   2.415   2.436 -0.4985 -0.1205  0.5164
  172MOL   C15534697   2.391   2.284   2.257 -0.2013 -0.0803  0.0468
  172MOL   C15634698   2.277   2.383   2.270  0.7354 -0.1581 -0.6242
  172MOL   H15734699   2.709   2.255   2.361  0.3038 -0.5798 -0.0510
  172MOL   H15834700   2.634   2.169   2.219 -0.2772  1.1714 -0.9067
  172MOL   H15934701   2.367   2.210   2.182  2.7600 -0.3897 -0.6274
  172MOL   H16034702   2.271   2.449   2.183 -1.8110  0.4483 -0.0092
  172MOL   H16134703   2.286   2.444   2.360 -1.1194 -1.4628  0.4599
  172MOL   C16234704   2.150   2.306   2.290  0.8127 -0.7394  0.1283
  172MOL   C16334705   2.030   2.399   2.259  0.1526  0.3844  0.3584
  172MOL  Cl16434706   2.004   2.511   2.391  0.0718 -0.1125  0.1133
  172MOL   C16534707   1.960   2.400   2.147  0.3077 -0.3490  0.7096
  172MOL   C16634708   1.857   2.507   2.116 -0.6309 -0.5706  0.1792
  172MOL   H16734709   2.136   2.222   2.223 -1.6303 -0.4295  0.2279
  172MOL   H16834710   2.132   2.280   2.394 -0.5234  0.7826  0.2893
  172MOL   H16934711   1.967   2.326   2.069  2.0517 -1.0824  1.5384
  172MOL   H17034712   1.867   2.597   2.176  0.0612  0.3863 -1.3265
  172MOL   H17134713   1.880   2.540   2.014  0.1578  0.4854  0.6940
  172MOL   C17234714   1.707   2.460   2.106 -0.1065  1.0724 -0.6084
  172MOL   C17334715   1.617   2.571   2.056 -0.0730 -0.0868 -0.4527
  172MOL  Cl17434716   1.573   2.690   2.178 -0.2164 -0.0452 -0.1943
  172MOL   C17534717   1.565   2.575   1.927 -0.5439 -0.5783 -0.0537
  172MOL   C17634718   1.494   2.681   1.858  0.0097 -0.2866 -0.1901
  172MOL   H17734719   1.666   2.425   2.200  2.9953 -1.2225 -0.0103
  172MOL   H17834720   1.704   2.377   2.035  0.8337 -2.5693  3.4077
  172MOL   H17934721   1.589   2.492   1.863 -0.8599 -0.0285 -0.8933
  172MOL   H18034722   1.523   2.774   1.906 -0.1671 -0.5326  0.3945
  172MOL   H18134723   1.385   2.676   1.859  0.0567 -1.5836  0.0224
  172MOL   C18234724   1.538   2.694   1.713  0.3772  0.4923 -0.1362
  172MOL   C18334725   1.457   2.790   1.634  0.0032  0.3304 -0.0745
  172MOL  Cl18434726   1.498   2.951   1.674 -0.0268  0.2917  0.3578
  172MOL   C18534727   1.361   2.754   1.546 -0.4692 -0.0332 -0.6446
  172MOL   C18634728   1.278   2.850   1.459  0.0281  0.4408  0.5703
  172MOL   H18734729   1.639   2.733   1.708  0.4609  0.4426  1.0295
  172MOL   H18834730   1.541   2.603   1.652 -0.6100  0.1445  0.3154
  172MOL   H18934731   1.342   2.649   1.529  1.0648 -0.5827  0.8085
  172MOL   H19034732   1.208   2.900   1.526  1.1672 -0.3372  2.3721
  172MOL   H19134733   1.351   2.918   1.414 -0.5387  0.0441 -0.9820
  172MOL   C19234734   1.194   2.783   1.353  0.2271  0.1775 -0.4973
  172MOL   C19334735   1.081   2.867   1.299  0.0126 -0.5171  0.0791
  172MOL  Cl19434736   0.924   2.791   1.322 -0.1136 -0.0560  0.3426
  172MOL   C19534737   1.091   2.987   1.233 -0.3812 -0.8154  0.0911
  172MOL   C19634738   1.218   3.066   1.204  0.4007  0.2604 -0.1991
  172MOL   H19734739   1.146   2.697   1.400 -0.1756  0.5142 -0.2871
  172MOL   H19834740   1.249   2.761   1.262  1.3273 -0.3550  0.2855
  172MOL   H19934741   1.001   3.037   1.197 -1.0989 -2.0215  0.1860
  172MOL   H20034742   1.302   2.998   1.211 -1.8568 -3.0782 -3.5842
  172MOL   H20134743   1.229   3.145   1.280  1.2402 -1.8527  1.9445
  172MOL   H20234744   1.218   3.120   1.110  1.8051 -0.9574 -0.8989
  173MOL     C134745   1.883   6.328   3.569  0.3832 -0.1919 -0.0217
  173MOL     C234746   1.950   6.345   3.440  0.4948 -0.1036  1.1380
  173MOL    Cl334747   1.990   6.195   3.367 -0.2818  0.1072 -0.3692
  173MOL     C434748   1.993   6.459   3.387 -0.1062  0.1605  0.7086
  173MOL     C534749   1.986   6.595   3.443  0.3273  0.0564 -0.2924
  173MOL     H634750   1.804   6.404   3.564  2.2153  1.9824  2.6307
  173MOL     H734751   1.955   6.334   3.650  0.3766  0.3342 -0.0478
  173MOL     H834752   2.042   6.441   3.293  1.4171  2.1251  1.0786
  173MOL     H934753   1.979   6.574   3.550 -0.7184 -1.3884 -0.6267
  173MOL    H1034754   2.084   6.640   3.424  1.1946 -2.2420 -1.4285
  173MOL    H1134755   1.825   6.237   3.582 -0.0196  0.0498 -0.1176
  173MOL    C1234756   1.869   6.680   3.387  0.5810 -1.0142  0.0102
  173MOL    C1334757   1.849   6.808   3.466 -0.5341  0.0929 -0.2656
  173MOL   Cl1434758   1.743   6.781   3.596  0.0715 -0.2261 -0.0831
  173MOL    C1534759   1.903   6.933   3.441 -0.1225  0.1233 -0.1605
  173MOL    C1634760   2.006   6.953   3.328  0.1545  0.2981 -0.7070
  173MOL    H1734761   1.866   6.707   3.281  0.9005  4.2074  1.1918
  173MOL    H1834762   1.776   6.623   3.396 -1.1755  1.8079  0.5089
  173MOL    H1934763   1.877   7.018   3.501  0.3068 -1.4420  2.2837
  173MOL    H2034764   2.048   6.856   3.303 -1.6755 -1.1510  1.6506
  173MOL    H2134765   1.963   7.000   3.240 -2.0067  0.2195  0.2812
  173MOL    C2234766   2.130   7.041   3.370  0.3558 -0.0328 -0.3447
  173MOL    C2334767   2.186   7.021   3.503 -0.2164  0.6966  0.5799
  173MOL   Cl2434768   2.154   7.146   3.617 -0.0916  0.3866  0.1689
  173MOL    C2534769   2.268   6.919   3.534  0.1207 -0.0413 -0.2564
  173MOL    C2634770   2.316   6.882   3.673 -0.7716 -0.2205 -1.0861
  173MOL    H2734771   2.204   7.039   3.290  1.9101 -1.1689  1.1158
  173MOL    H2834772   2.091   7.143   3.374  0.8312  0.0833  1.2526
  173MOL    H2934773   2.294   6.850   3.455  0.4947 -0.5293  0.2929
  173MOL    H3034774   2.240   6.915   3.744 -0.9111 -0.9265 -0.9046
  173MOL    H3134775   2.328   6.774   3.680  0.2766 -0.1563 -1.7868
  173MOL    C3234776   2.447   6.949   3.721  0.3527  0.4801 -0.5478
  173MOL    C3334777   2.507   6.878   3.839 -0.4707  0.0501 -0.0070
  173MOL   Cl3434778   2.585   6.735   3.784 -0.1936 -0.3908  0.0099
  173MOL    C3534779   2.496   6.914   3.967  0.3630  0.2248 -0.1368
  173MOL    C3634780   2.528   6.824   4.088  0.0792 -0.0438 -0.5660
  173MOL    H3734781   2.508   6.945   3.631  1.2290 -3.2394  0.1290
  173MOL    H3834782   2.438   7.056   3.741 -0.5201  0.3860 -0.4181
  173MOL    H3934783   2.445   7.007   3.987 -1.9826 -0.9394 -0.5537
  173MOL    H4034784   2.487   6.724   4.076 -0.5976  0.2510 -0.7055
  173MOL    H4134785   2.637   6.810   4.088  0.0626 -0.2009 -0.1001
  173MOL    C4234786   2.494   6.900   4.217 -1.0043 -0.3887  0.5425
  173MOL    C4334787   2.514   6.820   4.348  0.5204  0.1611  0.2923
  173MOL   Cl4434788   2.661   6.857   4.414  0.0376 -0.3273  0.0639
  173MOL    C4534789   2.430   6.747   4.420 -0.6674  0.9963 -0.5526
  173MOL    C4634790   2.289   6.711   4.397  0.2105 -0.3836 -0.0545
  173MOL    H4734791   2.564   6.984   4.212 -0.0401 -1.2113  0.1134
  173MOL    H4834792   2.396   6.948   4.210 -0.3289  0.9169 -0.2657
  173MOL    H4934793   2.473   6.705   4.509 -0.9050 -0.3744 -1.0680
  173MOL    H5034794   2.245   6.743   4.303  0.2051  0.5175  0.2511
  173MOL    H5134795   2.281   6.602   4.400  1.0626 -0.4213  1.2570
  173MOL    C5234796   2.192   6.766   4.502  0.9057 -0.0546  0.4739
  173MOL    C5334797   2.047   6.757   4.458 -0.0400  0.3087  0.0060
  173MOL   Cl5434798   1.988   6.597   4.440  0.2358 -0.1875 -0.3401
  173MOL    C5534799   1.967   6.862   4.435  0.7193 -0.0302  0.1693
  173MOL    C5634800   1.814   6.865   4.398 -0.2789  0.0893 -0.0483
  173MOL    H5734801   2.207   6.697   4.585  2.2970  1.8750  1.8594
  173MOL    H5834802   2.218   6.866   4.536  1.7904 -0.0635 -0.1562
  173MOL    H5934803   2.008   6.961   4.448  3.7238 -1.0453 -1.1126
  173MOL    H6034804   1.812   6.947   4.325  0.8136 -0.0728 -0.2774
  173MOL    H6134805   1.780   6.773   4.349 -1.2686  0.1145  0.6018
  173MOL    C6234806   1.717   6.872   4.511 -0.6733 -0.0943  0.2971
  173MOL    C6334807   1.570   6.895   4.468 -0.0035  0.1642 -0.5048
  173MOL   Cl6434808   1.476   6.760   4.519  0.0672 -0.0566  0.0870
  173MOL    C6534809   1.514   7.002   4.413  0.3174  0.5676 -0.2783
  173MOL    C6634810   1.364   7.027   4.388 -0.3814  0.2978  1.0083
  173MOL    H6734811   1.729   6.777   4.563  0.6742 -1.0017 -1.5732
  173MOL    H6834812   1.753   6.948   4.581  0.7717  1.3769 -1.9659
  173MOL    H6934813   1.588   7.077   4.387  3.6344 -2.0837  1.0636
  173MOL    H7034814   1.304   7.004   4.476 -1.5018  2.7384  0.9255
  173MOL    H7134815   1.333   6.942   4.326 -1.4698  0.9363  0.6570
  173MOL    C7234816   1.330   7.178   4.347 -1.2043 -0.1742  0.0638
  173MOL    C7334817   1.187   7.207   4.306  0.5767 -0.2499  0.0360
  173MOL   Cl7434818   1.192   7.369   4.236  0.2541 -0.1398  0.1405
  173MOL    C7534819   1.082   7.127   4.308  0.2922  1.1270 -0.4523
  173MOL    C7634820   0.942   7.162   4.252 -0.4456  0.1702  0.1386
  173MOL    H7734821   1.390   7.193   4.258  1.9336 -1.9192  1.7894
  173MOL    H7834822   1.363   7.257   4.415  0.6305  1.0678 -2.2008
  173MOL    H7934823   1.090   7.035   4.363 -1.5984  2.4036  2.0533
  173MOL    H8034824   0.929   7.118   4.153  1.1595 -2.0647  0.8675
  173MOL    H8134825   0.945   7.266   4.220  0.2806 -0.0259 -0.4547
  173MOL    C8234826   0.830   7.127   4.343  0.5522  0.2741  0.1268
  173MOL    C8334827   0.691   7.176   4.295  0.1590 -0.0458  0.5637
  173MOL   Cl8434828   0.627   7.064   4.176 -0.1046 -0.0650 -0.1509
  173MOL    C8534829   0.628   7.288   4.343  0.4888 -0.1661  0.4307
  173MOL    C8634830   0.482   7.318   4.296 -0.3125  0.7583 -0.1839
  173MOL    H8734831   0.844   7.159   4.446 -0.0114 -0.1335  0.3348
  173MOL    H8834832   0.824   7.019   4.358 -0.9822  0.3922  0.4189
  173MOL    H8934833   0.674   7.353   4.416  2.1851  0.0681 -0.8218
  173MOL    H9034834   0.462   7.285   4.194  0.4542 -1.1352  0.2395
  173MOL    H9134835   0.403   7.273   4.355 -1.8554  0.9483 -2.0664
  173MOL    C9234836   0.456   7.465   4.275 -0.0001 -0.4138  0.4551
  173MOL    C9334837   0.433   7.529   4.412 -0.3579 -0.0900 -0.8040
  173MOL   Cl9434838   0.542   7.650   4.447  0.1215  0.0063 -0.2728
  173MOL    C9534839   0.335   7.508   4.507  0.3487  0.1652 -0.1708
  173MOL    C9634840   0.216   7.410   4.509 -0.0201 -0.5416  0.4886
  173MOL    H9734841   0.366   7.473   4.214  0.2789 -1.0219 -0.0377
  173MOL    H9834842   0.540   7.513   4.225  0.3540 -2.4127 -0.9231
  173MOL    H9934843   0.339   7.561   4.601  2.2331 -1.3263  0.6263
  173MOL   H10034844   0.220   7.362   4.411  0.1133  0.3135  0.0719
  173MOL   H10134845   0.229   7.337   4.589 -3.1836  0.6661  2.1869
  173MOL   C10234846   0.077   7.480   4.532  0.8071 -0.3555  0.8472
  173MOL   C10334847   0.029   7.567   4.412 -0.2480  1.2935 -0.0737
  173MOL  Cl10434848   0.034   7.734   4.453  0.3204 -0.2312 -0.5152
  173MOL   C10534849   8.394   7.514   4.298 -0.6903 -0.0758  0.0968
  173MOL   C10634850   8.340   7.587   4.179  0.1068 -0.3353 -0.2986
  173MOL   H10734851   8.420   7.407   4.551 -0.1522  0.4879  0.2439
  173MOL   H10834852   0.087   7.557   4.609 -0.0719 -0.9677  1.5809
  173MOL   H10934853   8.387   7.406   4.295  1.4275 -0.2288 -0.3483
  173MOL   H11034854   8.365   7.692   4.189 -5.6666  1.1301  0.2873
  173MOL   H11134855   8.398   7.546   4.096 -0.8608 -0.0018 -1.1481
  173MOL   C11234856   8.192   7.555   4.162  0.1694 -0.1267 -0.1303
  173MOL   C11334857   8.126   7.654   4.069 -0.5839  0.2452  0.4438
  173MOL  Cl11434858   8.107   7.598   3.908 -0.0282  0.2238  0.6495
  173MOL   C11534859   8.085   7.781   4.098  0.3433  0.6880 -0.3631
  173MOL   C11634860   8.099   7.858   4.225 -0.5208 -0.6105 -0.3298
  173MOL   H11734861   8.169   7.458   4.120 -1.4782  0.9941 -1.8714
  173MOL   H11834862   8.130   7.551   4.252  0.8124  0.6206  0.3586
  173MOL   H11934863   8.037   7.843   4.024 -0.1842 -0.4641 -1.0065
  173MOL   H12034864   8.141   7.797   4.304  0.0918 -0.6658 -0.6956
  173MOL   H12134865   7.999   7.881   4.260 -0.0926 -0.2023  0.6299
  173MOL   C12234866   8.176   7.990   4.196 -0.0198  0.1649  0.1776
  173MOL   C12334867   8.081   8.108   4.166 -0.8298 -0.1454  0.1186
  173MOL  Cl12434868   8.082   8.152   4.001 -0.0559  0.2713  0.1432
  173MOL   C12534869   8.007   8.172   4.255 -0.0994  0.1502  0.0827
  173MOL   C12634870   8.013   8.156   4.406 -0.1625 -0.1988  0.4481
  173MOL   H12734871   8.236   8.018   4.283 -0.7706  0.8015  0.5080
  173MOL   H12834872   8.246   7.972   4.115  1.2529  0.3358  1.2147
  173MOL   H12934873   7.934   8.235   4.206  0.2859  0.9133  0.4904
  173MOL   H13034874   7.911   8.136   4.441 -0.2468 -0.5806 -0.0015
  173MOL   H13134875   8.075   8.070   4.431  0.5369  0.4301  0.8843
  173MOL   C13234876   8.048   8.288   4.478 -0.4624 -0.0967  0.3911
  173MOL   C13334877   8.048   8.280   4.633  0.2369  0.2556  0.3056
  173MOL  Cl13434878   7.906   8.349   4.703 -0.3604 -0.4099 -0.2729
  173MOL   C13534879   8.147   8.236   4.709  0.1201 -0.7647  0.4066
  173MOL   C13634880   8.275   8.174   4.657  0.5563  0.0443 -0.2727
  173MOL   H13734881   8.149   8.320   4.451 -0.2406 -0.3141  0.9667
  173MOL   H13834882   7.991   8.373   4.441 -0.7358 -0.6630 -0.5021
  173MOL   H13934883   8.130   8.233   4.815 -2.2376 -0.2404  0.0613
  173MOL   H14034884   8.254   8.067   4.649  1.1394 -0.2543  1.8800
  173MOL   H14134885   8.297   8.193   4.552 -0.9504  2.0352 -0.2343
  173MOL   C14234886   8.391   8.195   4.756  0.1300 -0.5045  0.4396
  173MOL   C14334887   0.017   8.341   4.764  0.3674 -0.0854  0.4056
  173MOL  Cl14434888   0.142   8.376   4.649  0.5259 -0.5252  0.0700
  173MOL   C14534889   8.382   0.009   4.847 -0.5790  0.2450  0.0133
  173MOL   C14634890   0.001   0.155   4.848  0.0642 -0.0396 -0.7820
  173MOL   H14734891   0.051   8.126   4.734 -2.1658 -3.2427  0.2779
  173MOL   H14834892   8.357   8.172   4.857 -2.9843 -0.1605 -0.4910
  173MOL   H14934893   8.304   8.409   4.919  0.3945  0.1808  1.0508
  173MOL   H15034894   0.058   0.184   4.759 -0.3247 -0.2599 -1.1066
  173MOL   H15134895   8.332   0.215   4.836 -0.2002  0.0837  1.6794
  173MOL   C15234896   0.068   0.205   4.970 -0.1450  0.3806  0.7969
  173MOL   C15334897   0.080   0.354   4.969 -0.5967  0.0216  0.7593
  173MOL  Cl15434898   0.208   0.407   4.856 -0.3985 -0.0431  0.0117
  173MOL   C15534899   0.012   0.436   5.042  0.4656 -0.5797 -0.7243
  173MOL   C15634900   0.042   0.585   5.051 -0.2348 -0.3316 -0.3737
  173MOL   H15734901   0.004   0.177   5.054 -1.3372 -0.7482 -0.4622
  173MOL   H15834902   0.170   0.177   4.994  0.0915 -1.0983 -1.8273
  173MOL   H15934903   8.348   0.402   5.100  0.1435 -0.0309 -0.8785
  173MOL   H16034904   0.130   0.608   4.990 -0.3065 -1.0263 -0.7440
  173MOL   H16134905   0.064   0.613   5.154  0.0367  1.5647 -0.9411
  173MOL   C16234906   8.352   0.663   4.989  0.1682 -0.4391  0.0821
  173MOL   C16334907   8.374   0.807   5.010 -0.0149 -0.3362 -0.5518
  173MOL  Cl16434908   0.010   0.876   4.864  0.1847 -0.0485 -0.0122
  173MOL   C16534909   8.340   0.879   5.121  0.4228  0.5985 -0.0885
  173MOL   C16634910   8.354   1.029   5.136 -0.2238  0.0890  0.4759
  173MOL   H16734911   8.348   0.645   4.881  0.5089 -1.1535  0.1862
  173MOL   H16834912   8.258   0.627   5.030 -1.3880  4.7197  1.3812
  173MOL   H16934913   8.297   0.834   5.209  2.0928  1.4855  1.1943
  173MOL   H17034914   8.371   1.086   5.045  0.2821  0.4649  0.8035
  173MOL   H17134915   8.258   1.068   5.170 -0.0132  0.5377  0.5637
  173MOL   C17234916   0.038   1.053   5.238  0.3137 -0.3197  0.1131
  173MOL   C17334917   0.057   1.202   5.277 -0.1002 -0.1041  0.3465
  173MOL  Cl17434918   0.147   1.213   5.419 -0.1543 -0.2793  0.1710
  173MOL   C17534919   0.005   1.307   5.207 -0.1026  0.7389 -0.3779
  173MOL   C17634920   0.009   1.447   5.260  0.1852  0.5241 -0.7268
  173MOL   H17734921   0.136   1.030   5.196  1.2657  0.0489  2.0781
  173MOL   H17834922   0.021   0.985   5.322  2.8671 -1.1913 -0.0194
  173MOL   H17934923   8.378   1.290   5.112  0.8167  1.6816 -1.0161
  173MOL   H18034924   0.055   1.453   5.359 -0.2272  1.9612 -0.6230
  173MOL   H18134925   8.329   1.481   5.282  0.9188  3.0102 -1.1561
  173MOL   C18234926   0.065   1.553   5.171 -0.5802  0.3507 -0.0654
  173MOL   C18334927   0.058   1.704   5.216 -0.5074  0.8052 -0.1327
  173MOL  Cl18434928   8.333   1.775   5.144 -0.0511 -0.0205 -0.1112
  173MOL   C18534929   0.149   1.765   5.298  0.3899 -1.0951  0.4903
  173MOL   C18634930   0.131   1.910   5.345  0.3184  0.0752  0.7589
  173MOL   H18734931   0.169   1.527   5.150 -1.3616 -3.4079  0.4623
  173MOL   H18834932   0.019   1.557   5.072  1.6965 -0.2135 -1.1754
  173MOL   H18934933   0.237   1.712   5.332  0.2684 -1.5952  0.0409
  173MOL   H19034934   0.078   1.975   5.275  0.7988 -0.1320  0.1957
  173MOL   H19134935   0.064   1.913   5.431  0.1808 -1.2375  0.7063
  173MOL   C19234936   0.271   1.982   5.374 -0.6458  0.4827  0.7650
  173MOL   C19334937   0.374   1.960   5.259  0.6010  0.4500 -0.0125
  173MOL  Cl19434938   0.329   2.064   5.128  0.1535 -0.4736  0.2146
  173MOL   C19534939   0.487   1.880   5.257 -0.1624 -0.1241 -1.0417
  173MOL   C19634940   0.543   1.785   5.369  0.0600 -0.0651 -0.5168
  173MOL   H19734941   0.310   1.923   5.457  0.9141 -1.5953 -1.3752
  173MOL   H19834942   0.255   2.084   5.409  1.0129  0.5412  1.3998
  173MOL   H19934943   0.555   1.883   5.174 -0.0766  0.4046 -0.9562
  173MOL   H20034944   0.651   1.787   5.379 -0.0181  0.7597  0.1350
  173MOL   H20134945   0.508   1.684   5.349 -1.8060  0.7750 -1.6485
  173MOL   H20234946   0.503   1.815   5.465  0.8314  2.5507 -0.9811
  174MOL     C134947   6.005   8.231   5.404 -0.1987  0.0875  0.2024
  174MOL     C234948   6.071   8.104   5.461 -0.6640 -0.2305  0.1786
  174MOL    Cl334949   6.116   8.114   5.627 -0.1770  0.0669  0.0719
  174MOL     C434950   6.083   7.990   5.394 -0.0529  0.0992  0.0323
  174MOL     C534951   6.044   7.955   5.247 -0.1565  0.3442 -0.0985
  174MOL     H634952   6.043   8.281   5.315  0.9636  1.1361  1.2734
  174MOL     H734953   6.008   8.313   5.475  0.0621 -0.8409  1.2650
  174MOL     H834954   6.125   7.904   5.445 -0.1451  0.4869  0.7712
  174MOL     H934955   5.977   7.870   5.232  1.2703 -1.2189  2.1028
  174MOL    H1034956   5.995   8.036   5.194 -0.4344 -1.9950 -3.5781
  174MOL    H1134957   5.897   8.222   5.389 -0.1744  2.3211 -1.6902
  174MOL    C1234958   6.166   7.944   5.164 -0.8533 -0.0984  0.3488
  174MOL    C1334959   6.145   7.946   5.018 -0.4808 -0.5878 -0.2780
  174MOL   Cl1434960   6.128   7.785   4.970 -0.0049 -0.4909  0.0860
  174MOL    C1534961   6.132   8.044   4.926 -0.0703 -0.0778 -0.1831
  174MOL    C1634962   6.138   8.193   4.954 -0.7498 -0.3753  0.1409
  174MOL    H1734963   6.231   8.024   5.200  0.7960 -0.4271 -1.8504
  174MOL    H1834964   6.213   7.851   5.197  3.0296  0.7145 -2.5429
  174MOL    H1934965   6.112   8.011   4.825  0.1726  1.0613 -0.6106
  174MOL    H2034966   6.112   8.216   5.058 -0.1696  0.6704  0.0606
  174MOL    H2134967   6.236   8.238   4.939  0.4228 -2.2396  1.8844
  174MOL    C2234968   6.043   8.264   4.848  0.4248 -0.8370 -0.0065
  174MOL    C2334969   6.002   8.409   4.887 -0.0930  0.9540 -0.3304
  174MOL   Cl2434970   5.973   0.079   4.746  0.0276 -0.2011  0.4034
  174MOL    C2534971   5.978   0.041   5.011 -0.2807  0.4440  0.1070
  174MOL    C2634972   5.929   0.180   5.046 -0.4632 -0.0570 -0.2266
  174MOL    H2734973   6.095   8.272   4.752  1.4672 -1.9198  0.4478
  174MOL    H2834974   5.947   8.215   4.839  0.8836 -1.7726  0.1476
  174MOL    H2934975   5.992   8.410   5.104 -1.0133  0.1333  0.0466
  174MOL    H3034976   6.010   0.227   5.102  0.4673 -0.0844 -1.5427
  174MOL    H3134977   5.908   0.225   4.949 -0.2055 -1.2469 -0.8356
  174MOL    C3234978   5.797   0.180   5.132 -0.4391 -0.1701  0.0873
  174MOL    C3334979   5.720   0.305   5.113  0.7192  0.2261 -0.2838
  174MOL   Cl3434980   5.661   0.334   5.271  0.5636 -0.5177  0.3026
  174MOL    C3534981   5.687   0.374   4.999 -0.5118 -1.5253  0.9141
  174MOL    C3634982   5.595   0.499   5.001 -0.8724 -0.4175  0.0763
  174MOL    H3734983   5.740   0.097   5.090 -0.6500 -0.7633  1.5299
  174MOL    H3834984   5.815   0.144   5.233  4.7343 -0.8811 -0.9226
  174MOL    H3934985   5.714   0.338   4.901  0.8333 -0.4174  0.8655
  174MOL    H4034986   5.536   0.502   5.093  0.2225  0.5559  0.7621
  174MOL    H4134987   5.655   0.589   5.009  0.5041 -1.3214 -0.0418
  174MOL    C4234988   5.499   0.497   4.885  0.1428 -0.0068 -0.3208
  174MOL    C4334989   5.412   0.622   4.892  0.7963  0.1107  0.0988
  174MOL   Cl4434990   5.281   0.615   5.006 -0.0962  0.0582  0.2157
  174MOL    C4534991   5.446   0.741   4.833  0.5598  0.3655  0.1661
  174MOL    C4634992   5.569   0.777   4.747  0.3172  0.5321 -0.0155
  174MOL    H4734993   5.537   0.484   4.784 -2.8458 -0.9167 -1.3878
  174MOL    H4834994   5.446   0.403   4.900 -0.9757  0.8527  1.3451
  174MOL    H4934995   5.380   0.824   4.852  2.4162  1.4695  2.0772
  174MOL    H5034996   5.628   0.685   4.741 -1.5800 -0.6143 -1.4990
  174MOL    H5134997   5.544   0.797   4.643 -1.1283 -0.9314  0.0272
  174MOL    C5234998   5.658   0.890   4.819 -0.7861 -0.3735 -0.5869
  174MOL    C5334999   5.803   0.922   4.761 -0.2748 -0.1597  0.0617
  174MOL   Cl5435000   5.877   1.049   4.847 -0.0503 -0.0508  0.1718
  174MOL    C5535001   5.860   0.862   4.659  0.2071  0.8750 -0.0892
  174MOL    C5635002   6.000   0.887   4.595  1.1613 -0.2700  0.0188
  174MOL    H5735003   5.594   0.977   4.832 -0.0529  0.0403  0.2557
  174MOL    H5835004   5.676   0.861   4.923  0.9357  1.1781 -0.4309
  174MOL    H5935005   5.812   0.777   4.612 -2.6160  1.4452  1.6474
  174MOL    H6035006   6.061   0.934   4.673  0.6266 -0.6483  0.6757
  174MOL    H6135007   6.040   0.786   4.580  1.2461 -0.1755 -0.3967
  174MOL    C6235008   6.002   0.955   4.461  0.2018 -0.2280 -0.3042
  174MOL    C6335009   5.980   1.101   4.481 -0.1316  0.3225 -0.0998
  174MOL   Cl6435010   5.816   1.140   4.449 -0.6528 -0.1508  0.1837
  174MOL    C6535011   6.078   1.193   4.508  0.1000 -0.4147 -0.2870
  174MOL    C6635012   6.054   1.343   4.521  0.2512 -0.3965 -0.8587
  174MOL    H6735013   6.100   0.931   4.419  0.8616  0.6021  0.7009
  174MOL    H6835014   5.931   0.909   4.393 -0.4844  1.9181 -1.0768
  174MOL    H6935015   6.180   1.160   4.514  0.4062  0.6583  0.6064
  174MOL    H7035016   5.959   1.369   4.476 -1.6439 -2.1871  1.9901
  174MOL    H7135017   6.118   1.406   4.458 -1.8522  1.6902 -0.9765
  174MOL    C7235018   6.047   1.392   4.669 -0.0882  0.7197  0.7193
  174MOL    C7335019   6.176   1.390   4.754  0.4673  0.2855 -0.3211
  174MOL   Cl7435020   6.192   1.244   4.846  0.6864 -0.3592 -0.4089
  174MOL    C7535021   6.262   1.495   4.774 -0.7538  0.3035  0.0425
  174MOL    C7635022   6.371   1.507   4.877 -0.0755  0.2910  0.0321
  174MOL    H7735023   5.978   1.333   4.729  1.8006 -1.0140  1.2420
  174MOL    H7835024   6.020   1.498   4.671  0.0944  0.7664  0.7655
  174MOL    H7935025   6.249   1.584   4.714 -0.5971  0.7697  0.6876
  174MOL    H8035026   6.464   1.488   4.823  0.5874  1.2385  0.8025
  174MOL    H8135027   6.366   1.423   4.945 -0.7510 -0.2440 -0.6740
  174MOL    C8235028   6.369   1.645   4.938  0.6622  1.1479  0.1834
  174MOL    C8335029   6.470   1.670   5.045 -0.2053  0.4433  0.1282
  174MOL   Cl8435030   6.597   1.765   4.988 -0.2658  0.1232  0.6704
  174MOL    C8535031   6.462   1.617   5.172 -0.2463  0.5793 -0.3460
  174MOL    C8635032   6.563   1.653   5.279  0.8748 -0.7435 -0.0007
  174MOL    H8735033   6.274   1.666   4.987 -0.0423  0.5845 -0.9393
  174MOL    H8835034   6.372   1.718   4.857 -0.1387  1.9923  0.9051
  174MOL    H8935035   6.391   1.539   5.196  0.5846 -0.4886 -1.2973
  174MOL    H9035036   6.539   1.572   5.349 -0.1138 -0.5930 -0.1546
  174MOL    H9135037   6.661   1.634   5.236  0.9949  0.5258 -0.3015
  174MOL    C9235038   6.534   1.791   5.339 -0.2797  0.4901  0.0060
  174MOL    C9335039   6.636   1.830   5.448 -0.4199 -0.4229 -0.7293
  174MOL   Cl9435040   6.564   1.867   5.603  0.0239 -0.0328  0.0913
  174MOL    C9535041   6.770   1.865   5.422  0.3592  0.0091 -0.0306
  174MOL    C9635042   6.837   1.852   5.291 -0.3406  0.2268  0.3462
  174MOL    H9735043   6.434   1.784   5.382 -0.9721  1.3788 -1.4235
  174MOL    H9835044   6.552   1.875   5.271  1.8772  0.0455 -0.0185
  174MOL    H9935045   6.832   1.909   5.499 -1.3519 -0.4415  1.6683
  174MOL   H10035046   6.891   1.758   5.281 -1.1514 -0.2711  0.5560
  174MOL   H10135047   6.761   1.851   5.213 -0.6832 -3.2517  0.6316
  174MOL   C10235048   6.926   1.977   5.262 -0.2280 -0.0661 -0.3811
  174MOL   C10335049   6.845   2.111   5.265 -0.0322  0.3750 -0.1450
  174MOL  Cl10435050   6.772   2.151   5.110  0.0427  0.0351  0.4482
  174MOL   C10535051   6.836   2.186   5.373  0.6253  0.0134  0.7682
  174MOL   C10635052   6.752   2.311   5.396 -0.0208  0.2958 -0.8299
  174MOL   H10735053   7.000   1.982   5.341  0.7415 -2.8671 -1.0326
  174MOL   H10835054   6.975   1.957   5.167  0.5806  0.1764 -0.0138
  174MOL   H10935055   6.889   2.155   5.462  2.0214 -2.0233 -0.7286
  174MOL   H11035056   6.817   2.384   5.443  0.8129 -0.5307 -0.6750
  174MOL   H11135057   6.712   2.355   5.304  0.9912  1.4652 -0.7197
  174MOL   C11235058   6.620   2.296   5.488 -0.6189 -0.2816  0.3518
  174MOL   C11335059   6.561   2.425   5.536 -0.5511 -0.3658 -0.1188
  174MOL  Cl11435060   6.672   2.518   5.641 -0.3481 -0.1165  0.0677
  174MOL   C11535061   6.438   2.460   5.525 -0.2724 -0.4476 -0.1819
  174MOL   C11635062   6.316   2.385   5.461 -0.3340 -0.8175 -0.4067
  174MOL   H11735063   6.545   2.237   5.435 -1.1114  1.7379 -1.2494
  174MOL   H11835064   6.663   2.236   5.568  0.7846  1.5887  1.0433
  174MOL   H11935065   6.413   2.552   5.576 -0.4985 -0.5319 -0.1378
  174MOL   H12035066   6.243   2.355   5.535 -0.4605  1.0198  0.2341
  174MOL   H12135067   6.353   2.305   5.397 -0.0480  1.2317 -2.9063
  174MOL   C12235068   6.242   2.491   5.378 -0.1245  0.3468  0.4972
  174MOL   C12335069   6.106   2.439   5.321 -0.0179  0.0699  0.1735
  174MOL  Cl12435070   5.977   2.474   5.429  0.2404 -0.2149  0.2984
  174MOL   C12535071   6.085   2.355   5.219  0.1512 -0.7578 -0.3043
  174MOL   C12635072   6.191   2.300   5.125 -0.4955 -0.0480 -0.4276
  174MOL   H12735073   6.207   2.575   5.439 -3.3477 -0.9218  0.5319
  174MOL   H12835074   6.306   2.527   5.298 -1.6009  0.3086 -0.7367
  174MOL   H12935075   5.984   2.321   5.201  0.8938 -1.8442 -2.6532
  174MOL   H13035076   6.140   2.318   5.030 -0.4277  1.1783 -0.2308
  174MOL   H13135077   6.288   2.349   5.117  0.1529 -1.0675  1.0157
  174MOL   C13235078   6.205   2.146   5.144  0.0872 -0.3285 -0.4082
  174MOL   C13335079   6.281   2.094   5.027 -0.5474 -0.3461  0.7467
  174MOL  Cl13435080   6.457   2.095   5.051  0.2663 -0.1936 -0.1803
  174MOL   C13535081   6.230   2.037   4.914 -0.2584 -1.0093  0.9559
  174MOL   C13635082   6.080   2.022   4.875  0.3443 -0.2503 -0.5586
  174MOL   H13735083   6.250   2.109   5.236  0.5231  1.6411  0.1805
  174MOL   H13835084   6.106   2.099   5.139 -0.5112  0.5783  1.9716
  174MOL   H13935085   6.297   1.995   4.841 -0.8691 -0.8037  0.2713
  174MOL   H14035086   6.033   1.972   4.959  0.2167  1.0560  0.1668
  174MOL   H14135087   6.034   2.121   4.869  2.6014  1.0607  2.3024
  174MOL   C14235088   6.060   1.932   4.760  0.0836  0.2920  0.6997
  174MOL   C14335089   5.920   1.877   4.753 -0.2761  0.0505  0.3711
  174MOL  Cl14435090   5.917   1.743   4.636 -0.4591  0.1245  0.1231
  174MOL   C14535091   5.817   1.908   4.835 -0.1807  0.1852 -0.3673
  174MOL   C14635092   5.681   1.828   4.831  0.0961  0.3528 -0.6882
  174MOL   H14735093   6.128   1.848   4.765 -1.4448 -1.0746 -0.8879
  174MOL   H14835094   6.094   1.999   4.682  1.1182 -0.0991  0.8157
  174MOL   H14935095   5.825   1.982   4.913 -1.9318 -0.0728  0.0911
  174MOL   H15035096   5.672   1.747   4.758  0.2640 -0.9792  0.7489
  174MOL   H15135097   5.667   1.760   4.914  1.2868 -1.1636 -1.6964
  174MOL   C15235098   5.557   1.922   4.800 -0.1683  0.5487  0.1700
  174MOL   C15335099   5.412   1.861   4.794  0.5901  0.1927 -0.3019
  174MOL  Cl15435100   5.381   1.772   4.654 -0.1389 -0.3125 -0.0040
  174MOL   C15535101   5.325   1.877   4.897 -1.0161 -0.3652 -0.0023
  174MOL   C15635102   5.194   1.802   4.908  0.3556 -0.1667 -0.0488
  174MOL   H15735103   5.558   2.005   4.870  0.3533 -0.1582  1.0087
  174MOL   H15835104   5.569   1.976   4.705  1.5109 -1.2515 -0.6772
  174MOL   H15935105   5.354   1.945   4.976 -0.0323 -0.0107 -0.6632
  174MOL   H16035106   5.185   1.715   4.843  0.2464 -0.9627  1.0206
  174MOL   H16135107   5.120   1.864   4.857 -1.6228 -2.2332  0.1749
  174MOL   C16235108   5.172   1.768   5.058  0.4310 -0.1769 -0.4339
  174MOL   C16335109   5.032   1.712   5.076 -0.2700 -0.5744  0.6548
  174MOL  Cl16435110   5.037   1.534   5.099 -0.0771 -0.2167 -0.0047
  174MOL   C16535111   4.919   1.780   5.076  0.9848 -0.1504  0.2859
  174MOL   C16635112   4.785   1.720   5.112  0.4241 -0.3706  0.3348
  174MOL   H16735113   5.249   1.711   5.110 -0.6712  0.7106  2.2433
  174MOL   H16835114   5.174   1.855   5.123  1.8458  0.8676 -1.8270
  174MOL   H16935115   4.911   1.886   5.058  1.0355  0.0113  1.2206
  174MOL   H17035116   4.707   1.736   5.038  0.5759 -0.8352  0.0765
  174MOL   H17135117   4.799   1.613   5.121  0.6623 -0.5558 -2.0325
  174MOL   C17235118   4.729   1.764   5.235 -0.1483 -0.4439 -0.5993
  174MOL   C17335119   4.827   1.749   5.350 -0.0155 -0.6228 -0.0393
  174MOL  Cl17435120   4.928   1.890   5.360 -0.0275  0.4089 -0.0447
  174MOL   C17535121   4.839   1.642   5.436 -0.0564 -0.0473  0.0281
  174MOL   C17635122   4.924   1.626   5.559 -0.7940  0.2324 -0.0428
  174MOL   H17735123   4.637   1.710   5.259  0.6422 -1.3596  0.3968
  174MOL   H17835124   4.701   1.869   5.227  3.4770  0.7370  1.1686
  174MOL   H17935125   4.772   1.560   5.416 -0.9167  0.3248  1.3548
  174MOL   H18035126   4.857   1.628   5.646  0.3066  1.1037  0.8078
  174MOL   H18135127   4.987   1.713   5.579  1.1014 -1.0542 -0.3458
  174MOL   C18235128   5.019   1.508   5.561  0.3374  0.1212  0.6515
  174MOL   C18335129   5.083   1.504   5.694  1.2108  0.2719 -0.0313
  174MOL  Cl18435130   5.240   1.575   5.691  0.3508 -0.0242 -0.0948
  174MOL   C18535131   5.029   1.455   5.807 -0.0508  0.1004 -0.2577
  174MOL   C18635132   5.092   1.449   5.944  0.0476  0.0779  0.2420
  174MOL   H18735133   4.953   1.422   5.549 -0.5629  0.5837  2.1565
  174MOL   H18835134   5.081   1.521   5.473  0.0768  0.6934  0.5490
  174MOL   H18935135   4.932   1.409   5.804 -0.7474  1.5455 -0.7062
  174MOL   H19035136   5.153   1.540   5.942  1.3437 -0.7946 -0.4001
  174MOL   H19135137   5.011   1.455   6.017  0.6011 -2.1533  1.0457
  174MOL   C19235138   5.171   1.323   5.982 -0.2998  0.1204  0.6652
  174MOL   C19335139   5.082   1.217   6.045  0.0080  0.3997 -0.4465
  174MOL  Cl19435140   5.020   1.102   5.934 -0.1916  0.3179  0.4984
  174MOL   C19535141   5.054   1.208   6.175  0.2113  0.3584 -0.0745
  174MOL   C19635142   5.096   1.305   6.285  0.1667  0.5323 -0.2007
  174MOL   H19735143   5.251   1.354   6.050  1.2387  1.3662 -1.6649
  174MOL   H19835144   5.211   1.281   5.890 -0.8841  0.0351  0.4471
  174MOL   H19935145   4.997   1.122   6.207 -0.0379  1.2134  1.8577
  174MOL   H20035146   5.117   1.247   6.375  1.2925  0.8906 -0.2307
  174MOL   H20135147   5.015   1.375   6.303 -0.0902  0.5337 -1.3241
  174MOL   H20235148   5.185   1.365   6.271 -1.8370  3.8172  0.6257
  175MOL     C135149   2.285   5.419   7.723 -0.2973  0.2145 -0.4044
  175MOL     C235150   2.295   5.445   7.575 -0.1841  0.9734  0.4592
  175MOL    Cl335151   2.386   5.322   7.492  0.1620  0.0860  0.3075
  175MOL     C435152   2.236   5.547   7.510 -0.8308 -0.2447  0.4054
  175MOL     C535153   2.160   5.658   7.565  0.0778 -0.0222 -0.1806
  175MOL     H635154   2.375   5.458   7.772  0.1704 -0.5206 -0.6621
  175MOL     H735155   2.294   5.312   7.741 -0.0076  0.7791  3.0614
  175MOL     H835156   2.246   5.553   7.402  0.6135  0.9837  0.5901
  175MOL     H935157   2.192   5.678   7.667  1.1350  1.9462 -0.8797
  175MOL    H1035158   2.182   5.746   7.504  0.7472 -0.9213 -1.2578
  175MOL    H1135159   2.189   5.448   7.764  0.7723  1.4303  1.3142
  175MOL    C1235160   2.003   5.634   7.569  0.5455 -1.2455  0.6581
  175MOL    C1335161   1.938   5.631   7.431  0.4759 -0.1582 -0.2959
  175MOL   Cl1435162   1.921   5.786   7.360  0.1333  0.0539  0.0403
  175MOL    C1535163   1.900   5.523   7.362  0.1130  0.7676  0.1014
  175MOL    C1635164   1.914   5.379   7.406 -0.3943  0.6183  0.7352
  175MOL    H1735165   1.978   5.550   7.633 -1.1292  0.6472  2.5579
  175MOL    H1835166   1.963   5.720   7.624 -0.0139 -0.8659 -0.3269
  175MOL    H1935167   1.843   5.522   7.271  0.5575  1.4014 -0.1877
  175MOL    H2035168   1.968   5.378   7.501  0.9652  3.7793  0.0449
  175MOL    H2135169   1.810   5.349   7.408 -0.5133  0.6758 -2.3981
  175MOL    C2235170   1.984   5.286   7.302  0.1263  0.3677 -0.1175
  175MOL    C2335171   1.997   5.145   7.358 -0.1005  0.1507 -0.2506
  175MOL   Cl2435172   1.845   5.074   7.388  0.1235 -0.5714  0.0135
  175MOL    C2535173   2.117   5.079   7.385  0.8305  0.3614 -1.3673
  175MOL    C2635174   2.147   4.933   7.424  0.0445 -0.3844 -0.3098
  175MOL    H2735175   1.925   5.270   7.212  2.5759 -0.3285 -1.6637
  175MOL    H2835176   2.084   5.320   7.275 -0.9087  2.8500 -0.8898
  175MOL    H2935177   2.205   5.140   7.370  0.8204  0.4126 -1.2193
  175MOL    H3035178   2.171   4.928   7.530  2.1491 -0.4989 -0.7757
  175MOL    H3135179   2.054   4.887   7.389 -0.6422  0.2550  0.6318
  175MOL    C3235180   2.262   4.876   7.345  0.1600  0.2854  0.1167
  175MOL    C3335181   2.269   4.729   7.369  0.1581 -0.0717 -0.7123
  175MOL   Cl3435182   2.337   4.673   7.523  0.2733 -0.0085 -0.3193
  175MOL    C3535183   2.191   4.656   7.291 -0.0503 -0.2250 -0.5785
  175MOL    C3635184   2.169   4.508   7.302  0.1162 -0.2378  0.7222
  175MOL    H3735185   2.244   4.897   7.240  0.1839  0.2743  0.1109
  175MOL    H3835186   2.354   4.921   7.383 -0.2193  0.1095  1.2523
  175MOL    H3935187   2.137   4.703   7.211  0.9678  1.8876 -0.0558
  175MOL    H4035188   2.209   4.462   7.211  0.2024  0.8523  0.2026
  175MOL    H4135189   2.208   4.457   7.390 -1.1400  0.4498  1.6807
  175MOL    C4235190   2.018   4.480   7.301  0.7698  0.0741 -0.1479
  175MOL    C4335191   1.951   4.529   7.428  0.0487  0.1863 -0.2004
  175MOL   Cl4435192   1.864   4.674   7.406  0.0486 -0.2989  0.1451
  175MOL    C4535193   1.932   4.465   7.543 -0.5280 -0.1278  0.2080
  175MOL    C4635194   1.989   4.322   7.563  0.0214 -0.2361 -0.5938
  175MOL    H4735195   1.969   4.531   7.218  0.6394  0.3049  0.0708
  175MOL    H4835196   2.001   4.374   7.283  0.5138  0.4895 -2.5144
  175MOL    H4935197   1.876   4.511   7.623 -0.3201  1.7318 -0.6858
  175MOL    H5035198   1.911   4.252   7.592  1.1661 -1.5157 -0.5223
  175MOL    H5135199   2.036   4.288   7.470  1.7617  2.7494 -0.8824
  175MOL    C5235200   2.103   4.336   7.679  0.4680 -0.3547 -0.3185
  175MOL    C5335201   2.208   4.226   7.656 -0.1007  0.6465 -0.5070
  175MOL   Cl5435202   2.166   4.087   7.750  0.1000 -0.3698 -0.1437
  175MOL    C5535203   2.323   4.257   7.587 -0.1288 -0.0315 -0.0108
  175MOL    C5635204   2.440   4.158   7.565  0.0537  0.1896 -0.5366
  175MOL    H5735205   2.163   4.426   7.665 -2.2597  1.9264  1.8742
  175MOL    H5835206   2.058   4.337   7.778 -0.2706 -1.7203 -0.6370
  175MOL    H5935207   2.338   4.358   7.552 -1.5376  0.4815  0.8123
  175MOL    H6035208   2.521   4.202   7.623  0.4791 -0.5097 -0.5913
  175MOL    H6135209   2.421   4.057   7.601  3.1362  0.3428  1.7503
  175MOL    C6235210   2.470   4.142   7.414  0.7136 -0.4983  0.4145
  175MOL    C6335211   2.611   4.083   7.384 -0.0568  0.1589  0.2440
  175MOL   Cl6435212   2.659   4.161   7.228 -0.3607 -0.5205  0.0451
  175MOL    C6535213   2.684   4.006   7.466 -0.2520  0.6970 -0.2181
  175MOL    C6635214   2.828   3.963   7.435  0.3206 -0.1362  0.0563
  175MOL    H6735215   2.383   4.091   7.372  0.1387 -0.7526  1.8845
  175MOL    H6835216   2.460   4.239   7.367  2.1684 -0.2026  0.6986
  175MOL    H6935217   2.649   3.972   7.563 -2.4268  0.4684 -1.0412
  175MOL    H7035218   2.904   3.980   7.511  0.2110 -2.6632  0.7930
  175MOL    H7135219   2.856   4.016   7.344 -0.2662 -0.9724 -0.6262
  175MOL    C7235220   2.851   3.812   7.413 -0.2777  0.0182 -0.0099
  175MOL    C7335221   2.873   3.734   7.543 -0.0407  0.2866 -0.0420
  175MOL   Cl7435222   3.048   3.719   7.571  0.0183  0.1389 -0.6057
  175MOL    C7535223   2.772   3.694   7.621  0.5646  0.0333 -0.2346
  175MOL    C7635224   2.776   3.615   7.746 -0.3024  0.3588  0.0590
  175MOL    H7735225   2.942   3.801   7.354  1.2428  0.7596  2.1661
  175MOL    H7835226   2.766   3.786   7.350  0.1321 -0.6304 -0.3020
  175MOL    H7935227   2.674   3.724   7.586 -0.9561 -3.0153  1.1701
  175MOL    H8035228   2.873   3.616   7.796  1.0952 -0.3545 -2.5001
  175MOL    H8135229   2.768   3.508   7.724 -1.0427  0.6976 -1.4114
  175MOL    C8235230   2.663   3.657   7.839 -0.4802  0.1412 -0.3025
  175MOL    C8335231   2.665   3.563   7.960  0.4680 -0.3444  0.2562
  175MOL   Cl8435232   2.520   3.473   7.968  0.2258 -0.3917  0.0402
  175MOL    C8535233   2.748   3.568   8.066 -0.1864  0.5213 -0.2612
  175MOL    C8635234   2.724   3.481   8.194  0.0200 -0.2584 -0.1845
  175MOL    H8735235   2.561   3.666   7.803  0.2273 -0.0333 -2.4409
  175MOL    H8835236   2.698   3.750   7.882  0.0984 -0.0693 -0.3015
  175MOL    H8935237   2.833   3.634   8.067  0.4603 -0.3120  0.1700
  175MOL    H9035238   2.649   3.402   8.193 -0.3634  0.0746  1.2666
  175MOL    H9135239   2.821   3.431   8.207 -0.0853 -1.3736 -3.1757
  175MOL    C9235240   2.699   3.565   8.322  0.2534 -0.1280  0.6329
  175MOL    C9335241   2.698   3.481   0.033 -0.1826 -0.2960 -0.1543
  175MOL   Cl9435242   2.855   3.442   0.085 -0.3023  0.2880 -0.4651
  175MOL    C9535243   2.593   3.427   0.094  0.2203  0.6365 -0.3163
  175MOL    C9635244   2.447   3.440   0.059  0.1951 -0.0799  0.3460
  175MOL    H9735245   2.599   3.603   8.303  0.2161 -1.1567 -1.3193
  175MOL    H9835246   2.772   3.646   8.332  0.6332 -0.3358 -0.4052
  175MOL    H9935247   2.608   3.369   0.183 -0.1912  1.9509  0.6308
  175MOL   H10035248   2.422   3.524   0.123  1.5965  0.9996 -0.4970
  175MOL   H10135249   2.434   3.463   8.375 -0.6947 -1.7688  0.0628
  175MOL   C10235250   2.354   3.323   0.095 -0.6434  0.1633  0.5284
  175MOL   C10335251   2.211   3.367   0.066 -0.3442  0.1636 -0.3000
  175MOL  Cl10435252   2.145   3.282   8.347  0.1378  0.0876  0.3375
  175MOL   C10535253   2.142   3.456   0.141 -0.3526  0.1852 -0.5379
  175MOL   C10635254   1.998   3.501   0.123  0.2674 -0.2691 -0.1204
  175MOL   H10735255   2.393   3.234   0.045  0.1457 -0.7938  2.8031
  175MOL   H10835256   2.360   3.307   0.202 -0.6222  1.4590  0.7331
  175MOL   H10935257   2.195   3.501   0.224  1.1626  0.8194 -1.8208
  175MOL   H11035258   1.941   3.414   0.090  0.1327  0.1922 -1.1405
  175MOL   H11135259   1.945   3.537   0.211 -0.2679  1.7826 -1.2424
  175MOL   C11235260   1.984   3.623   0.031  0.0850 -0.4224 -0.2341
  175MOL   C11335261   1.854   3.647   8.381 -0.1425  0.9471  0.4851
  175MOL  Cl11435262   1.827   3.546   8.244 -0.3218  0.0667 -0.0414
  175MOL   C11535263   1.762   3.732   0.002  0.6313  0.2918 -1.1730
  175MOL   C11635264   1.760   3.820   0.116 -0.7693 -0.6902  1.1772
  175MOL   H11735265   2.019   3.712   0.083 -1.3134 -0.1164  0.1795
  175MOL   H11835266   2.053   3.613   8.367  1.8243 -0.7794  1.1785
  175MOL   H11935267   1.673   3.734   8.362  0.3023 -1.0765 -0.7421
  175MOL   H12035268   1.694   3.902   0.086  0.6492  1.2719  3.2240
  175MOL   H12135269   1.859   3.865   0.118 -0.8943 -0.4235  1.4918
  175MOL   C12235270   1.706   3.754   0.237 -0.6034  0.4503 -0.9225
  175MOL   C12335271   1.560   3.701   0.228  0.6143 -0.0566 -0.3314
  175MOL  Cl12435272   1.446   3.816   0.277 -0.1509 -0.2225 -0.0114
  175MOL   C12535273   1.517   3.578   0.185  0.1643  0.0129 -0.3267
  175MOL   C12635274   1.604   3.470   0.129 -0.6119  0.0161  0.2158
  175MOL   H12735275   1.771   3.675   0.274 -1.4764  0.8543  1.5339
  175MOL   H12835276   1.715   3.830   0.314 -2.5378  0.8986 -1.1060
  175MOL   H12935277   1.413   3.553   0.198  0.1218  0.3585 -0.0121
  175MOL   H13035278   1.603   3.489   0.021 -0.9296  0.1621  0.2459
  175MOL   H13135279   1.708   3.480   0.161 -0.8853  0.5818  0.9229
  175MOL   C13235280   1.554   3.332   0.178  0.2220  0.4001  0.2207
  175MOL   C13335281   1.649   3.224   0.127 -0.0991  0.3047 -0.1356
  175MOL  Cl13435282   1.803   3.232   0.211  0.3516 -0.2785  0.4064
  175MOL   C13535283   1.626   3.141   0.022 -0.8432  0.0433 -0.1371
  175MOL   C13635284   1.503   3.133   8.347 -0.0855  0.0597  0.6809
  175MOL   H13735285   1.533   3.315   0.284 -0.7482  2.6119  0.4180
  175MOL   H13835286   1.454   3.306   0.146  0.6657 -0.5603 -0.4035
  175MOL   H13935287   1.706   3.070   0.007 -0.4921  0.4417 -0.1583
  175MOL   H14035288   1.466   3.031   8.341 -0.7841  0.3603 -0.1636
  175MOL   H14135289   1.419   3.183   8.395 -0.6488  0.0107 -0.2584
  175MOL   C14235290   1.515   3.213   8.207 -0.2634 -0.0094  0.3252
  175MOL   C14335291   1.649   3.180   8.133 -0.2271  0.1644 -0.5691
  175MOL  Cl14435292   1.690   3.014   8.154 -0.4702  0.2363 -0.0543
  175MOL   C14535293   1.710   3.259   8.047 -0.3550 -0.0101  0.2958
  175MOL   C14635294   1.831   3.233   7.960 -0.3866  0.5152 -0.1523
  175MOL   H14735295   1.506   3.320   8.224 -2.0028  0.1237 -1.2988
  175MOL   H14835296   1.427   3.193   8.146  1.4378 -0.9418 -1.8984
  175MOL   H14935297   1.683   3.363   8.041 -0.6334 -0.0714  0.4989
  175MOL   H15035298   1.863   3.129   7.972  0.3570  0.6471 -0.9079
  175MOL   H15135299   1.794   3.242   7.858  0.6233  0.8526 -0.4969
  175MOL   C15235300   1.949   3.334   7.980 -0.0075  0.1162 -0.5229
  175MOL   C15335301   2.078   3.297   7.897 -0.1754 -0.1179 -0.0822
  175MOL  Cl15435302   2.217   3.383   7.956  0.1480  0.4204 -0.3126
  175MOL   C15535303   2.077   3.202   7.798  0.0792  0.1888 -0.2639
  175MOL   C15635304   2.202   3.170   7.712  0.0217 -0.4839  0.0764
  175MOL   H15735305   1.910   3.432   7.952  3.1251  1.4463 -0.4669
  175MOL   H15835306   1.976   3.317   8.084  2.4775  1.5347 -0.9053
  175MOL   H15935307   1.984   3.156   7.768  0.2704  0.5993 -1.5129
  175MOL   H16035308   2.234   3.070   7.741 -1.3920 -0.3511  2.1990
  175MOL   H16135309   2.286   3.226   7.753 -1.4016  1.3101  0.6572
  175MOL   C16235310   2.193   3.192   7.562  0.2373  0.4639 -0.1469
  175MOL   C16335311   2.315   3.140   7.483 -0.0642 -0.2040 -0.0002
  175MOL  Cl16435312   2.437   3.267   7.457 -0.2227 -0.1651 -0.0832
  175MOL   C16535313   2.339   3.012   7.441  0.4926 -0.2571  0.2733
  175MOL   C16635314   2.458   2.969   7.371 -0.4858  0.6935  0.4373
  175MOL   H16735315   2.104   3.138   7.530  2.1295 -2.6813 -0.3296
  175MOL   H16835316   2.175   3.297   7.539  1.1481  0.9317  1.1887
  175MOL   H16935317   2.263   2.939   7.463 -0.2153 -0.1127 -1.6111
  175MOL   H17035318   2.447   2.962   7.262  0.7311  1.8786  0.2183
  175MOL   H17135319   2.538   3.039   7.394 -0.4218  0.7380  0.0807
  175MOL   C17235320   2.503   2.833   7.429 -0.4631 -0.3520 -0.3368
  175MOL   C17335321   2.638   2.784   7.370 -0.1326  0.2689 -0.3823
  175MOL  Cl17435322   2.776   2.879   7.407  0.0035  0.0355 -0.2333
  175MOL   C17535323   2.644   2.663   7.305 -0.1286  0.0542 -0.2990
  175MOL   C17635324   2.758   2.594   7.246 -0.0168  0.7167 -0.4740
  175MOL   H17735325   2.429   2.758   7.400 -0.9538  0.7135 -1.9130
  175MOL   H17835326   2.515   2.847   7.536 -2.8786  1.1634 -0.2281
  175MOL   H17935327   2.552   2.606   7.296 -0.5755  0.9802 -1.6776
  175MOL   H18035328   2.847   2.655   7.261  0.4435 -0.1690  0.5119
  175MOL   H18135329   2.745   2.588   7.138  1.2436  1.0207 -0.6582
  175MOL   C18235330   2.786   2.453   7.307  0.1894 -0.0142  0.0188
  175MOL   C18335331   2.886   2.369   7.239  0.2460 -0.5159 -0.0024
  175MOL  Cl18435332   3.022   2.352   7.341  0.0468  0.3199 -0.0203
  175MOL   C18535333   2.876   2.312   7.124  1.0185 -0.1800  0.5675
  175MOL   C18635334   2.992   2.234   7.060 -0.3345 -0.1579 -0.5259
  175MOL   H18735335   2.804   2.474   7.413 -2.1300 -0.7424  0.6037
  175MOL   H18835336   2.689   2.403   7.317 -0.3505  0.5763 -2.1829
  175MOL   H18935337   2.791   2.329   7.060  2.2798  1.5869 -0.7057
  175MOL   H19035338   3.061   2.204   7.138 -0.1948  2.5967  0.4664
  175MOL   H19135339   2.944   2.146   7.017 -0.1746 -0.1045 -0.8184
  175MOL   C19235340   3.065   2.304   6.943 -0.4936  0.1181 -0.0855
  175MOL   C19335341   3.199   2.231   6.924  0.4736  1.1664 -0.2291
  175MOL  Cl19435342   3.195   2.123   6.796 -0.3034 -0.6219 -0.2093
  175MOL   C19535343   3.312   2.253   6.991  0.5973 -0.0097  0.7151
  175MOL   C19635344   3.330   2.347   7.111 -0.5746  0.2698  0.0234
  175MOL   H19735345   3.082   2.411   6.949 -2.0690  0.2557  2.2831
  175MOL   H19835346   3.006   2.292   6.852 -1.5099 -0.7951  0.6847
  175MOL   H19935347   3.405   2.206   6.960  0.1514 -0.0742 -0.5798
  175MOL   H20035348   3.364   2.300   7.203 -0.5808 -0.8672 -0.5502
  175MOL   H20135349   3.240   2.402   7.139 -0.8898 -0.8770  1.3633
  175MOL   H20235350   3.396   2.429   7.083  1.5186 -1.6598 -0.8009
  176MOL     C135351   8.108   2.012   4.440  0.2557 -0.7778 -0.1741
  176MOL     C235352   8.013   2.125   4.485 -0.4270  0.2784 -0.2796
  176MOL    Cl335353   7.887   2.156   4.379  0.1491 -0.1239 -0.4144
  176MOL     C435354   8.018   2.184   4.606 -0.5571  0.3662  0.1332
  176MOL     C535355   8.118   2.135   4.712 -0.0740  0.1825  0.1806
  176MOL     H635356   8.077   1.972   4.343  0.9966 -1.4004 -0.1555
  176MOL     H735357   8.095   1.932   4.513 -4.7156 -0.7967 -0.8908
  176MOL     H835358   7.948   2.264   4.624  0.3574  1.4493 -1.0255
  176MOL     H935359   8.187   2.061   4.673 -1.4055 -0.9408 -0.0932
  176MOL    H1035360   8.178   2.220   4.744  1.7542 -1.3483  0.8999
  176MOL    H1135361   8.211   2.047   4.432 -0.7582  1.8704 -2.7231
  176MOL    C1235362   8.046   2.071   4.842 -0.6448 -0.6842 -0.1832
  176MOL    C1335363   8.140   2.051   4.959  0.1835  0.6233 -1.0332
  176MOL   Cl1435364   8.309   2.055   4.928 -0.1235 -0.2449 -0.0799
  176MOL    C1535365   8.101   2.011   5.081 -0.1059 -0.4666 -0.6152
  176MOL    C1635366   7.959   1.991   5.132 -0.7076 -0.1103  0.4401
  176MOL    H1735367   7.963   2.131   4.877  0.7861  1.2921 -0.0944
  176MOL    H1835368   7.997   1.974   4.828  0.0629 -0.5019 -4.8947
  176MOL    H1935369   8.175   1.994   5.159 -0.4356  1.9816  0.2632
  176MOL    H2035370   7.953   2.069   5.208 -0.5179  0.3791 -0.0416
  176MOL    H2135371   7.892   2.012   5.049  0.9649  2.9066 -0.2069
  176MOL    C2235372   7.933   1.851   5.190 -0.4047  0.2028  0.3131
  176MOL    C2335373   7.796   1.818   5.252 -0.1960 -0.1226  0.1967
  176MOL   Cl2435374   7.799   1.744   5.408  0.1573  0.2955 -0.1571
  176MOL    C2535375   7.681   1.834   5.187  0.0162 -0.1367 -1.5115
  176MOL    C2635376   7.537   1.826   5.241 -0.5995 -0.2933  0.1312
  176MOL    H2735377   7.929   1.780   5.108  1.3375  1.4396 -0.8646
  176MOL    H2835378   8.017   1.815   5.249 -0.0796  0.1089 -0.2094
  176MOL    H2935379   7.690   1.865   5.084 -1.6194  0.9601 -1.3558
  176MOL    H3035380   7.541   1.823   5.350 -1.7779 -1.0594  0.1613
  176MOL    H3135381   7.488   1.914   5.200  1.8653  0.9820 -0.1401
  176MOL    C3235382   7.474   1.698   5.191  0.2023 -0.6929  0.2292
  176MOL    C3335383   7.335   1.668   5.241  0.1940  0.2514  0.5316
  176MOL   Cl3435384   7.244   1.811   5.236 -0.2266  0.1063  0.0377
  176MOL    C3535385   7.275   1.547   5.263 -0.5658  0.7665  0.1187
  176MOL    C3635386   7.122   1.533   5.301 -0.0227  0.1764  0.6271
  176MOL    H3735387   7.467   1.687   5.083  1.0973 -2.8949  0.3599
  176MOL    H3835388   7.537   1.614   5.220  2.1972  1.0493  1.0807
  176MOL    H3935389   7.331   1.457   5.250  1.1490  1.3878  2.8689
  176MOL    H4035390   7.078   1.626   5.336 -0.7687 -0.0568  0.3331
  176MOL    H4135391   7.066   1.520   5.208  0.8558 -0.6348  0.1985
  176MOL    C4235392   7.090   1.409   5.388 -0.2193  0.0240  0.1020
  176MOL    C4335393   6.948   1.401   5.420  0.1249  0.2829  1.5501
  176MOL   Cl4435394   6.912   1.481   5.572 -0.3226  0.0887  0.1689
  176MOL    C4535395   6.853   1.350   5.345  0.2796  0.0453  0.8244
  176MOL    C4635396   6.867   1.296   5.204 -1.0685  0.3857 -0.0193
  176MOL    H4735397   7.139   1.318   5.352  1.1494  0.6600  0.3430
  176MOL    H4835398   7.152   1.426   5.476  0.2816  0.1627 -0.2716
  176MOL    H4935399   6.751   1.357   5.382 -0.7609  0.2378 -1.9334
  176MOL    H5035400   6.970   1.303   5.168 -1.3013 -0.2245 -0.8015
  176MOL    H5135401   6.835   1.192   5.203 -3.1788  1.0132 -2.0444
  176MOL    C5235402   6.774   1.377   5.111  0.0900  0.0840  0.3790
  176MOL    C5335403   6.777   1.325   4.967 -0.0033  0.4749  0.3923
  176MOL   Cl5435404   6.923   1.370   4.896 -0.1420 -0.2105 -0.0709
  176MOL    C5535405   6.680   1.267   4.908  0.1373 -0.4299  0.1658
  176MOL    C5635406   6.685   1.230   4.759 -0.1111  0.0761 -0.0728
  176MOL    H5735407   6.670   1.375   5.144 -0.8175  0.0946 -2.3651
  176MOL    H5835408   6.805   1.482   5.110  0.3890 -0.0006  0.6015
  176MOL    H5935409   6.587   1.247   4.959 -0.1696  3.2988  1.2445
  176MOL    H6035410   6.729   1.314   4.705  0.5368 -0.5406 -0.5073
  176MOL    H6135411   6.754   1.148   4.741 -1.1551 -0.9894  0.6696
  176MOL    C6235412   6.540   1.198   4.698  0.0833  1.0045  0.2635
  176MOL    C6335413   6.544   1.082   4.594  0.3537  0.2352 -1.1335
  176MOL   Cl6435414   6.395   0.993   4.620 -0.1335  0.3125  0.3900
  176MOL    C6535415   6.645   1.050   4.504  0.1316  0.2804 -1.2851
  176MOL    C6635416   6.652   0.930   4.410 -0.7587 -0.3416  0.1788
  176MOL    H6735417   6.469   1.191   4.781  0.0671  0.4220  0.2014
  176MOL    H6835418   6.520   1.286   4.637 -0.4644 -0.3397 -1.5306
  176MOL    H6935419   6.726   1.121   4.501  0.7797 -0.5363 -3.5665
  176MOL    H7035420   6.643   0.963   4.307  3.0298  0.8377  0.1305
  176MOL    H7135421   6.578   0.852   4.428 -1.1884 -0.2232 -1.0500
  176MOL    C7235422   6.792   0.862   4.420 -0.3591  0.8377 -0.1580
  176MOL    C7335423   6.820   0.812   4.559 -0.3624 -0.6791  0.0229
  176MOL   Cl7435424   6.756   0.656   4.587 -0.0670  0.0076  0.1685
  176MOL    C7535425   6.901   0.870   4.648 -1.1362  0.0534 -0.4042
  176MOL    C7635426   6.937   0.804   4.786  0.2262 -0.1665  0.8333
  176MOL    H7735427   6.872   0.933   4.396  0.9887 -0.3098  0.8971
  176MOL    H7835428   6.789   0.778   4.350  0.3979  1.2527 -0.6994
  176MOL    H7935429   6.944   0.967   4.629  2.2454 -1.2492  0.3814
  176MOL    H8035430   7.008   0.729   4.750 -1.3529 -0.6615 -1.3602
  176MOL    H8135431   6.852   0.763   4.841  1.4504 -0.7162  2.3742
  176MOL    C8235432   7.005   0.907   4.881 -0.0332  0.3080  0.2102
  176MOL    C8335433   7.071   0.841   5.000  0.2184 -0.2277 -0.2330
  176MOL   Cl8435434   7.090   0.962   5.122  0.1359  0.6849 -0.2112
  176MOL    C8535435   7.129   0.718   5.003 -0.3594 -0.0788  0.1402
  176MOL    C8635436   7.201   0.660   5.127  0.1634  0.2361 -0.1609
  176MOL    H8735437   6.932   0.979   4.918  2.2040  1.8626  1.6959
  176MOL    H8835438   7.085   0.964   4.834  1.2379 -1.9458 -0.4137
  176MOL    H8935439   7.134   0.658   4.913  1.6961 -0.2112  0.3260
  176MOL    H9035440   7.290   0.609   5.090 -0.5027 -0.9634 -0.1444
  176MOL    H9135441   7.241   0.739   5.191 -1.1297  1.5764 -0.9688
  176MOL    C9235442   7.106   0.567   5.200  0.2536  0.3275 -0.7170
  176MOL    C9335443   7.142   0.557   5.349 -0.1168  0.0368 -0.4413
  176MOL   Cl9435444   7.265   0.448   5.391  0.1936 -0.2540  0.2864
  176MOL    C9535445   7.069   0.618   5.443 -0.5909 -0.6292 -0.9303
  176MOL    C9635446   6.946   0.704   5.427 -0.9001 -0.4572  0.2629
  176MOL    H9735447   7.126   0.469   5.158 -2.2960 -0.0347 -1.2125
  176MOL    H9835448   6.998   0.578   5.188  0.2088 -0.5772 -1.2045
  176MOL    H9935449   7.090   0.600   5.548 -0.3848  0.0010 -0.8612
  176MOL   H10035450   6.939   0.779   5.506 -0.7770 -1.0096  0.8033
  176MOL   H10135451   6.955   0.767   5.339  0.5467 -1.1995 -0.1261
  176MOL   C10235452   6.815   0.621   5.423  0.3281  1.1099 -0.5720
  176MOL   C10335453   6.689   0.707   5.388 -0.1363  0.6824 -0.2154
  176MOL  Cl10435454   6.582   0.633   5.275  0.3236  0.6703  0.0148
  176MOL   C10535455   6.664   0.828   5.444 -0.3015  0.6613  0.1263
  176MOL   C10635456   6.547   0.919   5.411  0.9794  0.7487  0.3895
  176MOL   H10735457   6.832   0.541   5.351 -0.3040  1.3386 -0.9738
  176MOL   H10835458   6.801   0.570   5.518  0.5753  0.2310 -1.0032
  176MOL   H10935459   6.737   0.860   5.517  0.2074  0.5837 -0.3435
  176MOL   H11035460   6.489   0.872   5.332 -0.0091 -0.0466  1.5568
  176MOL   H11135461   6.490   0.919   5.504  0.6615  0.5499  0.1931
  176MOL   C11235462   6.592   1.059   5.369 -0.4751 -0.2187  0.2725
  176MOL   C11335463   6.481   1.153   5.327  0.4952 -0.1542  0.5578
  176MOL  Cl11435464   6.429   1.153   5.158  0.0949 -0.2297 -0.2247
  176MOL   C11535465   6.413   1.227   5.414 -0.2376  0.0986 -0.6681
  176MOL   C11635466   6.441   1.244   5.568 -0.0166  0.4511 -0.0653
  176MOL   H11735467   6.646   1.099   5.454  2.0879  1.1921 -1.9577
  176MOL   H11835468   6.666   1.063   5.289  1.2538  1.3464  1.9273
  176MOL   H11935469   6.327   1.277   5.371 -1.2536 -0.9938  0.0598
  176MOL   H12035470   6.458   1.153   5.625  0.8012  1.1010  0.7421
  176MOL   H12135471   6.352   1.289   5.613  0.5603  1.8065 -0.2371
  176MOL   C12235472   6.556   1.347   5.590 -0.5697 -0.3797  0.4789
  176MOL   C12335473   6.576   1.380   5.733 -0.1854 -0.0208 -0.6750
  176MOL  Cl12435474   6.565   1.551   5.761  0.2434 -0.5347  0.5340
  176MOL   C12535475   6.619   1.292   5.829 -0.4080  0.5312 -1.0637
  176MOL   C12635476   6.642   1.136   5.809 -0.6727 -0.7807 -0.0187
  176MOL   H12735477   6.651   1.305   5.556  0.5122  2.2228  0.1317
  176MOL   H12835478   6.541   1.438   5.532  0.2118  0.1572  1.1104
  176MOL   H12935479   6.634   1.328   5.929  2.0323 -2.8114 -0.1626
  176MOL   H13035480   6.634   1.101   5.706  1.6456  1.3142 -0.9925
  176MOL   H13135481   6.746   1.111   5.831 -0.4512  0.6172  0.5811
  176MOL   C13235482   6.547   1.048   5.891  0.2100  0.4340 -0.2843
  176MOL   C13335483   6.602   0.922   5.934  0.2411 -0.2781  0.3526
  176MOL  Cl13435484   6.605   0.818   5.802  0.3161 -0.3477  0.3549
  176MOL   C13535485   6.648   0.884   6.053 -0.0668 -0.8693  0.2290
  176MOL   C13635486   6.655   0.976   6.173  0.1236 -0.4632 -0.2788
  176MOL   H13735487   6.518   1.111   5.976 -0.0855 -0.7244  0.4846
  176MOL   H13835488   6.457   1.012   5.842  0.8775 -0.3197 -0.9816
  176MOL   H13935489   6.687   0.786   6.078  0.8454 -0.5359  0.1554
  176MOL   H14035490   6.749   1.030   6.172 -0.1861  0.0663 -1.1011
  176MOL   H14135491   6.575   1.050   6.175  0.0342 -0.5611  2.0450
  176MOL   C14235492   6.644   0.884   6.300  0.7451  0.4933  0.7306
  176MOL   C14335493   6.636   0.954   6.436  0.3852 -0.4667  0.9511
  176MOL  Cl14435494   6.499   0.917   6.530  0.0936  0.3978 -0.3237
  176MOL   C14535495   6.727   1.036   6.486 -0.2163 -0.4998 -0.5709
  176MOL   C14635496   6.719   1.108   6.620  0.5681 -0.3695 -0.3378
  176MOL   H14735497   6.727   0.814   6.288  2.0960  2.1143  0.4153
  176MOL   H14835498   6.551   0.829   6.286  0.7031  0.7477 -0.0501
  176MOL   H14935499   6.817   1.052   6.428  1.8171 -2.4491  1.9122
  176MOL   H15035500   6.748   1.213   6.616  1.0608 -0.4337  1.2858
  176MOL   H15135501   6.620   1.099   6.665  0.0452 -0.5093 -1.4976
  176MOL   C15235502   6.810   1.039   6.723  0.1635 -0.0370  0.4760
  176MOL   C15335503   6.804   1.096   6.859  0.4280 -0.4926 -0.2082
  176MOL  Cl15435504   6.920   1.216   6.894  0.1670 -0.1913  0.2722
  176MOL   C15535505   6.718   1.054   6.962 -0.1373  0.0258 -0.4780
  176MOL   C15635506   6.714   1.126   7.097 -0.0615 -0.2276  0.8817
  176MOL   H15735507   6.782   0.938   6.751  0.7249 -0.0751  0.8985
  176MOL   H15835508   6.915   1.025   6.697  0.2405  3.3768 -1.3889
  176MOL   H15935509   6.650   0.972   6.945  1.3241 -1.2588 -0.2260
  176MOL   H16035510   6.753   1.228   7.094  0.0327 -0.2599  1.0123
  176MOL   H16135511   6.775   1.068   7.166 -0.7009  1.2319  2.7301
  176MOL   C16235512   6.568   1.137   7.166  0.2427 -0.0443  0.3764
  176MOL   C16335513   6.510   1.008   7.215  0.3098  0.4718  0.4241
  176MOL  Cl16435514   6.341   1.004   7.176  0.1471  0.1054 -0.5477
  176MOL   C16535515   6.570   0.910   7.278  0.4096 -0.6125 -0.5241
  176MOL   C16635516   6.514   0.777   7.322  0.1876  0.5461 -0.6656
  176MOL   H16735517   6.566   1.198   7.256  0.7397  1.3839 -0.5572
  176MOL   H16835518   6.495   1.183   7.100  1.3194  1.9644  0.5562
  176MOL   H16935519   6.675   0.920   7.303  0.0179 -0.4183  1.0516
  176MOL   H17035520   6.568   0.738   7.408 -0.2822 -3.5814 -2.1241
  176MOL   H17135521   6.415   0.795   7.363 -0.7291  0.2988 -2.7039
  176MOL   C17235522   6.527   0.664   7.221  0.4815 -0.2231  0.1504
  176MOL   C17335523   6.438   0.678   7.093 -0.2285 -0.2009  0.2884
  176MOL  Cl17435524   6.531   0.747   6.960  0.2929 -0.3353 -0.1245
  176MOL   C17535525   6.306   0.649   7.081  0.6254 -0.7487  0.0817
  176MOL   C17635526   6.229   0.665   6.952 -0.1831  0.4673 -0.4826
  176MOL   H17735527   6.506   0.574   7.278  1.0764 -1.7280 -1.9219
  176MOL   H17835528   6.630   0.650   7.187 -0.0335 -1.7377 -0.8197
  176MOL   H17935529   6.252   0.622   7.171  2.0016 -2.2680  0.4748
  176MOL   H18035530   6.153   0.587   6.948  0.3296 -0.0893  0.4717
  176MOL   H18135531   6.295   0.656   6.866 -0.1388 -4.4901 -0.0613
  176MOL   C18235532   6.170   0.809   6.931  0.8911  0.4610  0.5752
  176MOL   C18335533   6.107   0.816   6.791 -0.1397 -0.1509  0.1975
  176MOL  Cl18435534   6.033   0.969   6.767  0.1020  0.1804 -0.2388
  176MOL   C18535535   6.103   0.723   6.693  0.4620 -0.2428  0.2618
  176MOL   C18635536   6.042   0.739   6.556  0.4500  0.0962  0.0241
  176MOL   H18735537   6.104   0.837   7.013 -0.5221  0.2447 -0.4632
  176MOL   H18835538   6.247   0.886   6.930 -1.0512  2.4298 -1.5360
  176MOL   H18935539   6.141   0.623   6.707 -0.5993 -0.6796  0.1053
  176MOL   H19035540   6.013   0.843   6.541 -2.9517 -0.4536  2.0654
  176MOL   H19135541   6.102   0.694   6.477 -0.8651 -0.4563 -0.6746
  176MOL   C19235542   5.910   0.661   6.564 -0.0601 -0.1081 -0.1317
  176MOL   C19335543   5.869   0.587   6.435 -0.1381 -0.0451  0.9734
  176MOL  Cl19435544   5.991   0.477   6.382 -0.1043  0.0698  0.0330
  176MOL   C19535545   5.747   0.587   6.372 -0.2316  0.1458  0.2156
  176MOL   C19635546   5.621   0.665   6.403 -0.7590  0.5904  0.6098
  176MOL   H19735547   5.847   0.738   6.609 -1.4284  0.4482 -2.8820
  176MOL   H19835548   5.905   0.581   6.638  0.9450 -1.1616 -1.2003
  176MOL   H19935549   5.748   0.522   6.285  1.0013 -1.2624  1.2391
  176MOL   H20035550   5.594   0.724   6.315  1.8287  1.9444  0.6683
  176MOL   H20135551   5.618   0.729   6.491 -0.6576  3.2564 -1.2825
  176MOL   H20235552   5.543   0.589   6.413 -0.2510 -0.3210 -1.9888
  177MOL     C135553   6.635   2.647   2.289 -0.0059 -0.5131  0.3204
  177MOL     C235554   6.517   2.674   2.206 -0.3251  0.4339 -0.3673
  177MOL    Cl335555   6.457   2.836   2.223  0.2719 -0.1032  0.0754
  177MOL     C435556   6.474   2.590   2.102 -0.2713 -0.7782 -0.3090
  177MOL     C535557   6.514   2.443   2.068 -0.2725  0.1316  0.0146
  177MOL     H635558   6.702   2.733   2.298  1.1143 -1.3140 -0.3043
  177MOL     H735559   6.696   2.562   2.261 -2.4485 -1.8861 -0.9706
  177MOL     H835560   6.387   2.632   2.052  0.4309 -0.1962 -1.0428
  177MOL     H935561   6.493   2.427   1.962 -0.7858 -3.3900  0.5670
  177MOL    H1035562   6.620   2.440   2.091  0.0629 -0.3587 -1.5269
  177MOL    H1135563   6.602   2.618   2.389  1.1641 -1.6623  0.3871
  177MOL    C1235564   6.433   2.340   2.139  0.4121 -0.2616  0.4866
  177MOL    C1335565   6.466   2.204   2.083  0.5347 -0.3186  0.2160
  177MOL   Cl1435566   6.391   2.161   1.930 -0.0033  0.1245 -0.3104
  177MOL    C1535567   6.555   2.125   2.142 -0.1898 -0.1640 -0.2302
  177MOL    C1635568   6.646   2.145   2.264  0.4303 -0.3714  0.3513
  177MOL    H1735569   6.447   2.345   2.247 -0.2664  1.3182  0.5054
  177MOL    H1835570   6.325   2.338   2.123  0.6034 -3.3382 -0.9167
  177MOL    H1935571   6.567   2.030   2.092 -2.4077  0.3889 -1.9033
  177MOL    H2035572   6.628   2.245   2.303  2.0812 -0.3806  1.1788
  177MOL    H2135573   6.623   2.077   2.347  0.1900 -1.7769 -0.8519
  177MOL    C2235574   6.796   2.115   2.240  0.6630  0.1184  1.1522
  177MOL    C2335575   6.860   2.099   2.370  0.2526  0.4535 -0.3344
  177MOL   Cl2435576   6.976   2.227   2.408 -0.0650 -0.5252 -0.1612
  177MOL    C2535577   6.846   1.994   2.451  0.1529 -0.1619  0.3677
  177MOL    C2635578   6.919   1.970   2.586  0.5822 -0.8061 -0.5791
  177MOL    H2735579   6.811   2.023   2.184 -1.8142 -0.7533  1.8930
  177MOL    H2835580   6.837   2.197   2.180  1.2981  0.7521  2.4436
  177MOL    H2935581   6.772   1.916   2.439  0.1074 -0.0400 -0.1452
  177MOL    H3035582   6.898   1.863   2.594 -0.5409 -0.5312  0.2330
  177MOL    H3135583   7.027   1.979   2.574  0.6665 -2.2286 -0.9489
  177MOL    C3235584   6.856   2.049   2.701  0.6802  0.3976 -0.2500
  177MOL    C3335585   6.937   2.023   2.825  0.4319 -0.2101  0.4360
  177MOL   Cl3435586   6.999   1.856   2.840 -0.2434 -0.4267  0.0060
  177MOL    C3535587   6.959   2.120   2.918  0.1774  0.0256 -0.9168
  177MOL    C3635588   7.029   2.112   3.049 -0.6291 -0.1103  0.0869
  177MOL    H3735589   6.857   2.155   2.673  1.4578  0.7033  0.9289
  177MOL    H3835590   6.750   2.033   2.719  0.8761  2.4517  3.1447
  177MOL    H3935591   6.926   2.220   2.895  0.6668 -0.3883 -3.4769
  177MOL    H4035592   7.029   2.009   3.086  2.4724 -0.5383 -0.9868
  177MOL    H4135593   7.135   2.135   3.052 -0.5996 -0.3429  1.0826
  177MOL    C4235594   6.988   2.218   3.151  0.0443  0.1812 -0.7093
  177MOL    C4335595   7.033   2.185   3.292 -0.8000  0.0903  0.6941
  177MOL   Cl4435596   6.899   2.116   3.386 -0.1093  0.0675 -0.0268
  177MOL    C4535597   7.158   2.217   3.343  0.0220 -0.1282 -0.4824
  177MOL    C4635598   7.279   2.270   3.264  0.2144  0.1270  0.3733
  177MOL    H4735599   7.029   2.316   3.125 -0.8479  0.4131 -1.2670
  177MOL    H4835600   6.880   2.236   3.151  0.1798  1.0373 -0.7323
  177MOL    H4935601   7.178   2.203   3.448  2.1051  1.2906 -0.6618
  177MOL    H5035602   7.337   2.179   3.251  0.0663  0.3092 -1.8147
  177MOL    H5135603   7.256   2.301   3.162  0.2120  0.6080  0.5213
  177MOL    C5235604   7.367   2.367   3.329  0.5420  0.1222 -0.0541
  177MOL    C5335605   7.309   2.508   3.349 -0.8583  0.0162  0.0675
  177MOL   Cl5435606   7.148   2.536   3.303 -0.4434  0.1130  0.1794
  177MOL    C5535607   7.377   2.601   3.422  0.0713  0.1967 -0.1795
  177MOL    C5635608   7.332   2.737   3.463  0.2856  0.3742  0.1571
  177MOL    H5735609   7.390   2.330   3.429  1.4064  0.9247  0.0538
  177MOL    H5835610   7.462   2.374   3.276  0.2899  2.2284 -0.2904
  177MOL    H5935611   7.479   2.584   3.455  0.2474  2.2082  0.3805
  177MOL    H6035612   7.250   2.772   3.399 -0.1996 -0.6589  0.2153
  177MOL    H6135613   7.291   2.746   3.564  3.4863 -1.3337  1.6912
  177MOL    C6235614   7.432   2.847   3.448  0.5213 -0.2496 -0.3235
  177MOL    C6335615   7.375   2.987   3.467 -0.4258 -0.3182  0.5878
  177MOL   Cl6435616   7.432   3.098   3.349 -0.0246  0.1710 -0.0179
  177MOL    C6535617   7.300   3.032   3.571 -0.7654  0.0607  0.1308
  177MOL    C6635618   7.245   3.168   3.578  0.1669  0.9991 -0.4562
  177MOL    H6735619   7.512   2.841   3.522 -0.1578  0.0419  0.4386
  177MOL    H6835620   7.479   2.841   3.350 -0.2914  0.6656 -0.7820
  177MOL    H6935621   7.277   2.959   3.647  0.5564 -0.3971  0.1117
  177MOL    H7035622   7.137   3.160   3.594  0.3488  1.2083  0.9271
  177MOL    H7135623   7.271   3.230   3.492 -0.2630  1.4213 -0.2897
  177MOL    C7235624   7.292   3.230   3.702  0.9307 -0.7472  0.0176
  177MOL    C7335625   7.231   3.365   3.733  0.1569  0.2396  0.7675
  177MOL   Cl7435626   7.168   3.354   3.895 -0.0656  0.3353  0.1405
  177MOL    C7535627   7.214   3.469   3.655  0.2577 -0.2935  0.2499
  177MOL    C7635628   7.147   3.602   3.689  0.1092 -0.1580 -0.6262
  177MOL    H7735629   7.400   3.244   3.709  0.9579 -0.4678 -0.8439
  177MOL    H7835630   7.281   3.172   3.794  0.9144  0.3455  0.7148
  177MOL    H7935631   7.248   3.466   3.552 -0.3992  2.6979 -0.0930
  177MOL    H8035632   7.222   3.668   3.732 -1.2388 -0.3246  2.0810
  177MOL    H8135633   7.073   3.582   3.767  0.5941 -0.3400 -0.2105
  177MOL    C8235634   7.066   3.668   3.574 -0.4447  0.2011 -0.5805
  177MOL    C8335635   7.010   3.802   3.607  0.8764 -0.7716 -0.2772
  177MOL   Cl8435636   6.843   3.789   3.629  0.0054 -0.1904  0.0321
  177MOL    C8535637   7.072   3.923   3.610 -0.3057 -0.0468 -0.2574
  177MOL    C8635638   7.011   4.057   3.644  0.1548  0.0561 -0.2245
  177MOL    H8735639   6.979   3.611   3.542 -0.5620  1.0826 -1.8828
  177MOL    H8835640   7.132   3.668   3.487 -0.8867 -1.4883 -0.9502
  177MOL    H8935641   7.173   3.933   3.573 -0.2110  2.5827  0.6078
  177MOL    H9035642   6.983   4.104   3.550 -2.1886 -2.8566 -1.0716
  177MOL    H9135643   6.921   4.041   3.703 -0.2110  0.4204 -0.6894
  177MOL    C9235644   7.108   4.152   3.719 -0.1548 -0.3829 -0.3850
  177MOL    C9335645   7.037   4.287   3.745  0.0084  0.1464 -0.5119
  177MOL   Cl9435646   6.978   4.281   3.907 -0.0275 -0.0055 -0.4696
  177MOL    C9535647   7.003   4.378   3.660 -0.7558  0.0232 -0.2827
  177MOL    C9635648   7.048   4.380   3.518 -0.3948 -1.0360  0.3615
  177MOL    H9735649   7.206   4.151   3.670 -0.1474  0.4984 -0.3841
  177MOL    H9835650   7.134   4.115   3.818  1.5846 -1.9735 -1.3823
  177MOL    H9935651   6.933   4.455   3.687 -0.4182  0.3698 -0.3860
  177MOL   H10035652   7.086   4.282   3.490 -1.0309 -1.2792  0.3436
  177MOL   H10135653   6.956   4.395   3.462  0.7736  0.1681 -1.2974
  177MOL   C10235654   7.133   4.504   3.490  0.5292 -0.3437 -0.1596
  177MOL   C10335655   7.274   4.488   3.538 -0.6133 -0.2988 -0.4035
  177MOL  Cl10435656   7.361   4.385   3.424 -0.1163 -0.1590  0.0436
  177MOL   C10535657   7.317   4.535   3.656 -0.1660 -0.7363 -0.0229
  177MOL   C10635658   7.452   4.510   3.718 -0.3414  0.0585 -0.0623
  177MOL   H10735659   7.135   4.529   3.384  0.8119 -0.7091 -0.2410
  177MOL   H10835660   7.088   4.593   3.534 -0.5788 -0.9589 -0.0225
  177MOL   H10935661   7.253   4.593   3.722  1.1370  0.9145 -0.1738
  177MOL   H11035662   7.507   4.454   3.643  0.3865  1.0255 -0.2624
  177MOL   H11135663   7.496   4.608   3.738 -2.3343  0.9613  0.0812
  177MOL   C11235664   7.452   4.418   3.849 -0.4985  0.1231  0.1335
  177MOL   C11335665   7.401   4.496   3.969 -0.1165  0.1894  0.1414
  177MOL  Cl11435666   7.231   4.482   3.975  0.1365  0.1462 -0.0468
  177MOL   C11535667   7.484   4.573   4.045 -0.1397 -0.3000  0.9795
  177MOL   C11635668   7.629   4.585   4.040  0.2612 -0.0787  0.3405
  177MOL   H11735669   7.394   4.328   3.829 -0.9747  0.7607 -1.4862
  177MOL   H11835670   7.553   4.388   3.875 -0.6426  0.6858  1.4196
  177MOL   H11935671   7.435   4.611   4.134  0.5659  2.0905  0.3785
  177MOL   H12035672   7.655   4.683   4.081  3.5996 -0.4075 -0.8407
  177MOL   H12135673   7.663   4.583   3.937 -0.8736  1.1761 -0.0856
  177MOL   C12235674   7.696   4.476   4.123 -0.0659  0.7793  0.1783
  177MOL   C12335675   7.685   4.487   4.280 -0.6616 -0.1846 -0.3653
  177MOL  Cl12435676   7.619   4.632   4.336 -0.0847 -0.0663 -0.2222
  177MOL   C12535677   7.729   4.396   4.367 -0.5722 -0.0678 -0.0496
  177MOL   C12635678   7.795   4.260   4.331 -0.5410 -0.4944 -0.0761
  177MOL   H12735679   7.654   4.379   4.097 -1.4847  1.3632  0.2349
  177MOL   H12835680   7.804   4.471   4.112 -0.1297  1.0373 -0.6249
  177MOL   H12935681   7.719   4.416   4.473  1.0214 -0.7560  0.2428
  177MOL   H13035682   7.738   4.178   4.375  1.7201 -2.2517 -0.3534
  177MOL   H13135683   7.795   4.239   4.224  0.0602  0.7975 -0.3343
  177MOL   C13235684   7.932   4.272   4.388  0.2250 -0.6535 -0.6388
  177MOL   C13335685   8.005   4.133   4.401  0.5705 -0.3877  0.5389
  177MOL  Cl13435686   8.033   4.109   4.574  0.0156 -0.2416  0.1918
  177MOL   C13535687   8.033   4.042   4.305  0.0054  0.3445  0.4242
  177MOL   C13635688   8.002   4.062   4.154 -0.0472 -0.0087 -0.1409
  177MOL   H13735689   7.994   4.327   4.317 -1.6949  0.6780 -1.3288
  177MOL   H13835690   7.938   4.318   4.487 -1.2144 -0.0455 -0.8180
  177MOL   H13935691   8.069   3.945   4.337  0.3124  0.5302  0.6410
  177MOL   H14035692   7.896   4.041   4.143 -0.4216  1.3164  0.8549
  177MOL   H14135693   8.023   4.166   4.128  0.2056  0.0579  0.3291
  177MOL   C14235694   8.074   3.966   4.053  0.7682 -0.4436 -1.1012
  177MOL   C14335695   8.034   3.998   3.910 -0.1200 -1.0677  0.3804
  177MOL  Cl14435696   8.114   3.880   3.808  0.2058  0.3925  0.0231
  177MOL   C14535697   7.950   4.093   3.863 -0.1251  1.1401 -0.0916
  177MOL   C14635698   7.914   4.102   3.718 -0.0706  0.1823 -0.4859
  177MOL   H14735699   8.043   3.863   4.071  1.3921 -0.2217  1.4478
  177MOL   H14835700   8.183   3.959   4.058  0.8164  0.8248 -0.2174
  177MOL   H14935701   7.906   4.162   3.933 -3.1127 -0.0449 -0.7221
  177MOL   H15035702   7.958   4.194   3.679 -1.7866  0.5898 -1.5135
  177MOL   H15135703   7.964   4.025   3.659  2.0478 -0.8562  2.5281
  177MOL   C15235704   7.762   4.119   3.712 -0.1152 -0.7493  0.2858
  177MOL   C15335705   7.699   4.095   3.575  0.2318 -0.3734  0.2583
  177MOL  Cl15435706   7.764   4.198   3.450 -0.0661 -0.0218 -0.3010
  177MOL   C15535707   7.630   3.986   3.548  0.0911 -0.2199 -0.4155
  177MOL   C15635708   7.587   3.930   3.413  0.9144  0.1697 -0.2005
  177MOL   H15735709   7.714   4.056   3.787  0.0781  0.1981  1.2353
  177MOL   H15835710   7.740   4.221   3.746 -0.8636 -0.4455 -1.0925
  177MOL   H15935711   7.598   3.931   3.635 -0.7948  0.4750 -0.3019
  177MOL   H16035712   7.636   3.832   3.406  0.3822 -0.1679  0.7430
  177MOL   H16135713   7.629   3.981   3.326 -0.4811  1.2171 -0.2669
  177MOL   C16235714   7.436   3.916   3.400  0.4185 -0.3591  0.5375
  177MOL   C16335715   7.394   3.864   3.267  0.0320 -0.2177  0.0490
  177MOL  Cl16435716   7.301   3.720   3.283 -0.0048  0.0788  0.2264
  177MOL   C16535717   7.427   3.925   3.153 -0.1360  0.4841 -0.3533
  177MOL   C16635718   7.388   3.877   3.009  0.3970 -0.1873 -0.1775
  177MOL   H16735719   7.401   3.854   3.483  0.3130 -0.6083  0.3070
  177MOL   H16835720   7.377   4.005   3.419 -0.0555 -0.7651  1.0140
  177MOL   H16935721   7.486   4.016   3.158  0.9579 -0.2453  0.1079
  177MOL   H17035722   7.469   3.827   2.956  0.7623 -1.3992  1.4796
  177MOL   H17135723   7.305   3.807   3.019 -0.0845  0.5203  0.8978
  177MOL   C17235724   7.342   4.000   2.923  0.5347  0.1609 -0.2987
  177MOL   C17335725   7.249   3.963   2.815 -0.0536  0.4850  0.0659
  177MOL  Cl17435726   7.348   3.964   2.672  0.3409  0.3478  0.2938
  177MOL   C17535727   7.117   3.946   2.822  0.0995 -1.1191  0.0677
  177MOL   C17635728   7.023   3.909   2.713  0.5493  0.9051  0.0739
  177MOL   H17735729   7.438   4.045   2.898  1.2155 -0.5430  0.9787
  177MOL   H17835730   7.298   4.077   2.987  0.1675 -1.1148  1.0194
  177MOL   H17935731   7.072   3.967   2.918  1.4001 -0.3077  0.5086
  177MOL   H18035732   6.977   3.819   2.754 -0.4755  2.6482  2.8708
  177MOL   H18135733   7.069   3.891   2.615  1.7128 -3.6552  1.3327
  177MOL   C18235734   6.907   4.008   2.704  0.2793 -0.3149  0.3656
  177MOL   C18335735   6.782   3.962   2.627 -0.6702 -0.5610 -0.5385
  177MOL  Cl18435736   6.694   3.861   2.733  0.3311 -0.7946 -0.2459
  177MOL   C18535737   6.739   3.997   2.502  0.8889 -0.1942 -0.4461
  177MOL   C18635738   6.601   3.957   2.447 -0.1231  0.0206 -0.2257
  177MOL   H18735739   6.874   4.031   2.805  0.3728 -3.5715  1.1879
  177MOL   H18835740   6.933   4.099   2.649 -0.1498 -1.3204 -1.5331
  177MOL   H18935741   6.803   4.055   2.437 -0.8770  0.5604 -1.5658
  177MOL   H19035742   6.544   3.932   2.537  0.4126 -1.3508 -0.2481
  177MOL   H19135743   6.555   4.047   2.408 -0.9540  0.0240  0.7342
  177MOL   C19235744   6.599   3.833   2.354 -0.4584  0.2956 -0.2176
  177MOL   C19335745   6.665   3.867   2.224  0.8950  1.1162  0.5215
  177MOL  Cl19435746   6.559   3.968   2.122  0.1089 -0.3168 -0.3849
  177MOL   C19535747   6.791   3.831   2.182  0.2608  0.2991  0.5349
  177MOL   C19635748   6.881   3.732   2.249  0.7133 -0.0826  0.7301
  177MOL   H19735749   6.499   3.799   2.326  0.2300 -1.3642 -0.6674
  177MOL   H19835750   6.650   3.751   2.403  3.2213  1.9335 -1.1162
  177MOL   H19935751   6.833   3.865   2.089  2.1310 -0.1542  1.1914
  177MOL   H20035752   6.892   3.648   2.181  1.1130  0.1544  0.4949
  177MOL   H20135753   6.853   3.689   2.345 -2.9655  0.4238 -0.0667
  177MOL   H20235754   6.985   3.764   2.260  0.7120 -0.8193  2.9220
  178MOL     C135755   7.953   4.501   1.473  0.2268 -0.1550 -0.0936
  178MOL     C235756   7.984   4.645   1.449 -0.1277 -0.0634  0.7858
  178MOL    Cl335757   8.098   4.711   1.554 -0.2602 -0.0128  0.2559
  178MOL     C435758   7.920   4.724   1.369  0.0361 -0.4309 -0.5915
  178MOL     C535759   7.812   4.692   1.266  0.3627 -0.1757  1.1256
  178MOL     H635760   7.876   4.486   1.548  0.8144  0.6867  0.6938
  178MOL     H735761   8.042   4.451   1.513 -0.0955 -0.0173  0.7919
  178MOL     H835762   7.955   4.826   1.383  0.6408 -0.5782 -0.9944
  178MOL     H935763   7.823   4.594   1.219  0.4904  1.5931 -2.7068
  178MOL    H1035764   7.712   4.700   1.307  0.3410  0.2320  0.9925
  178MOL    H1135765   7.915   4.459   1.380 -1.3157  2.4321 -0.6799
  178MOL    C1235766   7.815   4.792   1.145  0.1999 -0.3827  0.4270
  178MOL    C1335767   7.821   4.944   1.180  0.2792  0.1218 -0.0338
  178MOL   Cl1435768   7.978   5.004   1.153  0.0258  0.4278 -0.3950
  178MOL    C1535769   7.726   5.019   1.234 -0.0252 -0.0830  0.0864
  178MOL    C1635770   7.580   4.977   1.263 -0.4146  0.0670 -0.2146
  178MOL    H1735771   7.905   4.767   1.089  0.2726  2.0781 -0.6127
  178MOL    H1835772   7.726   4.767   1.088 -0.5520 -0.2003  1.5076
  178MOL    H1935773   7.752   5.117   1.271 -0.2620  0.1030 -0.2408
  178MOL    H2035774   7.562   4.870   1.256 -0.5705  0.0077  0.9470
  178MOL    H2135775   7.565   5.003   1.368  2.3713  1.0365 -0.0100
  178MOL    C2235776   7.476   5.067   1.182 -0.5293  0.0665 -0.5211
  178MOL    C2335777   7.350   5.097   1.258 -0.4626 -0.0261  0.3634
  178MOL   Cl2435778   7.376   5.217   1.386 -0.0733 -0.4307 -0.0698
  178MOL    C2535779   7.229   5.052   1.227 -0.4334  0.4027  0.3317
  178MOL    C2635780   7.104   5.069   1.310  0.3068 -0.3505 -0.1475
  178MOL    H2735781   7.531   5.161   1.174  0.6772 -0.4281  1.5379
  178MOL    H2835782   7.457   5.015   1.088 -0.5776 -1.7862  0.4863
  178MOL    H2935783   7.226   4.986   1.141  0.7109  1.3946 -0.4953
  178MOL    H3035784   7.083   4.976   1.362  1.5461 -0.8276 -0.4912
  178MOL    H3135785   7.125   5.149   1.382  1.4136  0.4542 -1.3434
  178MOL    C3235786   6.989   5.111   1.213  0.3879 -0.0833  0.7579
  178MOL    C3335787   6.863   5.132   1.299  0.2210 -0.4764  0.8924
  178MOL   Cl3435788   6.797   5.290   1.270  0.2028  0.1933 -0.6176
  178MOL    C3535789   6.813   5.056   1.397 -0.6061  0.3486 -0.7637
  178MOL    C3635790   6.692   5.089   1.482 -0.7010 -0.4448 -0.4719
  178MOL    H3735791   7.015   5.194   1.147  3.5918  0.4940  2.6380
  178MOL    H3835792   6.966   5.032   1.142  0.0136  0.3705  0.3722
  178MOL    H3935793   6.862   4.962   1.413 -2.3131 -0.6250 -1.0723
  178MOL    H4035794   6.718   5.043   1.578  2.8751  0.1574 -1.0671
  178MOL    H4135795   6.688   5.195   1.507 -0.6019 -0.6011  0.2322
  178MOL    C4235796   6.555   5.036   1.427 -0.0942  0.1229  0.2680
  178MOL    C4335797   6.435   5.080   1.509 -0.3315 -0.1477  0.2691
  178MOL   Cl4435798   6.342   5.207   1.436  0.0068  0.2563 -0.6318
  178MOL    C4535799   6.414   5.037   1.631  0.8738  0.9312 -0.9182
  178MOL    C4635800   6.502   4.939   1.718  0.4924 -0.3613 -0.3630
  178MOL    H4735801   6.546   5.054   1.320 -1.3646  1.1917  0.5403
  178MOL    H4835802   6.556   4.928   1.427 -0.3238  0.1075 -1.0499
  178MOL    H4935803   6.322   5.071   1.677 -1.0182 -0.3616 -3.5785
  178MOL    H5035804   6.561   4.871   1.656  2.1272  0.4323  0.2845
  178MOL    H5135805   6.574   4.994   1.779  0.8639  0.7969 -1.8195
  178MOL    C5235806   6.421   4.851   1.807 -0.0043  0.4476 -1.0225
  178MOL    C5335807   6.493   4.737   1.870 -0.0063  0.0122 -0.6693
  178MOL   Cl5435808   6.608   4.800   1.979  0.2369 -0.3406  0.4085
  178MOL    C5535809   6.479   4.607   1.855 -0.3714  0.4048  0.4746
  178MOL    C5635810   6.556   4.506   1.944 -0.0957 -0.0814 -0.5886
  178MOL    H5735811   6.382   4.905   1.894  1.2471  0.8568 -0.7026
  178MOL    H5835812   6.338   4.804   1.755 -0.0356 -1.6204  0.8456
  178MOL    H5935813   6.404   4.579   1.782 -1.9359 -1.7836  2.8199
  178MOL    H6035814   6.662   4.508   1.919 -0.1417  0.4718 -0.7457
  178MOL    H6135815   6.546   4.541   2.047 -0.9270 -1.9053 -0.0228
  178MOL    C6235816   6.529   4.357   1.922  0.1672  0.1604  0.3148
  178MOL    C6335817   6.641   4.273   1.973 -0.3971 -0.5282 -0.8866
  178MOL   Cl6435818   6.703   4.164   1.856 -0.1705 -0.1575 -0.0366
  178MOL    C6535819   6.683   4.277   2.099  0.4248  0.8944 -0.2777
  178MOL    C6635820   6.789   4.194   2.162 -0.5053 -0.2101  0.0231
  178MOL    H6735821   6.437   4.335   1.976 -0.1645 -0.2703 -0.4144
  178MOL    H6835822   6.527   4.340   1.814 -0.3043 -0.9312  0.4890
  178MOL    H6935823   6.641   4.339   2.177 -1.3484 -1.1543  0.4549
  178MOL    H7035824   6.844   4.130   2.092  0.6207 -0.0745  0.7820
  178MOL    H7135825   6.741   4.123   2.230 -1.2981 -1.1485 -1.4615
  178MOL    C7235826   6.891   4.284   2.239 -1.0705 -0.1042  0.3494
  178MOL    C7335827   7.038   4.237   2.252  0.3160  0.0978  0.6923
  178MOL   Cl7435828   7.159   4.346   2.204 -0.1894 -0.4330  0.1177
  178MOL    C7535829   7.085   4.124   2.312 -0.1098  0.1831 -0.8627
  178MOL    C7635830   7.228   4.092   2.336 -1.4054  0.0221 -0.6309
  178MOL    H7735831   6.866   4.317   2.339 -2.2478  1.1218 -0.3442
  178MOL    H7835832   6.899   4.372   2.176 -0.1387 -0.6040 -0.2498
  178MOL    H7935833   7.021   4.048   2.355  2.6589 -2.0893 -0.6149
  178MOL    H8035834   7.257   4.119   2.438 -0.0411 -0.7035 -0.8086
  178MOL    H8135835   7.288   4.152   2.267 -0.6858 -1.5195 -1.3880
  178MOL    C8235836   7.256   3.940   2.303 -0.5307  0.3524  0.5310
  178MOL    C8335837   7.253   3.897   2.163 -0.0377 -0.2665 -0.2257
  178MOL   Cl8435838   7.339   3.748   2.149 -0.0012  0.0441 -0.0023
  178MOL    C8535839   7.215   3.968   2.057  0.0535  0.1577  0.2614
  178MOL    C8635840   7.216   3.909   1.915 -0.4299 -0.5852  0.5266
  178MOL    H8735841   7.179   3.889   2.360  0.0296 -0.3997  0.6245
  178MOL    H8835842   7.351   3.914   2.350 -1.6901 -2.6444  1.3489
  178MOL    H8935843   7.188   4.072   2.068 -1.0466 -0.0487 -0.4654
  178MOL    H9035844   7.302   3.951   1.863 -0.0452 -1.6113  0.3306
  178MOL    H9135845   7.233   3.802   1.913  1.8649 -0.2188 -1.8957
  178MOL    C9235846   7.089   3.934   1.836  0.2685 -1.2128  0.6490
  178MOL    C9335847   7.086   3.922   1.685 -0.4857 -0.2758  0.3922
  178MOL   Cl9435848   7.096   4.080   1.611  0.4610 -0.0846  0.3173
  178MOL    C9535849   7.061   3.817   1.613 -0.2158 -0.1067  0.3592
  178MOL    C9635850   7.046   3.671   1.655 -0.2696 -0.3370 -0.4765
  178MOL    H9735851   7.059   4.033   1.870 -0.7672 -0.7460 -1.5741
  178MOL    H9835852   7.012   3.873   1.883 -0.0116 -0.0213  1.7546
  178MOL    H9935853   7.051   3.829   1.506  0.4641 -0.2443  0.2757
  178MOL   H10035854   7.089   3.671   1.755 -0.5352 -0.9212 -0.3627
  178MOL   H10135855   6.940   3.651   1.663 -0.5504  1.3226  0.0093
  178MOL   C10235856   7.118   3.586   1.562 -0.2957  0.5974 -0.1474
  178MOL   C10335857   7.086   3.593   1.412  0.4111 -0.1127 -0.1702
  178MOL  Cl10435858   6.929   3.533   1.379  0.8695 -0.2252  0.3627
  178MOL   C10535859   7.179   3.630   1.327  0.1798 -0.2674  0.1175
  178MOL   C10635860   7.178   3.614   1.174 -0.9686 -0.3780  0.1055
  178MOL   H10735861   7.224   3.609   1.570 -0.0893  0.8053 -2.9734
  178MOL   H10835862   7.110   3.481   1.591 -0.8083  0.7475  0.2582
  178MOL   H10935863   7.272   3.667   1.367 -0.4304  1.0894  0.3148
  178MOL   H11035864   7.124   3.522   1.150  0.5589 -0.0939 -4.8575
  178MOL   H11135865   7.125   3.687   1.114  0.0037  0.2491 -0.0083
  178MOL   C11235866   7.325   3.595   1.130  0.4564 -0.6077 -0.7667
  178MOL   C11335867   7.393   3.480   1.202 -0.0358  0.6337 -0.2377
  178MOL  Cl11435868   7.298   3.339   1.204 -0.1612 -0.2323  0.0579
  178MOL   C11535869   7.523   3.470   1.236 -0.6872  0.4413 -0.4536
  178MOL   C11635870   7.636   3.570   1.231  0.3885 -0.0413 -0.4744
  178MOL   H11735871   7.334   3.589   1.022 -2.0691 -1.7531 -0.9463
  178MOL   H11835872   7.374   3.688   1.158 -0.7857  0.0696 -0.8436
  178MOL   H11935873   7.552   3.375   1.278 -1.5408 -0.5072 -1.9920
  178MOL   H12035874   7.643   3.613   1.331 -0.9846 -0.9504  0.0176
  178MOL   H12135875   7.615   3.650   1.161  2.4051 -0.1066 -1.1819
  178MOL   C12235876   7.775   3.512   1.194  0.2996 -1.0359  0.1936
  178MOL   C12335877   7.874   3.629   1.163  0.4915 -0.0926 -0.3758
  178MOL  Cl12435878   7.969   3.683   1.299 -0.2579  0.2865  0.0185
  178MOL   C12535879   7.862   3.694   1.050  0.1491 -0.3585  1.2522
  178MOL   C12635880   7.780   3.671   0.924  0.0573 -0.0017 -0.1722
  178MOL   H12735881   7.819   3.456   1.276  0.4203 -0.7833  0.3029
  178MOL   H12835882   7.779   3.442   1.110  0.3485 -1.1058  0.2542
  178MOL   H12935883   7.915   3.787   1.038 -0.6559 -0.0771 -0.3556
  178MOL   H13035884   7.846   3.629   0.848 -1.1035  1.0384 -1.7730
  178MOL   H13135885   7.714   3.587   0.944  0.2877  0.3845  2.5159
  178MOL   C13235886   7.703   3.799   0.872  0.0166  0.7323  0.0311
  178MOL   C13335887   7.613   3.761   0.764  0.1129  0.1332 -0.2173
  178MOL  Cl13435888   7.447   3.774   0.800  0.3836 -0.2428 -0.3175
  178MOL   C13535889   7.640   3.738   0.631 -0.1240 -0.3201 -0.0970
  178MOL   C13635890   7.768   3.740   0.565  0.4762  0.7091 -0.1575
  178MOL   H13735891   7.635   3.821   0.954  0.1979  0.0063  0.3728
  178MOL   H13835892   7.772   3.883   0.861 -1.7063  2.1071 -0.5566
  178MOL   H13935893   7.560   3.719   0.560 -1.4078  2.6753  0.5100
  178MOL   H14035894   7.753   3.803   0.477  1.4229 -0.7429 -1.3858
  178MOL   H14135895   7.847   3.796   0.615 -0.4096  1.5328  0.3410
  178MOL   C14235896   7.822   3.599   0.517 -0.2825  0.4574  0.2374
  178MOL   C14335897   7.961   3.614   0.458  0.4707  0.7773 -0.2459
  178MOL  Cl14435898   7.954   3.662   0.287  0.3394  0.0192  0.2679
  178MOL   C14535899   8.075   3.603   0.527  0.0195  0.1016 -0.1063
  178MOL   C14635900   8.209   3.651   0.488 -0.0035 -0.4601 -0.1672
  178MOL   H14735901   7.750   3.566   0.441 -0.0746 -2.7176  1.3289
  178MOL   H14835902   7.832   3.529   0.600  1.9605  1.6162  0.9775
  178MOL   H14935903   8.079   3.562   0.627 -0.4913 -0.0911 -0.1647
  178MOL   H15035904   8.269   3.560   0.488  0.5404 -0.1033 -1.1058
  178MOL   H15135905   8.214   3.687   0.385 -2.2218 -2.1853 -0.9193
  178MOL   C15235906   8.274   3.747   0.586 -0.6546 -0.3718 -0.1567
  178MOL   C15335907   8.352   3.672   0.700  0.5145  1.0901 -0.4726
  178MOL  Cl15435908   8.257   3.653   0.845 -0.1753  0.0496 -0.0094
  178MOL   C15535909   0.055   3.625   0.678  0.2488  0.3527 -0.1551
  178MOL   C15635910   0.138   3.544   0.779 -0.1915  0.1881  0.2769
  178MOL   H15735911   8.350   3.809   0.538 -0.1150 -0.3098  0.7528
  178MOL   H15835912   8.195   3.811   0.627  0.9187  0.1666  2.1786
  178MOL   H15935913   0.111   3.644   0.588  1.5982  1.7846  0.9700
  178MOL   H16035914   0.139   3.442   0.742  0.9547  0.3676 -0.2181
  178MOL   H16135915   0.090   3.554   0.876 -0.1545  0.4699  0.2689
  178MOL   C16235916   0.285   3.592   0.795 -0.1329 -0.3372  0.4447
  178MOL   C16335917   0.361   3.523   0.907  1.2827 -0.4179 -0.0061
  178MOL  Cl16435918   0.394   3.357   0.878  0.2341 -0.2456  0.2340
  178MOL   C16535919   0.375   3.574   1.034 -0.0602  0.1116 -0.3761
  178MOL   C16635920   0.434   3.497   1.153 -0.0178 -0.2110 -1.1577
  178MOL   H16735921   0.336   3.580   0.699 -1.5959  0.5476 -0.4614
  178MOL   H16835922   0.292   3.698   0.818 -0.1059 -0.2450  0.0284
  178MOL   H16935923   0.341   3.675   1.052 -1.3718 -0.6407  1.4766
  178MOL   H17035924   0.490   3.406   1.136 -0.5754 -0.6925 -0.4604
  178MOL   H17135925   0.506   3.562   1.203 -3.7546  1.1833  2.8029
  178MOL   C17235926   0.315   3.461   1.242 -0.3564 -1.1410  0.1781
  178MOL   C17335927   0.218   3.355   1.191 -0.2456 -0.0898  0.1131
  178MOL  Cl17435928   0.062   3.428   1.160  0.1657  0.5592 -0.1980
  178MOL   C17535929   0.248   3.225   1.175 -0.4070 -0.3099  0.2578
  178MOL   C17635930   0.164   3.116   1.120  0.8137  0.3329  0.4952
  178MOL   H17735931   0.265   3.547   1.286 -1.8551 -1.6334 -0.5342
  178MOL   H17835932   0.363   3.422   1.332  2.2826 -0.2806 -0.8128
  178MOL   H17935933   0.337   3.180   1.217 -0.1468  1.5291  1.7451
  178MOL   H18035934   0.216   3.072   1.035  1.4057  0.2796  0.8830
  178MOL   H18135935   0.066   3.158   1.095  0.9551  1.3649  1.6023
  178MOL   C18235936   0.137   3.016   1.236 -0.4481  0.0815 -0.1663
  178MOL   C18335937   0.044   2.907   1.184 -0.1822 -0.0582 -0.2359
  178MOL  Cl18435938   0.121   2.801   1.073 -0.2414  0.4790  0.3708
  178MOL   C18535939   8.335   2.888   1.222 -0.4040 -0.7689  0.0205
  178MOL   C18635940   8.239   2.778   1.170  1.2533 -0.0134 -0.2385
  178MOL   H18735941   0.230   2.972   1.272 -0.8826  0.1226  1.0408
  178MOL   H18835942   0.089   3.071   1.317 -0.5544  0.2571 -0.3484
  178MOL   H18935943   8.301   2.965   1.290 -0.3091 -0.9446  0.2650
  178MOL   H19035944   8.167   2.829   1.107  0.7524 -2.0173 -1.3241
  178MOL   H19135945   8.281   2.710   1.096  1.7250 -0.0248  0.0388
  178MOL   C19235946   8.167   2.688   1.274 -0.1047  0.1931  0.3671
  178MOL   C19335947   8.091   2.570   1.213  0.0031 -0.6126  0.6286
  178MOL  Cl19435948   8.178   2.418   1.225  0.5150  0.5771 -0.4607
  178MOL   C19535949   7.972   2.582   1.148 -0.3662 -0.6248 -0.1564
  178MOL   C19635950   7.899   2.711   1.129  0.1961 -0.1427 -0.0161
  178MOL   H19735951   8.096   2.738   1.340 -0.1474  0.7198 -0.0675
  178MOL   H19835952   8.247   2.650   1.337  0.4162 -0.0511 -0.4413
  178MOL   H19935953   7.930   2.496   1.099 -0.3333 -0.6280 -0.1789
  178MOL   H20035954   7.918   2.772   1.217 -0.7174 -1.4103  1.0953
  178MOL   H20135955   7.791   2.697   1.123 -0.1247  0.9254  2.7814
  178MOL   H20235956   7.943   2.757   1.040  1.4840 -0.4720  0.4396
  179MOL     C135957   1.191   5.233   6.704 -0.2703  0.6407  0.0684
  179MOL     C235958   1.295   5.316   6.766  0.1228  0.3926  0.4086
  179MOL    Cl335959   1.215   5.449   6.849  0.2453  0.0212 -0.2816
  179MOL     C435960   1.431   5.298   6.763 -0.1523 -0.3536 -0.2380
  179MOL     C535961   1.501   5.180   6.702  0.5384 -0.7834  0.7668
  179MOL     H635962   1.223   5.134   6.671  2.1679  0.3641  2.9712
  179MOL     H735963   1.141   5.281   6.620 -0.3325 -0.6705 -0.6593
  179MOL     H835964   1.487   5.375   6.814  0.1082 -1.2365  0.8375
  179MOL     H935965   1.570   5.139   6.775  0.7707 -3.0157 -0.6458
  179MOL    H1035966   1.425   5.105   6.679 -1.7444  1.8688 -0.7815
  179MOL    H1135967   1.115   5.215   6.780 -0.3510  3.7373  0.7676
  179MOL    C1235968   1.574   5.217   6.571 -0.2241  0.3836  0.5921
  179MOL    C1335969   1.636   5.095   6.505  0.0136  0.3676 -0.0397
  179MOL   Cl1435970   1.801   5.076   6.553  0.3638 -0.0552 -0.4163
  179MOL    C1535971   1.585   5.025   6.404  0.0485  0.1435  0.3717
  179MOL    C1635972   1.452   5.047   6.346  0.2040 -0.2833  0.9173
  179MOL    H1735973   1.532   5.278   6.491 -0.6186  0.7761  1.0912
  179MOL    H1835974   1.657   5.276   6.612  1.7209 -0.5777 -1.8366
  179MOL    H1935975   1.642   4.944   6.361 -0.0946  1.0036 -1.4789
  179MOL    H2035976   1.403   5.109   6.421 -0.5586  1.0383 -0.6447
  179MOL    H2135977   1.453   5.098   6.249 -1.5558 -0.9770  0.5273
  179MOL    C2235978   1.378   4.913   6.340  0.4071 -0.8038  0.2157
  179MOL    C2335979   1.248   4.936   6.268 -1.0805 -0.0330  0.7799
  179MOL   Cl2435980   1.109   4.924   6.364 -0.1219 -0.1704 -0.2472
  179MOL    C2535981   1.246   4.963   6.135 -0.1689  0.0718 -0.2845
  179MOL    C2635982   1.123   4.982   6.050 -0.0192 -0.3237 -0.5861
  179MOL    H2735983   1.431   4.842   6.277  2.3954 -0.6177  1.6132
  179MOL    H2835984   1.357   4.876   6.441  2.2992  0.4798  1.1121
  179MOL    H2935985   1.338   4.970   6.080 -0.1236 -2.5042 -0.5859
  179MOL    H3035986   1.107   4.899   5.981  0.1543 -1.0996  0.2970
  179MOL    H3135987   1.043   4.985   6.125  0.8110  0.5927  0.2718
  179MOL    C3235988   1.125   5.124   5.990  0.6367 -0.1956  0.2135
  179MOL    C3335989   1.010   5.163   5.892  0.3859  0.4380  0.4092
  179MOL   Cl3435990   0.947   5.320   5.936 -0.3059 -0.0795  0.4824
  179MOL    C3535991   0.959   5.098   5.782  0.4740 -0.6028  0.3172
  179MOL    C3635992   0.859   5.158   5.679  1.4034 -0.0990 -0.3442
  179MOL    H3735993   1.145   5.201   6.064  2.1872  3.4889 -3.7919
  179MOL    H3835994   1.215   5.124   5.929  0.1898 -0.4148 -0.4569
  179MOL    H3935995   0.996   5.002   5.748  0.4014 -0.5405  0.0616
  179MOL    H4035996   0.766   5.187   5.727  0.6025 -5.4664  1.7611
  179MOL    H4135997   0.904   5.249   5.639  0.9429  0.4848  0.4458
  179MOL    C4235998   0.833   5.061   5.563  0.1092 -0.8954  0.1292
  179MOL    C4335999   0.727   5.111   5.473  0.0611 -0.2888 -0.5573
  179MOL   Cl4436000   0.788   5.173   5.324  0.0032  0.0339 -0.2638
  179MOL    C4536001   0.598   5.121   5.487 -0.2421  0.7459  0.7693
  179MOL    C4636002   0.523   5.085   5.615  0.5097  0.7457  0.0784
  179MOL    H4736003   0.924   5.031   5.511  0.1839  0.8656 -0.7840
  179MOL    H4836004   0.795   4.967   5.604  0.7586 -1.1762  0.0973
  179MOL    H4936005   0.545   5.156   5.399 -0.6698 -1.6300  0.0350
  179MOL    H5036006   0.591   5.037   5.686 -0.4904 -1.2260 -0.2648
  179MOL    H5136007   0.487   5.183   5.645 -0.1231  0.5359  0.0083
  179MOL    C5236008   0.413   4.981   5.591 -0.0716  0.0891 -0.2916
  179MOL    C5336009   0.296   5.048   5.518  0.5322 -0.5071 -0.0054
  179MOL   Cl5436010   0.211   5.163   5.630  0.2403 -0.3805 -0.4825
  179MOL    C5536011   0.256   5.032   5.393 -0.4061 -0.5390  0.6326
  179MOL    C5636012   0.137   5.090   5.335  0.7193 -0.5994  0.3124
  179MOL    H5736013   0.464   4.904   5.533 -0.7970 -0.7029  0.1160
  179MOL    H5836014   0.392   4.941   5.690  0.2572 -2.6881 -1.2959
  179MOL    H5936015   0.317   4.970   5.330 -3.3908 -2.0284 -0.8887
  179MOL    H6036016   0.076   5.143   5.408 -2.3190  0.4577 -2.8494
  179MOL    H6136017   0.170   5.170   5.268 -1.8437 -0.1493 -0.4624
  179MOL    C6236018   0.045   4.997   5.249 -0.0955  0.7855 -0.3449
  179MOL    C6336019   8.390   4.900   5.335  0.9585  0.2319  0.3432
  179MOL   Cl6436020   8.220   4.920   5.331 -0.1207 -0.2029 -0.1743
  179MOL    C6536021   0.020   4.785   5.389  0.2011 -0.0136  0.6179
  179MOL    C6636022   8.368   4.668   5.453  0.0656 -0.2043 -0.1472
  179MOL    H6736023   8.398   5.061   5.193 -2.3222 -2.1481 -1.1400
  179MOL    H6836024   0.104   4.940   5.178  0.1445  1.6291 -0.8336
  179MOL    H6936025   0.128   4.776   5.384  0.0790 -1.2169 -0.0366
  179MOL    H7036026   8.388   4.571   5.408  3.0939  1.0812 -1.6407
  179MOL    H7136027   8.259   4.682   5.452  0.2942  1.6967  0.2363
  179MOL    C7236028   8.403   4.637   5.596  0.1246  0.1339  0.1942
  179MOL    C7336029   8.314   4.536   5.668 -0.1810  0.1221  0.5910
  179MOL   Cl7436030   8.324   4.379   5.601  0.2706  0.6094  0.5528
  179MOL    C7536031   8.233   4.565   5.770 -0.7927  0.5613 -0.0392
  179MOL    C7636032   8.166   4.460   5.864  0.2407 -0.6012  0.5278
  179MOL    H7736033   8.413   4.725   5.660  0.2312  1.1053 -1.1316
  179MOL    H7836034   0.084   4.600   5.600  0.2442  0.5679  1.5608
  179MOL    H7936035   8.221   4.668   5.799 -5.5513 -0.0290  0.3933
  179MOL    H8036036   8.245   4.385   5.870  0.9472  0.2609  2.6276
  179MOL    H8136037   8.079   4.413   5.818  0.4605 -1.7419  1.2488
  179MOL    C8236038   8.130   4.523   5.987 -0.4845  0.5185  0.1629
  179MOL    C8336039   8.074   4.429   6.096  0.5484 -0.2203 -0.4095
  179MOL   Cl8436040   8.169   4.429   6.239  0.3659  0.2148  0.1295
  179MOL    C8536041   7.950   4.373   6.084 -0.9640  0.6288 -0.1611
  179MOL    C8636042   7.881   4.293   6.189  0.0998  0.0935 -0.7727
  179MOL    H8736043   8.047   4.591   5.972 -0.6579  0.3615  0.4101
  179MOL    H8836044   8.204   4.588   6.035 -1.7157  2.4784 -0.5940
  179MOL    H8936045   7.896   4.375   5.991  0.2090 -0.9595 -0.9181
  179MOL    H9036046   7.935   4.297   6.283  0.3531 -0.9671 -0.8641
  179MOL    H9136047   7.778   4.326   6.205 -1.0196 -2.5089 -2.1474
  179MOL    C9236048   7.877   4.149   6.155  0.1633  0.1235 -0.2543
  179MOL    C9336049   7.826   4.070   6.274  0.0414  0.7846  0.3532
  179MOL   Cl9436050   7.678   4.002   6.238  0.2695  0.1612  0.2123
  179MOL    C9536051   7.892   4.047   6.389 -0.1881 -0.2889 -0.2255
  179MOL    C9636052   8.024   4.097   6.439 -0.1491 -0.7317 -0.6714
  179MOL    H9736053   7.976   4.119   6.119  0.7020  1.9462 -0.3414
  179MOL    H9836054   7.811   4.140   6.068  1.2660 -0.2964 -1.0652
  179MOL    H9936055   7.834   3.992   6.461 -1.3230  1.7569  0.4662
  179MOL   H10036056   8.080   4.008   6.465  2.9343  0.7733 -1.9990
  179MOL   H10136057   8.079   4.157   6.367  2.6480 -2.3227  0.0952
  179MOL   C10236058   8.010   4.200   6.556  0.4123 -0.7208 -0.0313
  179MOL   C10336059   7.949   4.147   6.680  0.0641  0.0330  0.0018
  179MOL  Cl10436060   8.070   4.050   6.767  0.3122  0.1887  0.0335
  179MOL   C10536061   7.821   4.160   6.720 -0.0176  0.3667 -0.0717
  179MOL   C10636062   7.764   4.109   6.854  0.2744  0.2733  0.1407
  179MOL   H10736063   8.111   4.234   6.580 -0.2357  0.8388  0.5583
  179MOL   H10836064   7.954   4.286   6.519 -0.0132 -0.6985  0.6446
  179MOL   H10936065   7.760   4.213   6.648  1.2532  1.9496 -0.0086
  179MOL   H11036066   7.732   4.006   6.837  2.6451 -0.8577  2.2146
  179MOL   H11136067   7.844   4.105   6.928 -0.7135 -2.1204  1.1389
  179MOL   C11236068   7.663   4.215   6.915 -0.1267 -0.0068 -0.1027
  179MOL   C11336069   7.650   4.205   7.059 -0.2591  0.4742  0.0328
  179MOL  Cl11436070   7.525   4.088   7.111 -0.0987 -0.3352 -0.0577
  179MOL   C11536071   7.710   4.285   7.146 -0.4706  0.1257  0.3575
  179MOL   C11636072   7.819   4.380   7.113  0.4964 -0.3258  0.6961
  179MOL   H11736073   7.702   4.314   6.889  1.3217 -0.9014 -1.4583
  179MOL   H11836074   7.561   4.196   6.881  0.4990  0.1214 -2.1480
  179MOL   H11936075   7.688   4.284   7.252  0.1507  1.4241  0.5124
  179MOL   H12036076   7.875   4.356   7.023 -0.3853  0.5856 -0.1031
  179MOL   H12136077   7.901   4.388   7.184  0.5429 -1.1883  0.7476
  179MOL   C12236078   7.760   4.523   7.116 -0.0582  0.4060 -0.4477
  179MOL   C12336079   7.858   4.636   7.085 -0.3222 -0.3879  0.5418
  179MOL  Cl12436080   7.923   4.697   7.226  0.0470 -0.5980 -0.1460
  179MOL   C12536081   7.890   4.695   6.970 -0.0842 -0.2325 -0.9292
  179MOL   C12636082   7.840   4.655   6.833 -0.7848  0.3694 -0.1440
  179MOL   H12736083   7.674   4.507   7.052 -1.4017 -2.1596  1.8846
  179MOL   H12836084   7.721   4.531   7.217 -1.1871 -0.9020 -0.7748
  179MOL   H12936085   7.950   4.785   6.967 -2.4908  1.4554 -0.4343
  179MOL   H13036086   7.811   4.550   6.843  1.0595 -0.1899 -0.5725
  179MOL   H13136087   7.757   4.717   6.798 -1.5703 -1.3355 -1.3745
  179MOL   C13236088   7.948   4.661   6.721 -0.4812 -0.3292  0.0538
  179MOL   C13336089   7.912   4.615   6.586  0.3096 -1.0004 -0.4213
  179MOL  Cl13436090   7.757   4.538   6.571  0.0383 -0.4954  0.0139
  179MOL   C13536091   7.985   4.626   6.471  0.7949 -0.8195  0.5140
  179MOL   C13636092   8.123   4.683   6.460 -0.1408 -0.5318 -0.2002
  179MOL   H13736093   7.967   4.767   6.710 -2.4175  0.1382  1.0162
  179MOL   H13836094   8.044   4.617   6.749 -0.3226  0.9671  1.5953
  179MOL   H13936095   7.947   4.588   6.377  0.6151  0.0177  0.2403
  179MOL   H14036096   8.154   4.728   6.554 -0.9128 -0.9484  0.2593
  179MOL   H14136097   8.193   4.607   6.424  1.3777  1.0333 -0.5894
  179MOL   C14236098   8.119   4.795   6.353 -0.4763  0.1143  0.0302
  179MOL   C14336099   8.258   4.850   6.323  0.4479  0.3786 -0.4803
  179MOL  Cl14436100   8.342   4.766   6.201  0.6132  0.4604  0.1860
  179MOL   C14536101   8.298   4.967   6.376  1.2600  0.2135  0.1333
  179MOL   C14636102   0.002   5.044   6.347 -0.1164  0.1726 -0.2532
  179MOL   H14736103   8.055   4.880   6.375  0.0820  0.4359  0.4283
  179MOL   H14836104   8.084   4.737   6.267 -1.4938  0.8331 -0.0476
  179MOL   H14936105   8.226   5.011   6.443  0.8832  2.5053 -1.7432
  179MOL   H15036106   0.042   4.987   6.264  1.2172  0.2821  0.3068
  179MOL   H15136107   8.393   5.137   6.299  1.7050  0.7249 -0.3351
  179MOL   C15236108   0.099   5.065   6.461 -0.4853  0.2478 -0.6622
  179MOL   C15336109   0.242   5.108   6.426 -0.1654  0.1870  0.0415
  179MOL  Cl15436110   0.236   5.222   6.298 -0.2660  0.1300  0.2083
  179MOL   C15536111   0.356   5.077   6.490  0.3877 -0.0027 -0.0409
  179MOL   C15636112   0.496   5.125   6.450 -0.1101 -0.8310  0.4425
  179MOL   H15736113   0.050   5.129   6.534 -0.7062  1.5146 -1.8907
  179MOL   H15836114   0.103   4.969   6.512 -3.1251 -0.3527 -1.5038
  179MOL   H15936115   0.354   5.011   6.575  0.8223 -0.0537 -0.0708
  179MOL   H16036116   0.493   5.161   6.348 -0.0924  0.2482  0.8104
  179MOL   H16136117   0.557   5.035   6.452 -0.6465 -1.1897  2.3984
  179MOL   C16236118   0.562   5.235   6.538  0.7975 -0.2030 -0.3021
  179MOL   C16336119   0.708   5.251   6.499 -0.7888 -0.0313  0.6096
  179MOL  Cl16436120   0.807   5.135   6.581  0.1402 -0.0003 -0.0847
  179MOL   C16536121   0.762   5.344   6.412  0.8140  0.3769  0.5624
  179MOL   C16636122   0.907   5.357   6.379 -0.2629 -0.1268 -0.3384
  179MOL   H16736123   0.508   5.329   6.529 -2.0565 -1.7914 -0.4179
  179MOL   H16836124   0.560   5.201   6.642  0.6460 -1.7583 -0.7993
  179MOL   H16936125   0.684   5.405   6.369  0.4848  0.5994  1.4643
  179MOL   H17036126   0.969   5.292   6.441 -2.0803 -0.1728  1.4777
  179MOL   H17136127   0.915   5.314   6.279  1.0965 -1.4231  0.3095
  179MOL   C17236128   0.956   5.508   6.382  0.7855  0.2113  0.2502
  179MOL   C17336129   1.108   5.515   6.373  0.5366  0.0063  0.6597
  179MOL  Cl17436130   1.144   5.558   6.216  0.3802  0.0084  0.4103
  179MOL   C17536131   1.186   5.524   6.478  0.1811 -0.0968 -0.1521
  179MOL   C17636132   1.334   5.553   6.478  0.3853 -0.6515 -0.1347
  179MOL   H17736133   0.937   5.551   6.480  1.5994 -2.0786  1.4607
  179MOL   H17836134   0.910   5.565   6.302  0.8271 -2.0143 -1.4351
  179MOL   H17936135   1.132   5.512   6.571 -0.0229 -0.6105 -0.3381
  179MOL   H18036136   1.364   5.596   6.382 -3.5660  0.7782 -0.8308
  179MOL   H18136137   1.377   5.453   6.477 -0.3495 -0.9905  1.5935
  179MOL   C18236138   1.378   5.644   6.592  0.0205  0.0220 -0.4499
  179MOL   C18336139   1.526   5.668   6.613  0.3533  0.0310 -0.3552
  179MOL  Cl18436140   1.562   5.640   6.776 -0.1336 -0.1325  0.3437
  179MOL   C18536141   1.618   5.710   6.519  0.7640 -0.3400 -0.1303
  179MOL   C18636142   1.770   5.714   6.539 -0.0952  0.4208 -0.5097
  179MOL   H18736143   1.325   5.738   6.570 -1.8142 -1.1698 -1.2559
  179MOL   H18836144   1.337   5.619   6.690 -0.8003 -0.0954 -0.8129
  179MOL   H18936145   1.589   5.726   6.416  2.3430  0.2805 -0.4886
  179MOL   H19036146   1.814   5.804   6.496  2.2218 -0.5173 -0.2239
  179MOL   H19136147   1.792   5.715   6.646  1.1592  2.8740 -0.7666
  179MOL   C19236148   1.837   5.593   6.477  0.6632  0.8499  0.3220
  179MOL   C19336149   1.980   5.581   6.508 -0.6845 -0.2356 -0.0677
  179MOL  Cl19436150   2.079   5.627   6.381 -0.0065 -0.4329  0.3386
  179MOL   C19536151   2.037   5.522   6.616  0.5051 -0.3950 -0.0568
  179MOL   C19636152   1.958   5.467   6.735 -0.5814  0.0054 -0.4572
  179MOL   H19736153   1.815   5.592   6.370  0.5686  1.9527  0.3223
  179MOL   H19836154   1.784   5.508   6.517 -0.5274  0.7581 -1.4024
  179MOL   H19936155   2.142   5.505   6.638  0.5367  2.0818  1.9143
  179MOL   H20036156   1.974   5.521   6.829 -5.6931  0.2539  0.3827
  179MOL   H20136157   1.979   5.361   6.753  0.4128 -0.1054 -2.1335
  179MOL   H20236158   1.851   5.474   6.719 -0.2727 -1.2864 -3.4254
  180MOL     C136159   5.058   6.514   6.801  0.1965  0.4505 -0.5707
  180MOL     C236160   4.917   6.551   6.790  1.0141 -0.3212 -0.7588
  180MOL    Cl336161   4.891   6.687   6.684  0.2013 -0.1919  0.0921
  180MOL     C436162   4.818   6.492   6.864  0.3065 -0.0211  0.0371
  180MOL     C536163   4.824   6.367   6.957 -0.2900  0.1481 -0.6339
  180MOL     H636164   5.081   6.435   6.730  1.3044 -0.6179  0.9280
  180MOL     H736165   5.082   6.496   6.906  1.3080 -2.1753 -1.2356
  180MOL     H836166   4.721   6.540   6.857  0.8647  1.0902 -0.1651
  180MOL     H936167   4.918   6.317   6.936 -0.3008 -0.5956  1.0248
  180MOL    H1036168   4.831   6.395   7.062 -1.2184 -0.9208 -0.2677
  180MOL    H1136169   5.108   6.608   6.779  0.4024  0.5025  0.1051
  180MOL    C1236170   4.699   6.282   6.931  0.4212 -0.5128  0.0397
  180MOL    C1336171   4.720   6.166   7.020 -0.1693 -0.2980 -0.7412
  180MOL   Cl1436172   4.832   6.057   6.951  0.5274 -0.1420  0.2747
  180MOL    C1536173   4.660   6.143   7.140 -0.6061  0.2870  0.0837
  180MOL    C1636174   4.575   6.235   7.220  0.3550  0.9490  0.3406
  180MOL    H1736175   4.604   6.328   6.958 -0.1343 -2.3871  1.4139
  180MOL    H1836176   4.699   6.252   6.827  0.4858  0.0167 -0.1166
  180MOL    H1936177   4.676   6.049   7.191  0.9976 -0.5226 -1.8336
  180MOL    H2036178   4.533   6.311   7.154 -0.9782 -0.8254 -0.8891
  180MOL    H2136179   4.489   6.183   7.261  1.8741 -1.5561  0.4764
  180MOL    C2236180   4.658   6.302   7.323 -0.6360  0.4754  0.3470
  180MOL    C2336181   4.586   6.412   7.394 -0.2477  0.4540 -0.0748
  180MOL   Cl2436182   4.577   6.544   7.293  0.2088  0.1975  0.0497
  180MOL    C2536183   4.546   6.415   7.525  0.6654 -1.5036 -0.2548
  180MOL    C2636184   4.485   6.538   7.594 -0.2047 -0.0325 -0.0052
  180MOL    H2736185   4.687   6.228   7.398 -0.0030 -0.2405 -0.5811
  180MOL    H2836186   4.751   6.343   7.283  0.8731 -0.8555  2.4259
  180MOL    H2936187   4.568   6.330   7.587 -0.8208 -1.9428 -0.3163
  180MOL    H3036188   4.559   6.585   7.660 -2.8079  0.7955  2.3937
  180MOL    H3136189   4.456   6.611   7.519 -0.0898 -1.5424 -1.5376
  180MOL    C3236190   4.365   6.498   7.684 -0.3679 -0.2910  0.5748
  180MOL    C3336191   4.404   6.411   7.804 -0.1722 -0.2089  0.9279
  180MOL   Cl3436192   4.271   6.314   7.846 -0.0190  0.2433  0.2163
  180MOL    C3536193   4.528   6.396   7.857  0.1929 -0.6612 -0.2113
  180MOL    C3636194   4.564   6.296   7.964  1.2814  0.6785  0.1988
  180MOL    H3736195   4.325   6.589   7.730 -0.0657 -0.4123  1.0900
  180MOL    H3836196   4.287   6.447   7.628  0.5093 -0.2202 -0.7238
  180MOL    H3936197   4.618   6.447   7.827  1.3091 -2.3874  0.1256
  180MOL    H4036198   4.477   6.246   8.006  3.4495 -2.7730  0.8149
  180MOL    H4136199   4.631   6.218   7.926 -0.8121 -0.3944 -1.3437
  180MOL    C4236200   4.639   6.364   8.085 -0.4276  0.0011 -0.2091
  180MOL    C4336201   4.660   6.272   8.196 -0.6038 -0.0313 -0.1983
  180MOL   Cl4436202   4.526   6.272   8.308 -0.4976  0.0982 -0.1379
  180MOL    C4536203   4.763   6.192   8.209 -0.8781  0.1436  0.2670
  180MOL    C4636204   4.873   6.177   8.110 -0.2835  0.2914  0.0674
  180MOL    H4736205   4.738   6.406   8.065  0.7241 -2.1164  0.8804
  180MOL    H4836206   4.586   6.458   8.101 -0.5418  0.2664 -2.0735
  180MOL    H4936207   4.761   6.129   8.297 -0.5115  0.8627  0.7922
  180MOL    H5036208   4.837   6.201   8.010  1.8507 -1.2933 -1.1115
  180MOL    H5136209   4.951   6.245   8.143 -0.9586  0.9300  0.3842
  180MOL    C5236210   4.912   6.026   8.110 -0.1117  0.0651 -0.0715
  180MOL    C5336211   5.030   6.010   8.017 -0.2662  0.3407  0.5672
  180MOL   Cl5436212   5.148   5.907   8.082 -0.3666 -0.3008  0.0349
  180MOL    C5536213   5.031   6.059   7.891 -0.7481  0.5087  0.0463
  180MOL    C5636214   5.141   6.038   7.795 -0.3933  0.3814  0.3640
  180MOL    H5736215   4.933   6.006   8.215 -0.1663  0.0234 -0.0691
  180MOL    H5836216   4.821   5.976   8.076 -0.1324 -0.0994  0.2227
  180MOL    H5936217   4.947   6.115   7.852 -1.7152 -0.9924 -0.0664
  180MOL    H6036218   5.192   5.942   7.798  0.1661  0.6753  0.5705
  180MOL    H6136219   5.083   6.044   7.703  0.2429  2.1311  0.0433
  180MOL    C6236220   5.245   6.158   7.799  0.3265  0.3122  0.0596
  180MOL    C6336221   5.351   6.160   7.690  0.1301 -0.0946  0.2756
  180MOL   Cl6436222   5.345   6.309   7.601 -0.4570 -0.1744 -0.0986
  180MOL    C6536223   5.431   6.056   7.653  0.5071  0.0013  0.3601
  180MOL    C6636224   5.536   6.044   7.540 -0.0128 -0.1034  0.3189
  180MOL    H6736225   5.190   6.251   7.785  1.5421  1.0987  0.4591
  180MOL    H6836226   5.297   6.171   7.894  1.0603  0.1806 -0.3185
  180MOL    H6936227   5.426   5.968   7.717  2.3208  0.1862  0.7847
  180MOL    H7036228   5.633   6.081   7.572  0.8858 -1.3599 -0.8963
  180MOL    H7136229   5.499   6.101   7.455 -1.0503 -0.7853  0.2902
  180MOL    C7236230   5.550   5.895   7.500 -0.4193  0.4170  0.1206
  180MOL    C7336231   5.627   5.876   7.368  0.0884 -0.8133 -0.1238
  180MOL   Cl7436232   5.544   5.770   7.260  0.6511 -0.1730 -0.1269
  180MOL    C7536233   5.740   5.949   7.330  0.2259 -0.4222  0.7318
  180MOL    C7636234   5.800   5.941   7.194 -0.6921 -0.4823  0.3178
  180MOL    H7736235   5.455   5.841   7.493 -0.8560  1.2126 -0.2082
  180MOL    H7836236   5.602   5.842   7.580 -0.4153  1.2320  0.6568
  180MOL    H7936237   5.791   6.008   7.404  0.2576 -3.1373  2.9370
  180MOL    H8036238   5.710   5.969   7.140 -0.6687 -1.8540 -0.4655
  180MOL    H8136239   5.818   5.834   7.177 -1.0799 -0.5556  0.3622
  180MOL    C8236240   5.900   6.060   7.165  0.7255  0.0209  0.0890
  180MOL    C8336241   5.947   6.066   7.019 -0.3319 -0.1899  0.1013
  180MOL   Cl8436242   5.852   6.179   6.920 -0.0339 -0.3459 -0.1245
  180MOL    C8536243   6.060   6.012   6.982 -0.3938 -0.9642 -0.2212
  180MOL    C8636244   6.119   6.008   6.841 -0.7363 -0.8512  0.0309
  180MOL    H8736245   5.986   6.063   7.233  1.4174 -1.0225 -0.7189
  180MOL    H8836246   5.851   6.151   7.201  2.4163  1.1118 -0.3047
  180MOL    H8936247   6.121   5.962   7.057  1.5656  1.3618 -0.2047
  180MOL    H9036248   6.152   5.907   6.814 -3.5518 -1.1748 -2.5483
  180MOL    H9136249   6.039   6.027   6.769 -0.1502 -0.6253 -0.5610
  180MOL    C9236250   6.249   6.089   6.849  0.1242  0.0413 -0.4756
  180MOL    C9336251   6.285   6.140   6.710  0.7068  0.5671 -0.0235
  180MOL   Cl9436252   6.436   6.073   6.649  0.6888 -0.3144 -0.0311
  180MOL    C9536253   6.220   6.238   6.651 -0.4819  0.4903  0.6970
  180MOL    C9636254   6.093   6.303   6.700 -0.2278 -0.0500  0.0620
  180MOL    H9736255   6.334   6.031   6.883  0.7283  0.3324 -1.4824
  180MOL    H9836256   6.257   6.169   6.923  0.2650  0.7495 -1.2546
  180MOL    H9936257   6.269   6.272   6.560 -0.3868 -0.1291  0.5118
  180MOL   H10036258   6.013   6.233   6.678  0.4922 -0.6289 -0.7726
  180MOL   H10136259   6.092   6.314   6.808  0.8464 -1.0927  0.1920
  180MOL   C10236260   6.066   6.438   6.624 -0.4415  0.3152  0.1988
  180MOL   C10336261   5.943   6.499   6.680 -0.3344 -1.1589  0.5466
  180MOL  Cl10436262   5.980   6.607   6.806  0.3172  0.3526 -0.0443
  180MOL   C10536263   5.819   6.479   6.628  0.2760 -0.1006 -0.2327
  180MOL   C10636264   5.692   6.537   6.682  0.2581 -0.2388  0.0554
  180MOL   H10736265   6.155   6.500   6.624  1.1731 -1.9543 -1.0169
  180MOL   H10836266   6.052   6.416   6.519 -0.7896  0.0466  0.2997
  180MOL   H10936267   5.800   6.417   6.542  2.0134 -2.8088  1.2441
  180MOL   H11036268   5.710   6.629   6.736 -1.4673  0.6354 -0.8136
  180MOL   H11136269   5.639   6.579   6.597 -2.5208 -0.7712  1.4657
  180MOL   C11236270   5.600   6.447   6.761  0.2957 -0.6727 -0.2786
  180MOL   C11336271   5.474   6.517   6.813  0.2706 -0.3917 -0.1369
  180MOL  Cl11436272   5.381   6.566   6.685 -0.2604 -0.0708  0.0833
  180MOL   C11536273   5.440   6.530   6.946  0.0459  0.2077  0.0872
  180MOL   C11636274   5.521   6.493   7.070 -0.0315 -0.0626  1.1330
  180MOL   H11736275   5.549   6.376   6.695  0.6487  0.2503 -1.5674
  180MOL   H11836276   5.652   6.389   6.837 -0.0020  1.0908  1.2982
  180MOL   H11936277   5.341   6.564   6.972 -0.6365 -1.3617 -0.3645
  180MOL   H12036278   5.624   6.487   7.035 -0.5772  0.4328 -0.5995
  180MOL   H12136279   5.480   6.398   7.103 -0.8200 -0.1956 -0.1795
  180MOL   C12236280   5.512   6.612   7.163  0.5991  0.1037 -0.5255
  180MOL   C12336281   5.620   6.620   7.270 -0.3538 -0.3467 -0.2001
  180MOL  Cl12436282   5.787   6.585   7.217  0.1670  0.1359 -0.2400
  180MOL   C12536283   5.595   6.660   7.390  0.0285  0.5733 -0.1518
  180MOL   C12636284   5.457   6.702   7.445  0.0319  0.4951 -0.0231
  180MOL   H12736285   5.508   6.708   7.112 -2.3061  1.1822  1.5947
  180MOL   H12836286   5.417   6.588   7.210  0.7821 -3.4493 -1.7919
  180MOL   H12936287   5.670   6.672   7.466 -1.0545 -2.1805  1.4123
  180MOL   H13036288   5.380   6.728   7.373  0.8569  0.3075 -0.9910
  180MOL   H13136289   5.428   6.619   7.510  2.5735 -0.2453  0.2266
  180MOL   C13236290   5.473   6.825   7.532 -0.9417 -0.1046 -0.0716
  180MOL   C13336291   5.347   6.912   7.551 -0.2885 -0.1354  0.1145
  180MOL  Cl13436292   5.292   6.917   7.718  0.2475  0.1097  0.1520
  180MOL   C13536293   5.289   6.993   7.457  0.5677 -0.0376 -0.9466
  180MOL   C13636294   5.332   6.998   7.311 -0.1405  0.1428 -0.2359
  180MOL   H13736295   5.500   6.798   7.635  1.7082 -1.9147 -1.1641
  180MOL   H13836296   5.565   6.878   7.507 -1.3030  0.3278 -0.4787
  180MOL   H13936297   5.214   7.061   7.494 -0.1198 -0.9562 -0.6376
  180MOL   H14036298   5.360   7.102   7.297  2.9302 -0.5028  0.6814
  180MOL   H14136299   5.426   6.945   7.293 -0.9654 -2.2418  2.0246
  180MOL   C14236300   5.212   6.955   7.218  0.4290  0.2194 -0.9850
  180MOL   C14336301   5.262   6.919   7.077  0.2768  1.2134  0.5140
  180MOL  Cl14436302   5.191   6.775   7.012  0.3065  0.2595  0.3793
  180MOL   C14536303   5.359   6.992   7.012  0.1878  0.3857 -0.7933
  180MOL   C14636304   5.405   6.963   6.868 -0.0955  0.4419  0.1367
  180MOL   H14736305   5.144   7.037   7.196 -0.5306 -0.7837 -1.8734
  180MOL   H14836306   5.140   6.881   7.255  1.4089 -0.8320 -1.1692
  180MOL   H14936307   5.411   7.076   7.055  0.8876 -1.1622  1.4522
  180MOL   H15036308   5.508   6.999   6.866  0.3360 -0.7933 -0.5144
  180MOL   H15136309   5.404   6.855   6.854  0.6171  0.3270  0.8943
  180MOL   C15236310   5.338   7.044   6.756  0.6717 -0.2258 -0.4381
  180MOL   C15336311   5.411   7.021   6.626 -0.2479 -0.0483  0.7643
  180MOL  Cl15436312   5.535   7.138   6.613  0.2313 -0.0731 -0.4386
  180MOL   C15536313   5.371   6.939   6.527  0.0836  0.0350  0.3766
  180MOL   C15636314   5.435   6.917   6.395 -0.4813 -0.4173 -0.3511
  180MOL   H15736315   5.232   7.022   6.762  0.3485  1.0977 -1.3233
  180MOL   H15836316   5.352   7.145   6.795  1.7889 -0.4092 -0.3383
  180MOL   H15936317   5.282   6.879   6.539  0.7808 -0.8442  1.2033
  180MOL   H16036318   5.522   6.982   6.384 -1.0447  0.3793 -0.1941
  180MOL   H16136319   5.366   6.935   6.313 -0.1123 -0.7526 -0.7326
  180MOL   C16236320   5.484   6.772   6.378  0.5975  0.0320  0.3402
  180MOL   C16336321   5.521   6.743   6.243 -0.0789  0.0389  0.1193
  180MOL  Cl16436322   5.390   6.692   6.148 -0.2164 -0.1963  0.4203
  180MOL   C16536323   5.645   6.759   6.191  0.2630  0.8283  0.9998
  180MOL   C16636324   5.672   6.742   6.040 -0.2870 -0.2373  0.3623
  180MOL   H16736325   5.568   6.741   6.442 -0.1476 -1.2235  0.7318
  180MOL   H16836326   5.406   6.700   6.403 -1.2614  2.1404  0.7398
  180MOL   H16936327   5.726   6.790   6.255 -0.6177  3.6412  0.7923
  180MOL   H17036328   5.580   6.714   5.988  0.2845 -1.5331  0.0315
  180MOL   H17136329   5.711   6.836   6.002  1.1914 -1.3431 -0.9190
  180MOL   C17236330   5.769   6.627   6.001 -0.6374  0.0766  0.7007
  180MOL   C17336331   5.762   6.588   5.849 -0.4318  0.3762  0.0986
  180MOL  Cl17436332   5.662   6.442   5.825  0.2431 -0.0134 -0.0740
  180MOL   C17536333   5.825   6.651   5.746  0.1000 -0.1860  0.0541
  180MOL   C17636334   5.829   6.598   5.607 -0.1027 -0.6376  0.5155
  180MOL   H17736335   5.744   6.547   6.071  0.3066  0.4552  1.4754
  180MOL   H17836336   5.868   6.665   6.026 -0.0433 -1.1198  0.2059
  180MOL   H17936337   5.880   6.742   5.763 -1.3089  0.4855  1.1473
  180MOL   H18036338   5.744   6.536   5.579 -1.3732 -0.2402  3.3508
  180MOL   H18136339   5.923   6.552   5.576 -0.7273 -2.1913  0.8687
  180MOL   C18236340   5.811   6.722   5.510  0.1404 -0.6195 -0.6376
  180MOL   C18336341   5.784   6.677   5.366 -0.8357  0.4860  0.5584
  180MOL  Cl18436342   5.902   6.739   5.261 -0.2794  0.0013 -0.0055
  180MOL   C18536343   5.681   6.602   5.321  0.4869  0.1742  0.4394
  180MOL   C18636344   5.659   6.545   5.185  0.1319 -0.6049 -0.0353
  180MOL   H18736345   5.727   6.776   5.554 -0.6329  0.5394 -3.4259
  180MOL   H18836346   5.898   6.787   5.519  0.7756 -1.2423 -2.1274
  180MOL   H18936347   5.604   6.571   5.391 -0.3991  1.3915  0.0253
  180MOL   H19036348   5.732   6.587   5.116 -0.9865  0.1961 -0.7492
  180MOL   H19136349   5.676   6.438   5.194  1.6550 -0.2721  1.4039
  180MOL   C19236350   5.517   6.569   5.126 -0.2865  0.2781 -0.4333
  180MOL   C19336351   5.513   6.523   4.984 -0.0910  0.4595 -0.3337
  180MOL  Cl19436352   5.587   6.642   4.876 -0.0709  0.4087  0.0045
  180MOL   C19536353   5.465   6.403   4.933  0.1176 -0.0883  0.6077
  180MOL   C19636354   5.402   6.284   4.999  0.1885  0.3804 -0.7266
  180MOL   H19736355   5.494   6.676   5.131  0.3253  0.4308 -0.8884
  180MOL   H19836356   5.443   6.519   5.188  1.0226  0.8290  1.6183
  180MOL   H19936357   5.484   6.392   4.827  0.6822  0.6045  0.6383
  180MOL   H20036358   5.341   6.297   5.088  0.9951 -1.0392  0.0454
  180MOL   H20136359   5.480   6.215   5.032 -0.7178 -1.2462 -1.9109
  180MOL   H20236360   5.333   6.225   4.938 -0.1084  0.6219 -0.6283
  181MOL     C136361   7.669   6.370   7.490 -0.4471  0.4554  0.1712
  181MOL     C236362   7.742   6.500   7.498 -0.1523 -0.2497 -0.0585
  181MOL    Cl336363   7.699   6.601   7.366 -0.1999  0.6934 -0.4026
  181MOL     C436364   7.851   6.524   7.569  0.3097 -0.4636  0.1044
  181MOL     C536365   7.904   6.434   7.675 -0.6197  0.2735 -0.1704
  181MOL     H636366   7.663   6.324   7.588  2.8689  1.8211  1.0776
  181MOL     H736367   7.722   6.307   7.419  1.2191  1.6810  0.2804
  181MOL     H836368   7.895   6.621   7.549 -2.6465  1.3534  1.9357
  181MOL     H936369   7.833   6.361   7.714 -0.7384 -0.4038 -1.6149
  181MOL    H1036370   7.982   6.381   7.620  1.4243  3.2189 -0.2307
  181MOL    H1136371   7.568   6.384   7.451 -1.2200 -1.4185  1.4961
  181MOL    C1236372   7.961   6.508   7.791  0.1413 -0.5228  0.5357
  181MOL    C1336373   8.051   6.430   7.895 -0.3526  0.0392  0.1268
  181MOL   Cl1436374   8.067   6.256   7.871  0.3587 -0.0914  0.3549
  181MOL    C1536375   8.109   6.485   8.004  0.1322  0.3353 -0.6770
  181MOL    C1636376   8.104   6.633   8.028  0.2010 -0.0500  0.7340
  181MOL    H1736377   8.008   6.600   7.757  0.7647 -0.4138  1.6650
  181MOL    H1836378   7.873   6.537   7.848 -1.0543 -1.4277 -0.8315
  181MOL    H1936379   8.171   6.425   8.069 -0.1507  3.3151  2.4995
  181MOL    H2036380   8.195   6.677   7.988 -1.5457  1.2561 -2.0211
  181MOL    H2136381   8.033   6.685   7.963  0.3498  0.0915  0.6856
  181MOL    C2236382   8.105   6.681   8.171 -0.1812 -0.6611 -0.4401
  181MOL    C2336383   8.113   6.833   8.190 -0.0924 -0.2974 -0.5236
  181MOL   Cl2436384   7.975   6.894   8.279  0.0052 -0.0661  0.0071
  181MOL    C2536385   8.215   6.909   8.150 -0.1358  0.2003 -0.0285
  181MOL    C2636386   8.234   7.058   8.162  0.5860  0.0411 -0.3736
  181MOL    H2736387   8.015   6.646   8.222  0.2938  0.2824  1.0643
  181MOL    H2836388   8.189   6.655   8.234  0.6578 -2.0365 -2.0738
  181MOL    H2936389   8.297   6.856   8.105  0.9985  1.6458  0.3019
  181MOL    H3036390   8.141   7.103   8.198  1.0160  2.2367 -1.9092
  181MOL    H3136391   8.292   7.072   8.253  1.6326  1.6798 -1.2745
  181MOL    C3236392   8.301   7.137   8.051  0.1432  0.2433  0.0862
  181MOL    C3336393   8.200   7.141   7.931  0.4702 -0.1751 -0.4455
  181MOL   Cl3436394   8.262   7.063   7.796  0.0847  0.3874 -0.2403
  181MOL    C3536395   8.079   7.193   7.939 -0.5912  0.1778 -0.3676
  181MOL    C3636396   7.977   7.176   7.830  0.0576  0.3857  0.1738
  181MOL    H3736397   8.321   7.237   8.090 -2.6035  0.7377  0.2972
  181MOL    H3836398   8.394   7.098   8.009  0.2489  0.0408  0.4961
  181MOL    H3936399   8.050   7.252   8.025  0.6333  0.9732 -0.4801
  181MOL    H4036400   7.917   7.266   7.814  0.9274  0.8847 -0.3712
  181MOL    H4136401   8.018   7.160   7.730 -1.1538  1.4056 -0.4906
  181MOL    C4236402   7.877   7.070   7.880  0.1257 -0.8300  0.2491
  181MOL    C4336403   7.783   7.012   7.777 -0.0772  0.1591  0.6801
  181MOL   Cl4436404   7.831   6.864   7.695  0.3861 -0.1869 -0.0567
  181MOL    C4536405   7.658   7.056   7.754  0.4254  0.0538 -1.0997
  181MOL    C4636406   7.590   7.181   7.814 -0.2084 -0.4356  0.0582
  181MOL    H4736407   7.936   6.984   7.911  0.7244  0.2839  2.2891
  181MOL    H4836408   7.831   7.108   7.972  2.2154  0.1927  0.8986
  181MOL    H4936409   7.594   6.991   7.695 -0.8375 -0.1628  0.4616
  181MOL    H5036410   7.661   7.229   7.881  1.2673 -1.8132 -0.4660
  181MOL    H5136411   7.591   7.269   7.751  0.1287 -0.2821  0.2750
  181MOL    C5236412   7.449   7.156   7.869  0.1302  0.4069 -0.1512
  181MOL    C5336413   7.378   7.282   7.908  0.2413  0.9819  0.8376
  181MOL   Cl5436414   7.401   7.311   8.073  0.7076  0.2580 -0.2156
  181MOL    C5536415   7.310   7.362   7.822 -0.1027  0.6320  0.2953
  181MOL    C5636416   7.239   7.494   7.864 -0.0309 -0.4914 -0.4346
  181MOL    H5736417   7.398   7.103   7.789 -0.1691  0.5300 -0.0408
  181MOL    H5836418   7.459   7.082   7.949  0.1525 -0.9193 -1.3493
  181MOL    H5936419   7.315   7.343   7.716  1.6455  3.0670 -0.0999
  181MOL    H6036420   7.208   7.484   7.968  2.3688 -2.2143  0.1636
  181MOL    H6136421   7.315   7.572   7.867 -1.3661  0.8535 -0.9697
  181MOL    C6236422   7.122   7.527   7.782  0.0228 -0.4079  0.4603
  181MOL    C6336423   7.037   7.642   7.842 -0.6269 -0.1141  0.7535
  181MOL   Cl6436424   6.927   7.590   7.968  0.3075 -0.1109 -0.4364
  181MOL    C6536425   7.048   7.774   7.807  0.1996 -0.0391  0.6841
  181MOL    C6636426   6.956   7.881   7.861 -0.1381 -0.3905 -0.1045
  181MOL    H6736427   7.156   7.554   7.682  1.5519  2.0052  1.5799
  181MOL    H6836428   7.068   7.434   7.763  0.6657 -0.4966 -1.0418
  181MOL    H6936429   7.127   7.804   7.740  0.1820 -1.3345  0.0687
  181MOL    H7036430   6.908   7.853   7.955 -0.9610 -0.4570 -0.5426
  181MOL    H7136431   6.884   7.883   7.779  0.5250  0.3847 -0.6807
  181MOL    C7236432   7.035   8.023   7.868  0.3369 -0.2715  0.8161
  181MOL    C7336433   6.945   8.145   7.895  0.3650  0.6482 -0.0861
  181MOL   Cl7436434   6.926   8.245   7.763 -0.0802 -0.2924  0.2248
  181MOL    C7536435   6.888   8.175   8.016  0.1181  0.2640  0.1635
  181MOL    C7636436   6.804   8.296   8.052 -0.8238 -0.6792  1.1012
  181MOL    H7736437   7.083   8.055   7.776  0.6342 -0.9845  0.7142
  181MOL    H7836438   7.113   8.026   7.944  1.5683  1.0436 -0.4746
  181MOL    H7936439   6.907   8.109   8.099 -0.4323  2.2523  1.8944
  181MOL    H8036440   6.701   8.262   8.059 -1.3849 -0.0694 -3.1413
  181MOL    H8136441   6.810   8.363   7.967 -2.3097 -0.9303  0.7912
  181MOL    C8236442   6.862   8.354   8.183 -0.6138  0.3090  0.3461
  181MOL    C8336443   6.796   0.064   8.216 -0.0695 -0.5699 -0.0566
  181MOL   Cl8436444   6.723   0.058   8.376  0.1751  0.1953 -0.3712
  181MOL    C8536445   6.796   0.169   8.131  0.1507 -0.1935  0.2705
  181MOL    C8636446   6.738   0.311   8.159  0.5997  0.3933 -0.2963
  181MOL    H8736447   6.969   8.372   8.171 -0.4301 -0.5031  0.7162
  181MOL    H8836448   6.859   8.268   8.250  1.0353 -1.2187 -1.4560
  181MOL    H8936449   6.850   0.157   8.038 -0.3751 -0.8021  0.0390
  181MOL    H9036450   6.667   0.318   8.242  0.6118 -1.6140 -0.0879
  181MOL    H9136451   6.811   0.383   8.197  0.1198  0.8457 -0.2350
  181MOL    C9236452   6.664   0.367   8.039  0.2393 -0.0263  0.1431
  181MOL    C9336453   6.595   0.499   8.069 -0.3911 -0.2908 -0.4593
  181MOL   Cl9436454   6.435   0.468   8.134  0.3516  0.1314 -0.0426
  181MOL    C9536455   6.650   0.622   8.049  0.0096 -0.1169 -0.5127
  181MOL    C9636456   6.795   0.642   7.996  0.3746 -0.1794 -0.2768
  181MOL    H9736457   6.590   0.293   8.008  2.8928 -2.3688 -0.8591
  181MOL    H9836458   6.744   0.377   7.965 -0.4832 -0.8629 -0.7516
  181MOL    H9936459   6.587   0.706   8.074 -0.1066 -0.3683  0.0706
  181MOL   H10036460   6.848   0.669   8.087  0.9919 -1.7218 -0.1657
  181MOL   H10136461   6.837   0.555   7.946  1.8002 -0.0045  0.6047
  181MOL   C10236462   6.802   0.762   7.900  0.0140 -0.2082 -0.4083
  181MOL   C10336463   6.945   0.805   7.890  0.3611 -0.3587  1.0977
  181MOL  Cl10436464   7.036   0.689   7.798 -0.4212 -0.0432 -0.0270
  181MOL   C10536465   6.996   0.922   7.937 -0.0889  1.2918  0.8985
  181MOL   C10636466   7.139   0.973   7.923  0.4240  0.7938 -0.1787
  181MOL   H10736467   6.752   0.747   7.804  0.4134  0.5104 -0.7328
  181MOL   H10836468   6.758   0.851   7.944 -1.9244 -1.4218  0.1557
  181MOL   H10936469   6.931   0.992   7.987 -4.0421 -1.2161 -0.4941
  181MOL   H11036470   7.165   0.998   8.026 -0.1081 -1.0031  0.4111
  181MOL   H11136471   7.206   0.902   7.876  1.1111 -0.0990  2.0915
  181MOL   C11236472   7.137   1.112   7.854  0.0850  0.2282 -0.3805
  181MOL   C11336473   7.264   1.197   7.850  0.2694 -0.0876  0.3900
  181MOL  Cl11436474   7.371   1.135   7.721 -0.1918 -0.1407 -0.0511
  181MOL   C11536475   7.312   1.286   7.941  0.1456  0.5073  0.4170
  181MOL   C11636476   7.252   1.345   8.064  0.1289 -0.8221  0.0187
  181MOL   H11736477   7.100   1.093   7.753  2.4343  2.5544 -1.7642
  181MOL   H11836478   7.067   1.181   7.901  0.3282  1.7521 -2.2082
  181MOL   H11936479   7.401   1.340   7.911 -0.4458  2.4447  2.0565
  181MOL   H12036480   7.308   1.312   8.151  2.5226 -0.6241 -1.4231
  181MOL   H12136481   7.156   1.296   8.082 -0.1942 -0.0868  0.3514
  181MOL   C12236482   7.232   1.497   8.053  0.5588 -0.7512  0.0170
  181MOL   C12336483   7.166   1.561   8.174 -0.6412  0.1070  0.0392
  181MOL  Cl12436484   7.292   1.624   8.277 -0.0768 -0.0676  0.3709
  181MOL   C12536485   7.032   1.575   8.195  0.1300 -0.3360 -0.8783
  181MOL   C12636486   6.921   1.540   8.102 -0.4539  0.0357 -0.1592
  181MOL   H12736487   7.325   1.551   8.037 -0.1894  0.5913  0.1334
  181MOL   H12836488   7.168   1.514   7.966  0.5393 -0.2965  0.1227
  181MOL   H12936489   7.008   1.617   8.292  0.2312  1.7147 -1.7145
  181MOL   H13036490   6.906   1.628   8.041 -2.7505 -0.3292 -0.1472
  181MOL   H13136491   6.953   1.457   8.039 -1.5595  0.7939 -1.7222
  181MOL   C13236492   6.787   1.501   8.162 -0.0760 -0.3167 -0.1277
  181MOL   C13336493   6.796   1.356   8.218 -0.8381  0.8001 -0.3827
  181MOL  Cl13436494   6.852   1.241   8.109  0.0404  0.2182 -0.1216
  181MOL   C13536495   6.749   1.309   8.332 -0.1777  0.8258  0.0463
  181MOL   C13636496   6.673   1.385   0.022  0.0777 -0.3564  0.2223
  181MOL   H13736497   6.769   1.572   8.243  0.0933 -0.5657  0.1274
  181MOL   H13836498   6.711   1.497   8.084 -0.0607  1.0577 -0.2261
  181MOL   H13936499   6.752   1.201   8.343 -3.0925  0.5996 -0.9481
  181MOL   H14036500   6.739   1.386   0.109 -0.9976 -1.2304  1.0512
  181MOL   H14136501   6.653   1.490   0.000 -1.3275 -0.8243 -0.7718
  181MOL   C14236502   6.538   1.313   0.053 -0.7472 -0.9056  0.5898
  181MOL   C14336503   6.431   1.316   8.361  0.2765  0.2233 -0.5445
  181MOL  Cl14436504   6.437   1.177   8.265 -0.1587 -0.0772  0.2109
  181MOL   C14536505   6.347   1.418   8.326 -0.5700 -0.0433  0.5858
  181MOL   C14636506   6.253   1.415   8.212 -0.2588  0.3362  0.4063
  181MOL   H14736507   6.493   1.365   0.138 -0.5742  0.4575 -0.1496
  181MOL   H14836508   6.543   1.206   0.075  0.4493 -0.5210  2.2868
  181MOL   H14936509   6.359   1.508   8.384 -0.8163  1.8478 -2.2204
  181MOL   H15036510   6.257   1.315   8.168 -0.6975  0.4605  0.0805
  181MOL   H15136511   6.152   1.439   8.246  0.4080  1.0161  1.9673
  181MOL   C15236512   6.306   1.517   8.108 -0.1479 -0.4324  0.4006
  181MOL   C15336513   6.234   1.503   7.975  0.0699 -0.4273  0.6107
  181MOL  Cl15436514   6.170   1.651   7.921 -0.1551 -0.1772 -0.7546
  181MOL   C15536515   6.248   1.397   7.894 -0.4925 -0.5316  0.3867
  181MOL   C15636516   6.194   1.382   7.754  0.1925  0.3458  0.4874
  181MOL   H15736517   6.285   1.617   8.144  1.1033  1.1391 -3.0306
  181MOL   H15836518   6.412   1.528   8.087 -0.4401 -0.3577 -1.0757
  181MOL   H15936519   6.299   1.314   7.939 -1.0563  0.3404  2.6803
  181MOL   H16036520   6.129   1.466   7.729 -1.4182 -0.5091  1.7719
  181MOL   H16136521   6.128   1.295   7.746  1.0169 -0.3631  1.2830
  181MOL   C16236522   6.305   1.377   7.648 -0.6502 -0.1278 -0.5249
  181MOL   C16336523   6.270   1.330   7.504  0.0322 -0.1618  0.0493
  181MOL  Cl16436524   6.333   1.175   7.463  0.8926 -0.0499  0.1686
  181MOL   C16536525   6.174   1.389   7.436  0.5014 -0.4552 -0.1769
  181MOL   C16636526   6.115   1.341   7.304 -0.0929  0.3368  0.6860
  181MOL   H16736527   6.352   1.475   7.643 -3.3603  1.2522  0.2750
  181MOL   H16836528   6.383   1.306   7.675  0.5701  0.5480 -2.1684
  181MOL   H16936529   6.132   1.482   7.473  0.9874 -0.2878 -0.0473
  181MOL   H17036530   6.169   1.256   7.262 -1.0047 -0.4706  1.1423
  181MOL   H17136531   6.016   1.299   7.319  1.1698 -2.4133  1.5989
  181MOL   C17236532   6.127   1.439   7.187 -0.1962 -0.5938 -0.0476
  181MOL   C17336533   6.250   1.526   7.182 -0.3413  0.4985  0.4303
  181MOL  Cl17436534   6.207   1.684   7.143  0.4131 -0.3458  0.2948
  181MOL   C17536535   6.375   1.480   7.213 -0.1623 -0.9134 -0.2643
  181MOL   C17636536   6.500   1.565   7.225 -0.4157 -0.9030  0.4294
  181MOL   H17736537   6.041   1.507   7.193  0.8406  0.5550  2.7514
  181MOL   H17836538   6.113   1.392   7.090  0.0920  1.1853 -0.9812
  181MOL   H17936539   6.392   1.378   7.245  0.0714 -0.7362  0.1824
  181MOL   H18036540   6.547   1.558   7.323 -0.3777 -1.8859  0.3449
  181MOL   H18136541   6.475   1.670   7.207 -0.9501 -0.7416  2.1094
  181MOL   C18236542   6.599   1.518   7.118  0.3861  0.5152 -0.6467
  181MOL   C18336543   6.713   1.616   7.113 -0.0521  0.7233  0.6218
  181MOL  Cl18436544   6.837   1.571   7.222 -0.1134 -0.5027 -0.1486
  181MOL   C18536545   6.715   1.732   7.043  0.4780 -0.2620 -0.5645
  181MOL   C18636546   6.834   1.832   7.045  0.7422  0.3570 -0.1082
  181MOL   H18736547   6.628   1.417   7.147  0.1283  0.1728 -1.5382
  181MOL   H18836548   6.553   1.515   7.019 -0.1937 -1.5533 -0.3297
  181MOL   H18936549   6.630   1.761   6.983 -0.3058  1.4912  1.3013
  181MOL   H19036550   6.819   1.927   7.095  2.1184  0.7904 -0.4996
  181MOL   H19136551   6.926   1.787   7.083 -0.0121 -0.0807  1.2064
  181MOL   C19236552   6.864   1.857   6.895 -0.2788  1.1394 -0.7672
  181MOL   C19336553   6.981   1.953   6.858 -0.5094  0.2809 -0.2890
  181MOL  Cl19436554   7.009   2.079   6.968 -0.1512  0.0465  0.4138
  181MOL   C19536555   7.069   1.943   6.754  0.2187  0.0481 -0.6160
  181MOL   C19636556   7.076   1.826   6.658  0.6087  0.5747  0.2851
  181MOL   H19736557   6.771   1.898   6.856 -0.5142  1.6300  0.2980
  181MOL   H19836558   6.884   1.767   6.838 -0.8699 -0.6751  1.8287
  181MOL   H19936559   7.145   2.018   6.742 -1.4237  2.3951  2.8200
  181MOL   H20036560   7.137   1.746   6.700  0.7080  0.3996 -0.1956
  181MOL   H20136561   7.124   1.847   6.563  1.6263 -0.4033  0.5658
  181MOL   H20236562   6.975   1.804   6.624  0.0127  0.2214  2.2111
  182MOL     C136563   6.020   3.065   3.634 -1.1686  0.1126 -0.1390
  182MOL     C236564   6.060   2.982   3.752 -0.0290 -0.3970 -0.0849
  182MOL    Cl336565   6.123   2.827   3.707  0.3705  0.3138  0.0514
  182MOL     C436566   6.049   3.009   3.884  0.1739 -0.6780  0.0094
  182MOL     C536567   5.999   3.141   3.940  0.0633 -0.3788  0.1940
  182MOL     H636568   6.077   3.024   3.550 -2.2550 -1.6551 -0.0253
  182MOL     H736569   6.057   3.168   3.637  2.3775 -0.9973 -2.2049
  182MOL     H836570   6.077   2.925   3.946 -2.6317 -0.0727  2.2272
  182MOL     H936571   5.979   3.219   3.867 -1.0095  1.3091  2.2734
  182MOL    H1036572   5.910   3.110   3.993  0.7811 -0.2114  1.5038
  182MOL    H1136573   5.914   3.064   3.608 -0.7730  1.5631 -1.9387
  182MOL    C1236574   6.108   3.196   4.033  0.6297 -0.4002 -0.3487
  182MOL    C1336575   6.051   3.299   4.139  0.2254 -0.5570  0.1062
  182MOL   Cl1436576   5.956   3.429   4.076  0.3866  0.1994 -0.0910
  182MOL    C1536577   6.059   3.289   4.273 -0.0270  0.4026 -0.5332
  182MOL    C1636578   6.112   3.171   4.351  0.8921  0.3670 -0.2245
  182MOL    H1736579   6.164   3.118   4.083  0.5859 -0.8556 -0.9958
  182MOL    H1836580   6.175   3.248   3.964  0.4150  2.2810  1.3760
  182MOL    H1936581   6.022   3.372   4.330 -2.0131 -0.9930  0.2605
  182MOL    H2036582   6.042   3.151   4.432 -0.3691  1.6664 -0.9830
  182MOL    H2136583   6.107   3.083   4.288 -2.0036  0.7596 -0.5892
  182MOL    C2236584   6.246   3.199   4.422 -0.2159 -0.3940  0.1815
  182MOL    C2336585   6.332   3.078   4.436 -0.4471 -0.5065 -0.4733
  182MOL   Cl2436586   6.375   3.049   4.599  0.2687  0.2574  0.0097
  182MOL    C2536587   6.354   2.991   4.336 -0.4078 -0.8045 -0.1178
  182MOL    C2636588   6.431   2.862   4.357 -0.1663  0.0063  0.9265
  182MOL    H2736589   6.305   3.279   4.378 -0.3687  0.8409  2.1777
  182MOL    H2836590   6.224   3.236   4.522  2.5556  0.8689  0.3541
  182MOL    H2936591   6.325   3.008   4.233  0.9857 -1.0242 -0.5618
  182MOL    H3036592   6.398   2.807   4.446  1.4089 -0.8004  1.0142
  182MOL    H3136593   6.405   2.791   4.279  0.7707  0.5977  0.0684
  182MOL    C3236594   6.582   2.883   4.351  0.1079  0.0865 -0.3580
  182MOL    C3336595   6.666   2.770   4.391  0.4959  0.5813 -0.3439
  182MOL   Cl3436596   6.638   2.735   4.555  0.2333 -0.3070  0.2990
  182MOL    C3536597   6.760   2.715   4.313  0.0190  0.6273 -0.6945
  182MOL    C3636598   6.851   2.601   4.347  0.0011 -0.3852  0.2528
  182MOL    H3736599   6.596   2.914   4.247 -3.6316  0.4737 -0.8200
  182MOL    H3836600   6.612   2.974   4.403 -1.7393  0.9083 -0.6910
  182MOL    H3936601   6.757   2.751   4.212 -1.3075  0.2499 -0.7970
  182MOL    H4036602   6.810   2.557   4.437 -1.6603  0.0019 -0.2886
  182MOL    H4136603   6.860   2.528   4.266  0.2619  1.2115 -1.1936
  182MOL    C4236604   6.989   2.654   4.372  0.4863 -0.5042  0.2577
  182MOL    C4336605   7.072   2.563   4.457 -0.0682  0.7557  0.3168
  182MOL   Cl4436606   7.159   2.454   4.360  0.0279  0.1876 -0.0593
  182MOL    C4536607   7.068   2.563   4.591 -0.6126  0.3190 -0.6181
  182MOL    C4636608   6.982   2.653   4.678 -0.4912  0.1267 -0.6241
  182MOL    H4736609   7.039   2.675   4.278  0.4085  0.6190  0.4546
  182MOL    H4836610   6.987   2.744   4.434  0.6668  0.4404 -1.0860
  182MOL    H4936611   7.133   2.491   4.640 -0.0197  2.8078  2.4295
  182MOL    H5036612   6.914   2.711   4.616 -2.1034 -1.6983 -0.5884
  182MOL    H5136613   6.913   2.587   4.730  0.9572 -0.3772  0.7252
  182MOL    C5236614   7.068   2.732   4.786  0.4883  0.6440 -0.1858
  182MOL    C5336615   6.977   2.841   4.839 -0.2053  0.2706 -0.5380
  182MOL   Cl5436616   7.077   2.966   4.910 -0.0653 -0.4825 -0.2791
  182MOL    C5536617   6.847   2.844   4.857 -1.3951  0.1031  0.0547
  182MOL    C5636618   6.777   2.967   4.913  0.7112 -0.3412 -0.4114
  182MOL    H5736619   7.089   2.654   4.859  0.2283  0.8173  0.0697
  182MOL    H5836620   7.149   2.789   4.740  0.6533 -0.0665 -0.7826
  182MOL    H5936621   6.784   2.759   4.830 -2.2443 -0.0564  2.4212
  182MOL    H6036622   6.776   2.963   5.022  0.5085 -0.7321 -0.4286
  182MOL    H6136623   6.836   3.058   4.904  2.2558 -1.2997 -0.1700
  182MOL    C6236624   6.627   2.991   4.853 -0.5030  0.0306 -0.0977
  182MOL    C6336625   6.537   3.079   4.945  0.7370  0.1825 -0.0294
  182MOL   Cl6436626   6.622   3.195   5.038 -0.0578 -0.0909  0.0377
  182MOL    C6536627   6.404   3.051   4.965  0.3110 -0.4798  0.4398
  182MOL    C6636628   6.303   3.121   5.055  0.5860  0.0804 -0.4002
  182MOL    H6736629   6.632   3.044   4.759  0.8984  0.4807  0.2162
  182MOL    H6836630   6.575   2.898   4.829 -1.4157  0.9294 -1.6409
  182MOL    H6936631   6.365   2.975   4.900 -3.1420  1.4755  0.0985
  182MOL    H7036632   6.351   3.184   5.130 -1.6917 -0.7426  1.8041
  182MOL    H7136633   6.245   3.048   5.113 -1.1570  1.1445 -0.7639
  182MOL    C7236634   6.203   3.204   4.975  0.8221 -0.8181  0.5177
  182MOL    C7336635   6.124   3.310   5.055  0.1197 -0.3234  0.0460
  182MOL   Cl7436636   6.126   3.464   4.981  0.4688  0.0096  0.0248
  182MOL    C7536637   6.059   3.292   5.167 -0.6278  0.0012 -0.8783
  182MOL    C7636638   5.993   3.392   5.261  0.8079  0.3264 -0.8626
  182MOL    H7736639   6.129   3.136   4.933  1.2786  0.4511 -2.4599
  182MOL    H7836640   6.256   3.259   4.898 -1.0822  0.9489  0.4320
  182MOL    H7936641   6.057   3.191   5.205 -0.0669 -0.1634 -1.2823
  182MOL    H8036642   5.884   3.383   5.254  0.7404  2.0611 -2.6190
  182MOL    H8136643   6.029   3.487   5.221  2.3015 -0.6867 -1.9654
  182MOL    C8236644   6.039   3.392   5.410 -0.4460  0.0819  0.4486
  182MOL    C8336645   6.189   3.373   5.427 -0.4930  0.0097  0.5712
  182MOL   Cl8436646   6.221   3.223   5.510 -0.2923  0.2040  0.0373
  182MOL    C8536647   6.286   3.436   5.360  0.4611 -0.3949 -0.0822
  182MOL    C8636648   6.435   3.392   5.376  0.0029  0.2261  0.2986
  182MOL    H8736649   5.981   3.327   5.476  0.9114 -0.3475  1.2384
  182MOL    H8836650   6.025   3.490   5.455  1.5534  0.9173 -0.6839
  182MOL    H8936651   6.257   3.516   5.295 -0.1314 -0.9644 -0.5245
  182MOL    H9036652   6.441   3.283   5.372  1.9182  0.1862  3.1578
  182MOL    H9136653   6.485   3.427   5.286 -0.2304  0.0571  0.1041
  182MOL    C9236654   6.504   3.432   5.509  0.3271  0.5589  0.4966
  182MOL    C9336655   6.647   3.391   5.502 -0.5180 -0.2316  0.7159
  182MOL   Cl9436656   6.690   3.261   5.613 -0.0928  0.2975  0.3435
  182MOL    C9536657   6.742   3.460   5.432  0.6163  0.5256  0.4392
  182MOL    C9636658   6.718   3.576   5.329  0.2542 -0.2389  0.3871
  182MOL    H9736659   6.459   3.397   5.602  1.3107 -0.7626  0.4972
  182MOL    H9836660   6.496   3.541   5.506 -1.4236  0.4153 -0.3204
  182MOL    H9936661   6.840   3.420   5.453  0.0728 -0.3826  1.2879
  182MOL   H10036662   6.733   3.537   5.228  1.9684  0.2530  0.4359
  182MOL   H10136663   6.619   3.621   5.335  0.0167 -0.9822  2.6140
  182MOL   C10236664   6.816   3.688   5.349 -0.2908  0.5234  0.2689
  182MOL   C10336665   6.770   3.821   5.301 -0.2301  0.1081 -0.3250
  182MOL  Cl10436666   6.625   3.888   5.380  0.1758  0.0833 -0.2525
  182MOL   C10536667   6.837   3.906   5.212  0.2291 -0.5757 -0.3623
  182MOL   C10636668   6.798   4.044   5.167  0.0573  0.3929 -0.1615
  182MOL   H10736669   6.831   3.705   5.455  0.6568 -0.0912  0.2379
  182MOL   H10836670   6.914   3.671   5.304  0.0810  0.7149  1.0071
  182MOL   H10936671   6.928   3.869   5.168 -0.2560  0.7336 -2.5329
  182MOL   H11036672   6.716   4.091   5.221  0.7458  2.2681 -0.7038
  182MOL   H11136673   6.887   4.103   5.186 -0.2921 -0.1020  3.2803
  182MOL   C11236674   6.747   4.053   5.024  0.0447 -1.2195 -0.0383
  182MOL   C11336675   6.718   4.193   4.975  0.0349  0.4870  0.6632
  182MOL  Cl11436676   6.548   4.225   4.937 -0.4806  0.4140 -0.3849
  182MOL   C11536677   6.808   4.295   4.945 -0.7342  0.1249  0.3264
  182MOL   C11636678   6.959   4.298   4.962 -0.1763  0.2883  0.4337
  182MOL   H11736679   6.820   4.008   4.956  0.1921  1.0859 -1.4543
  182MOL   H11836680   6.656   3.993   5.015 -0.4217 -0.5463  0.2042
  182MOL   H11936681   6.776   4.394   4.917  1.9498  1.1774  0.7912
  182MOL   H12036682   6.985   4.202   5.005 -1.2258 -0.8597 -1.4139
  182MOL   H12136683   6.972   4.377   5.036  0.1825 -1.7338  2.5864
  182MOL   C12236684   7.034   4.328   4.834 -0.1819 -0.4399 -0.4697
  182MOL   C12336685   7.180   4.330   4.875 -0.5639 -0.6343 -0.0155
  182MOL  Cl12436686   7.264   4.181   4.841 -0.4897  0.1704 -0.1403
  182MOL   C12536687   7.251   4.437   4.927 -0.6859 -0.2480 -0.6969
  182MOL   C12636688   7.196   4.573   4.957 -0.6931 -0.4731 -0.1448
  182MOL   H12736689   7.015   4.245   4.766 -0.4969 -0.0140 -0.8996
  182MOL   H12836690   7.002   4.424   4.794 -0.8590  0.4446  2.0739
  182MOL   H12936691   7.357   4.423   4.948 -0.2505  1.8308 -1.4177
  182MOL   H13036692   7.223   4.629   4.867 -0.3281 -1.4023 -0.6135
  182MOL   H13136693   7.088   4.557   4.963 -0.5734 -0.9594  0.8323
  182MOL   C13236694   7.245   4.636   5.082 -0.0149  0.8964  0.0844
  182MOL   C13336695   7.167   4.751   5.141  0.7440  0.4774  0.2191
  182MOL  Cl13436696   7.201   4.910   5.062 -0.2475  0.2569  0.4739
  182MOL   C13536697   7.090   4.757   5.249  0.7594 -0.0806 -0.4772
  182MOL   C13636698   7.054   4.638   5.337  0.3712 -0.3513  0.7382
  182MOL   H13736699   7.245   4.554   5.154 -0.0857 -0.1504 -1.0845
  182MOL   H13836700   7.348   4.667   5.066  0.1357  0.4138  0.1314
  182MOL   H13936701   7.041   4.850   5.271  0.0757 -0.0652 -1.9682
  182MOL   H14036702   7.066   4.542   5.286  1.8615  1.2294 -1.9989
  182MOL   H14136703   7.126   4.639   5.419  0.9583  0.1340  0.2180
  182MOL   C14236704   6.902   4.653   5.387  0.2749  0.7625  0.2697
  182MOL   C14336705   6.884   4.558   5.501  0.5106 -0.0787  0.3642
  182MOL  Cl14436706   6.931   4.630   5.654 -0.2676  0.1953  0.2496
  182MOL   C14536707   6.831   4.435   5.483 -0.6256 -0.1270 -0.6607
  182MOL   C14636708   6.811   4.327   5.591 -0.2399 -0.4029  0.5673
  182MOL   H14736709   6.829   4.630   5.310 -1.0930  2.8946  0.8865
  182MOL   H14836710   6.880   4.753   5.425 -0.8913  1.0103 -1.0497
  182MOL   H14936711   6.800   4.406   5.384 -2.2438  0.9841 -0.5046
  182MOL   H15036712   6.879   4.339   5.675  0.0351 -0.1414  0.3101
  182MOL   H15136713   6.708   4.331   5.627 -0.2524  0.2102  0.4710
  182MOL   C15236714   6.823   4.193   5.534  0.4352 -0.5554  0.5468
  182MOL   C15336715   6.832   4.080   5.638  0.3605  0.1421  0.3872
  182MOL  Cl15436716   6.984   4.009   5.656  0.0619  0.0303 -0.3188
  182MOL   C15536717   6.723   4.045   5.707  0.1318 -0.6308  0.3595
  182MOL   C15636718   6.727   3.936   5.810  0.1944  0.3567 -0.2837
  182MOL   H15736719   6.730   4.182   5.477  0.7956  1.3228 -0.4526
  182MOL   H15836720   6.905   4.189   5.462 -0.3287 -3.6011 -0.2274
  182MOL   H15936721   6.626   4.092   5.701 -0.0582 -1.0304  0.3126
  182MOL   H16036722   6.674   3.979   5.894 -1.5659  0.8124 -1.6052
  182MOL   H16136723   6.824   3.902   5.847 -0.8491 -0.3394  1.9025
  182MOL   C16236724   6.637   3.821   5.766  0.1619  0.3230  0.1216
  182MOL   C16336725   6.633   3.700   5.857 -1.2188  0.5071  0.1350
  182MOL  Cl16436726   6.582   3.748   6.010 -0.4644  0.2804 -0.3064
  182MOL   C16536727   6.671   3.577   5.823 -0.2942 -0.5194  0.5301
  182MOL   C16636728   6.681   3.469   5.930 -0.2037 -0.1977 -0.1844
  182MOL   H16736729   6.531   3.849   5.764  0.7285  2.5482 -0.2722
  182MOL   H16836730   6.668   3.775   5.672 -0.1487  0.4579 -0.0494
  182MOL   H16936731   6.703   3.553   5.722 -1.1876 -0.8932  0.3331
  182MOL   H17036732   6.634   3.496   6.025 -0.9837  3.1392 -1.4502
  182MOL   H17136733   6.614   3.390   5.895 -3.0154  1.4056  1.3953
  182MOL   C17236734   6.819   3.411   5.947 -0.2611 -0.4144 -0.0494
  182MOL   C17336735   6.834   3.305   6.058 -0.3692 -0.2936 -0.2601
  182MOL  Cl17436736   6.676   3.229   6.097 -0.2969  0.2265  0.1314
  182MOL   C17536737   6.950   3.295   6.124 -0.4220  0.2454  0.2142
  182MOL   C17636738   6.983   3.208   6.248 -0.0550 -0.7873 -0.3756
  182MOL   H17736739   6.882   3.495   5.976 -1.0484 -0.5461  2.1030
  182MOL   H17836740   6.854   3.366   5.854 -1.0037 -2.8376  0.8061
  182MOL   H17936741   7.029   3.358   6.084  0.2335 -0.4871  0.3505
  182MOL   H18036742   7.034   3.115   6.223 -0.3583 -1.2598  0.7306
  182MOL   H18136743   6.887   3.174   6.288 -0.2879 -2.3588 -2.1701
  182MOL   C18236744   7.063   3.294   6.352 -0.9307 -0.7808 -0.0393
  182MOL   C18336745   7.104   3.212   6.460  0.1586  0.1338  0.3154
  182MOL  Cl18436746   6.983   3.172   6.571 -0.0584  0.1164  0.2385
  182MOL   C18536747   7.234   3.178   6.479  0.1499  0.0927  0.6763
  182MOL   C18636748   7.289   3.076   6.577  0.2442 -0.4823  0.2235
  182MOL   H18736749   7.154   3.341   6.315  0.6711 -0.6143  3.8944
  182MOL   H18836750   7.002   3.377   6.388 -1.7745 -0.1209 -2.8315
  182MOL   H18936751   7.307   3.225   6.414 -0.7323 -0.2876 -0.6175
  182MOL   H19036752   7.397   3.089   6.572  0.7294 -4.6812 -2.3008
  182MOL   H19136753   7.254   3.118   6.671  0.4855 -0.1413  0.1627
  182MOL   C19236754   7.240   2.931   6.554 -0.1144  0.3024 -0.2632
  182MOL   C19336755   7.308   2.836   6.652  0.4049  0.0448  1.0533
  182MOL  Cl19436756   7.470   2.799   6.608  0.2747  0.1479  0.1856
  182MOL   C19536757   7.264   2.793   6.763  0.4429 -0.4533  0.4800
  182MOL   C19636758   7.122   2.820   6.827 -0.1334 -0.2156 -0.2770
  182MOL   H19736759   7.263   2.893   6.455  0.5639  1.1983 -0.4473
  182MOL   H19836760   7.132   2.929   6.568 -0.0780  0.2397  0.0323
  182MOL   H19936761   7.322   2.725   6.824  0.9491 -2.1728 -1.8382
  182MOL   H20036762   7.142   2.827   6.934  1.7825 -1.6057 -0.5106
  182MOL   H20136763   7.055   2.735   6.817  0.1366 -0.7870  2.2516
  182MOL   H20236764   7.072   2.910   6.790 -0.7759 -1.1440 -1.7098
  183MOL     C136765   1.509   1.535   2.768 -0.2811  0.4346 -0.0563
  183MOL     C236766   1.575   1.400   2.779 -0.0488 -0.1151 -0.5102
  183MOL    Cl336767   1.627   1.376   2.940  0.5292  0.0398  0.0477
  183MOL     C436768   1.592   1.307   2.679  0.3995 -0.8040 -0.3144
  183MOL     C536769   1.570   1.339   2.531 -0.5854  0.0636  0.1718
  183MOL     H636770   1.480   1.575   2.865  1.0019 -1.0830  0.9823
  183MOL     H736771   1.420   1.528   2.706 -1.2179  0.1876  1.3059
  183MOL     H836772   1.638   1.212   2.703  0.8906 -0.4814  0.0213
  183MOL     H936773   1.513   1.257   2.489 -0.2483 -0.0001 -0.1662
  183MOL    H1036774   1.509   1.425   2.506 -1.1069 -0.4758 -0.4256
  183MOL    H1136775   1.579   1.600   2.714 -1.2174 -0.6404 -2.6521
  183MOL    C1236776   1.698   1.340   2.454 -0.1206 -0.0552  0.0234
  183MOL    C1336777   1.687   1.377   2.307 -0.6472 -1.2903  0.6031
  183MOL   Cl1436778   1.691   1.237   2.201  0.1594 -0.3417 -0.1190
  183MOL    C1536779   1.681   1.502   2.256  0.0961 -0.2616 -0.6690
  183MOL    C1636780   1.691   1.630   2.346 -0.2575  0.1835 -0.3336
  183MOL    H1736781   1.764   1.412   2.503  0.1558 -1.2412  1.4380
  183MOL    H1836782   1.747   1.244   2.468 -0.2508 -0.0544  0.4939
  183MOL    H1936783   1.659   1.516   2.152  1.3661 -0.6608 -1.0050
  183MOL    H2036784   1.679   1.588   2.446 -0.7399 -2.1107 -1.3280
  183MOL    H2136785   1.789   1.678   2.338 -0.1078 -0.3608 -2.1066
  183MOL    C2236786   1.575   1.729   2.325 -0.2269 -0.7792 -0.3035
  183MOL    C2336787   1.586   1.847   2.423  0.0094 -0.0730  0.4449
  183MOL   Cl2436788   1.501   1.811   2.569  0.2082 -0.0369 -0.3994
  183MOL    C2536789   1.645   1.965   2.410 -0.7228 -0.2309  0.0842
  183MOL    C2636790   1.644   2.077   2.515 -0.6250  0.3283 -0.1296
  183MOL    H2736791   1.553   1.759   2.223  3.0367 -1.4106 -1.2484
  183MOL    H2836792   1.479   1.681   2.343 -0.5378 -0.9838 -2.4299
  183MOL    H2936793   1.704   1.985   2.321  0.9354  0.8627  1.4001
  183MOL    H3036794   1.607   2.051   2.614 -0.1282  1.0204  0.2427
  183MOL    H3136795   1.749   2.106   2.518 -0.4345 -0.2339 -1.1713
  183MOL    C3236796   1.563   2.198   2.467 -0.6400 -0.3247 -0.2158
  183MOL    C3336797   1.563   2.322   2.555  0.2689 -0.8127 -0.4148
  183MOL   Cl3436798   1.523   2.468   2.460 -0.3248 -0.0161 -0.4524
  183MOL    C3536799   1.583   2.321   2.686 -0.0004  0.1377  0.2356
  183MOL    C3636800   1.587   2.435   2.781 -0.7058 -0.2142 -0.3852
  183MOL    H3736801   1.597   2.236   2.370 -1.6626  3.7635  0.9327
  183MOL    H3836802   1.458   2.177   2.446 -0.3488  0.1337 -2.2078
  183MOL    H3936803   1.610   2.229   2.736 -2.6979 -0.7100  0.1980
  183MOL    H4036804   1.620   2.528   2.735 -0.5392 -0.4828 -0.8023
  183MOL    H4136805   1.485   2.443   2.819 -0.1931 -0.4905  1.0777
  183MOL    C4236806   1.680   2.418   2.907 -0.0679  0.4889 -0.5166
  183MOL    C4336807   1.668   2.534   3.003 -0.3287  0.6561 -0.5660
  183MOL   Cl4436808   1.761   2.671   2.962  0.1705  0.0423  0.1763
  183MOL    C4536809   1.601   2.545   3.117 -0.0427  0.1569  0.7139
  183MOL    C4636810   1.500   2.446   3.170  0.4605  0.0326  0.7945
  183MOL    H4736811   1.638   2.326   2.948  1.7084  0.0824  0.4375
  183MOL    H4836812   1.785   2.393   2.894  0.2575  1.8980 -0.5810
  183MOL    H4936813   1.605   2.634   3.179  1.0158 -0.8675  2.1471
  183MOL    H5036814   1.410   2.503   3.193  1.3380  1.5267  0.6331
  183MOL    H5136815   1.473   2.377   3.090 -0.2623  2.1023 -0.7778
  183MOL    C5236816   1.552   2.369   3.297 -0.2260 -0.1455  0.0371
  183MOL    C5336817   1.461   2.251   3.331 -0.3312 -0.3363 -0.3131
  183MOL   Cl5436818   1.292   2.277   3.320 -0.4700 -0.1930  0.1943
  183MOL    C5536819   1.503   2.123   3.351  0.0353  0.6694  0.0284
  183MOL    C5636820   1.422   2.001   3.375 -0.0169 -0.3304 -0.3900
  183MOL    H5736821   1.658   2.344   3.306 -0.0600  0.9725  1.2941
  183MOL    H5836822   1.529   2.443   3.373  3.8403 -0.1708  1.4171
  183MOL    H5936823   1.607   2.092   3.343  0.5198  2.1989  0.2167
  183MOL    H6036824   1.467   1.960   3.465  1.5599  1.1612 -0.4736
  183MOL    H6136825   1.319   2.013   3.410 -0.2616 -2.9018 -0.1549
  183MOL    C6236826   1.417   1.908   3.248 -0.5097 -0.5171  0.5348
  183MOL    C6336827   1.312   1.948   3.146  0.4192  0.6835 -0.1734
  183MOL   Cl6436828   1.373   1.965   2.989 -0.2200 -0.4917 -0.8015
  183MOL    C6536829   1.182   1.981   3.175 -0.1565  0.0608  1.2591
  183MOL    C6636830   1.072   2.023   3.077  0.8971  0.5595 -0.6194
  183MOL    H6736831   1.515   1.907   3.199 -0.7886  0.2784 -0.0422
  183MOL    H6836832   1.403   1.808   3.289  1.6096 -0.9858  0.1690
  183MOL    H6936833   1.156   1.977   3.280 -1.5783  0.0699  0.9197
  183MOL    H7036834   1.105   2.005   2.975  2.0480  1.0244 -0.3370
  183MOL    H7136835   1.053   2.129   3.088 -0.5675  0.2540 -0.1080
  183MOL    C7236836   0.946   1.933   3.098 -0.1197 -0.4507 -0.4281
  183MOL    C7336837   0.849   1.959   2.992  0.0585 -0.1586 -0.6330
  183MOL   Cl7436838   0.849   1.833   2.878 -0.2579 -0.0551 -0.3402
  183MOL    C7536839   0.769   2.070   2.985 -0.1238  0.4345  0.0777
  183MOL    C7636840   0.673   2.105   2.873  0.1317 -0.4888  0.1134
  183MOL    H7736841   0.897   1.962   3.192  0.9146 -0.0620  0.0012
  183MOL    H7836842   0.951   1.826   3.115 -1.7447  0.0497  3.9344
  183MOL    H7936843   0.773   2.141   3.066  0.4636  0.6327 -0.1231
  183MOL    H8036844   0.685   2.040   2.786  2.8280 -1.2743  1.0174
  183MOL    H8136845   0.704   2.204   2.839 -1.9904 -0.5726 -2.2367
  183MOL    C8236846   0.531   2.111   2.925  0.3574  0.3539  0.4559
  183MOL    C8336847   0.494   1.983   3.002 -0.6761  1.0845  0.0324
  183MOL   Cl8436848   0.457   1.844   2.902  0.2749 -0.3301  0.4457
  183MOL    C8536849   0.507   1.973   3.133  0.4890  0.7577 -0.1111
  183MOL    C8636850   0.488   1.841   3.211 -0.2273 -0.0932 -0.3359
  183MOL    H8736851   0.457   2.137   2.849 -0.2828  0.4569  1.1119
  183MOL    H8836852   0.538   2.198   2.990  1.2503  0.9412 -0.4104
  183MOL    H8936853   0.526   2.064   3.187 -2.4804  0.7077  1.1307
  183MOL    H9036854   0.420   1.860   3.295  1.4591 -0.8301  1.2289
  183MOL    H9136855   0.436   1.764   3.154  0.2976 -0.7538  0.0850
  183MOL    C9236856   0.624   1.792   3.258 -0.3899 -0.2146 -0.2592
  183MOL    C9336857   0.636   1.664   3.348  0.6969 -0.1465  0.3636
  183MOL   Cl9436858   0.693   1.522   3.259 -0.1669 -0.0526 -0.3008
  183MOL    C9536859   0.611   1.653   3.481 -0.1890  0.5885  0.0580
  183MOL    C9636860   0.563   1.763   3.572  0.0813  0.0109  0.9524
  183MOL    H9736861   0.686   1.864   3.312 -0.9615  0.0522  0.0507
  183MOL    H9836862   0.685   1.779   3.169 -0.6887  1.1136 -0.6722
  183MOL    H9936863   0.625   1.558   3.529 -0.0549  1.0082  0.8626
  183MOL   H10036864   0.637   1.772   3.652  0.7750 -0.7897  0.4039
  183MOL   H10136865   0.558   1.861   3.526 -2.8845  0.3125  1.8164
  183MOL   C10236866   0.416   1.743   3.612  0.1256 -0.4884  0.1693
  183MOL   C10336867   0.412   1.644   3.726 -0.4715  0.3377 -0.2091
  183MOL  Cl10436868   0.364   1.714   3.877 -0.0758 -0.1206  0.0099
  183MOL   C10536869   0.422   1.511   3.716 -0.0304 -0.4651 -0.7224
  183MOL   C10636870   0.414   1.407   3.831 -0.4330 -0.1497 -1.1412
  183MOL   H10736871   0.389   1.839   3.656 -0.3864 -1.1691  1.3761
  183MOL   H10836872   0.347   1.707   3.536  1.7825 -0.3286 -1.4371
  183MOL   H10936873   0.435   1.468   3.618  1.2087  3.5528 -2.4538
  183MOL   H11036874   0.510   1.355   3.837 -0.0735  0.6984  1.4725
  183MOL   H11136875   0.400   1.455   3.928  1.2903 -0.7700 -0.5648
  183MOL   C11236876   0.302   1.312   3.809  0.0490  0.0872  0.0741
  183MOL   C11336877   0.275   1.201   3.916 -0.7079 -0.1630 -0.0068
  183MOL  Cl11436878   0.139   1.228   4.011  0.0552 -0.4823 -0.2951
  183MOL   C11536879   0.340   1.085   3.942  0.2564 -0.0691  0.0881
  183MOL   C11636880   0.453   1.024   3.868  0.7680 -0.4649 -0.0134
  183MOL   H11736881   0.211   1.365   3.782  0.4145  1.4146  1.3618
  183MOL   H11836882   0.323   1.261   3.715  1.2332 -0.9668  0.8870
  183MOL   H11936883   0.306   1.030   4.029  0.5637 -0.8226 -0.2642
  183MOL   H12036884   0.452   1.051   3.762 -3.5758 -2.1248 -0.5011
  183MOL   H12136885   0.440   0.916   3.871 -0.3660 -0.3376  0.0709
  183MOL   C12236886   0.588   1.061   3.932 -0.7184  0.7632 -0.4289
  183MOL   C12336887   0.697   0.962   3.917  0.2712 -1.0552 -0.1520
  183MOL  Cl12436888   0.720   0.870   4.056  0.1986 -0.1377 -0.1639
  183MOL   C12536889   0.788   0.964   3.817 -0.4157  0.5917 -0.4735
  183MOL   C12636890   0.802   1.052   3.695  0.1688  0.1027 -0.0359
  183MOL   H12736891   0.630   1.148   3.882  5.3388 -1.9609 -0.4889
  183MOL   H12836892   0.573   1.090   4.036  2.0559  1.2925 -0.1539
  183MOL   H12936893   0.861   0.887   3.837 -0.9439  0.4340  0.9083
  183MOL   H13036894   0.756   1.148   3.722  0.3928  0.6580 -1.5688
  183MOL   H13136895   0.906   1.078   3.677  0.1316  0.4979  0.2979
  183MOL   C13236896   0.742   0.988   3.573  0.1330 -0.0237 -0.9999
  183MOL   C13336897   0.761   1.071   3.449  0.1111  0.5123  0.4342
  183MOL  Cl13436898   0.905   1.030   3.362 -0.0512  0.4627 -0.1375
  183MOL   C13536899   0.679   1.159   3.396  0.2110 -0.5561 -0.2246
  183MOL   C13636900   0.552   1.207   3.461 -0.1102  0.9446  0.0920
  183MOL   H13736901   0.794   0.893   3.560  1.6271  0.9551 -2.3734
  183MOL   H13836902   0.640   0.971   3.606  1.0704  0.0605  2.1524
  183MOL   H13936903   0.706   1.203   3.301  1.3590  1.8985  1.1889
  183MOL   H14036904   0.523   1.141   3.543 -0.0561  1.0843  0.2234
  183MOL   H14136905   0.572   1.300   3.516 -0.1167 -0.0859  1.8745
  183MOL   C14236906   0.431   1.229   3.367 -0.2207 -0.1378 -0.4602
  183MOL   C14336907   0.303   1.199   3.435 -0.4723 -0.1545 -0.7854
  183MOL  Cl14436908   0.224   1.345   3.474  0.1536 -0.3868  0.0006
  183MOL   C14536909   0.252   1.077   3.446  0.2353  0.0100  0.1328
  183MOL   C14636910   0.127   1.044   3.526 -0.1424  0.1945 -0.4222
  183MOL   H14736911   0.450   1.160   3.285  0.3814  0.7193 -1.0549
  183MOL   H14836912   0.439   1.330   3.328 -0.2802  0.1449  0.2390
  183MOL   H14936913   0.298   0.995   3.392  1.1458  0.1129  0.7433
  183MOL   H15036914   0.081   1.135   3.564 -0.4988 -0.6523  1.2416
  183MOL   H15136915   0.043   0.999   3.473 -1.5030  0.8563  1.1241
  183MOL   C15236916   0.163   0.950   3.644 -0.0238  0.3817  0.1261
  183MOL   C15336917   0.041   0.887   3.703 -0.3143  0.2369  0.7091
  183MOL  Cl15436918   0.013   0.938   3.864  0.4678 -0.0423 -0.1197
  183MOL   C15536919   8.383   0.797   3.639  0.1879  0.2997 -0.0339
  183MOL   C15636920   8.247   0.749   3.694 -0.3517  0.3989  0.3554
  183MOL   H15736921   0.226   0.869   3.607  0.1123  0.2062  0.7312
  183MOL   H15836922   0.208   1.012   3.721  0.8815 -0.0279 -0.0640
  183MOL   H15936923   8.393   0.768   3.535 -1.9502  1.3711 -0.5848
  183MOL   H16036924   8.235   0.801   3.789  6.0980 -2.3748  2.9606
  183MOL   H16136925   8.273   0.645   3.716  0.3027  0.9637  2.4173
  183MOL   C16236926   8.143   0.754   3.583 -0.3679 -0.5394  0.6482
  183MOL   C16336927   8.012   0.705   3.631  0.7041 -0.4333  0.7944
  183MOL  Cl16436928   7.976   0.543   3.577 -0.6969  0.1483  0.1425
  183MOL   C16536929   7.940   0.785   3.713  0.6565 -0.4163 -0.2703
  183MOL   C16636930   7.799   0.757   3.767  0.2556 -0.0776 -0.0974
  183MOL   H16736931   8.138   0.857   3.548  1.9226 -0.6500 -0.1171
  183MOL   H16836932   8.176   0.686   3.505  0.5735  0.3736  0.2413
  183MOL   H16936933   7.981   0.878   3.750 -2.2809  0.3705  1.2080
  183MOL   H17036934   7.759   0.700   3.683  1.9357 -1.8391  0.2485
  183MOL   H17136935   7.811   0.688   3.851 -1.0805  0.3211  0.4299
  183MOL   C17236936   7.728   0.884   3.818  0.3611  0.4820 -0.2593
  183MOL   C17336937   7.705   0.998   3.719  0.3333  0.2405 -0.5004
  183MOL  Cl17436938   7.721   0.947   3.556  0.4577  0.6682 -0.3384
  183MOL   C17536939   7.681   1.124   3.759  0.4476  0.3554 -0.2386
  183MOL   C17636940   7.662   1.247   3.675  0.6210  0.5414 -0.2036
  183MOL   H17736941   7.781   0.920   3.906 -0.9755  1.1207  0.3125
  183MOL   H17836942   7.631   0.850   3.856 -0.6597  0.7512 -2.5289
  183MOL   H17936943   7.673   1.142   3.865  4.5313  0.6866  0.1157
  183MOL   H18036944   7.567   1.299   3.681  0.5133  0.4094 -0.7163
  183MOL   H18136945   7.666   1.213   3.571 -2.1210 -0.0461 -0.1589
  183MOL   C18236946   7.778   1.349   3.706 -0.1702 -0.6593  0.4320
  183MOL   C18336947   7.760   1.478   3.628  0.4081  0.3706 -0.3261
  183MOL  Cl18436948   7.894   1.505   3.528 -0.0294 -0.2462  0.1132
  183MOL   C18536949   7.658   1.564   3.652  0.3861  0.2325 -0.4781
  183MOL   C18636950   7.651   1.692   3.585 -0.1498 -0.3872 -0.3395
  183MOL   H18736951   7.779   1.368   3.813 -0.2685 -1.3547  0.5585
  183MOL   H18836952   7.874   1.306   3.676 -0.9238 -0.8861 -1.7320
  183MOL   H18936953   7.574   1.538   3.714 -0.8715  1.9261 -1.4291
  183MOL   H19036954   7.744   1.713   3.531 -0.4886  0.0528 -0.7601
  183MOL   H19136955   7.575   1.689   3.506  0.8732  0.8120 -1.3930
  183MOL   C19236956   7.611   1.810   3.681  0.0668 -0.5029 -0.7122
  183MOL   C19336957   7.692   1.813   3.809 -0.2859  1.0202 -0.2036
  183MOL  Cl19436958   7.575   1.813   3.937 -0.2179 -0.6259 -0.2481
  183MOL   C19536959   7.825   1.822   3.835 -0.4128  0.1726 -0.1307
  183MOL   C19636960   7.927   1.825   3.723 -0.3870 -0.1133  0.8067
  183MOL   H19736961   7.503   1.802   3.691  0.1466  1.0010  1.6698
  183MOL   H19836962   7.632   1.910   3.642  1.8329  0.3711  2.3249
  183MOL   H19936963   7.858   1.816   3.938 -2.3541  0.2944  0.5278
  183MOL   H20036964   7.882   1.817   3.624  0.4087 -3.2903  0.6736
  183MOL   H20136965   7.996   1.741   3.732  0.5377  0.3816 -1.3434
  183MOL   H20236966   7.973   1.925   3.725 -1.6676  0.5708 -2.1150
  184MOL     C136967   5.264   3.784   7.009 -0.1164 -0.1322  0.1423
  184MOL     C236968   5.280   3.924   7.078 -0.9359  0.6616  0.3674
  184MOL    Cl336969   5.217   4.045   6.979 -0.6576  0.0908 -0.2444
  184MOL     C436970   5.355   3.956   7.187 -0.3969 -1.0374 -0.4156
  184MOL     C536971   5.438   3.852   7.272  0.7420  0.3666  0.2381
  184MOL     H636972   5.242   3.786   6.902 -0.6654  0.4995  0.2668
  184MOL     H736973   5.203   3.718   7.070 -0.6441 -0.4194 -0.6927
  184MOL     H836974   5.363   4.059   7.216  0.4022 -0.8352 -1.3473
  184MOL     H936975   5.412   3.749   7.248 -0.0393  0.6906 -0.3262
  184MOL    H1036976   5.542   3.861   7.241  0.8089 -2.6179 -0.5732
  184MOL    H1136977   5.359   3.731   7.006  0.1861  0.4079  0.1702
  184MOL    C1236978   5.422   3.871   7.421 -0.2118 -0.2822 -0.0161
  184MOL    C1336979   5.523   3.788   7.494  0.1042 -0.2676  0.2907
  184MOL   Cl1436980   5.462   3.628   7.534 -0.0414 -0.0439 -0.4887
  184MOL    C1536981   5.649   3.827   7.529  0.2128  0.0083 -0.7637
  184MOL    C1636982   5.726   3.961   7.494  0.2416 -0.4142 -1.0218
  184MOL    H1736983   5.434   3.978   7.436 -2.1814  0.1723 -1.4868
  184MOL    H1836984   5.320   3.843   7.446  0.2884 -0.8165  1.5018
  184MOL    H1936985   5.704   3.754   7.587 -0.5696 -1.2430 -1.5753
  184MOL    H2036986   5.673   4.014   7.416 -3.1630 -1.4905  0.4925
  184MOL    H2136987   5.724   4.043   7.566  1.3082 -2.0248  0.9060
  184MOL    C2236988   5.876   3.924   7.476 -0.4738  0.0487  0.0752
  184MOL    C2336989   5.945   3.885   7.608 -1.3272 -0.9718 -0.2838
  184MOL   Cl2436990   5.984   3.720   7.622  0.0328 -0.0556 -0.2200
  184MOL    C2536991   5.971   3.977   7.705 -0.4022  0.5159  0.1223
  184MOL    C2636992   6.035   3.941   7.842 -0.7647 -0.8993 -0.1220
  184MOL    H2736993   5.886   3.851   7.395  1.1084  0.1403  0.1809
  184MOL    H2836994   5.931   4.009   7.437 -1.9830  1.6986  1.4847
  184MOL    H2936995   5.948   4.078   7.676  0.3416  1.3357  2.2710
  184MOL    H3036996   6.044   3.834   7.863  0.3655 -0.9570 -0.8727
  184MOL    H3136997   6.138   3.977   7.843 -0.4806 -1.6044 -1.7078
  184MOL    C3236998   5.963   4.025   7.950 -0.1576  0.3022 -0.4621
  184MOL    C3336999   6.037   4.055   8.076 -0.2010 -0.0153 -0.2731
  184MOL   Cl3437000   6.113   4.210   8.066 -0.2333  0.4859  0.3333
  184MOL    C3537001   6.033   3.987   8.190  0.4539 -0.2617  0.5649
  184MOL    C3637002   6.103   4.021   8.316 -0.4561 -0.5613 -0.3497
  184MOL    H3737003   5.921   4.117   7.910  1.2554  1.2156  0.1033
  184MOL    H3837004   5.870   3.973   7.973 -0.2021  0.7279  0.3493
  184MOL    H3937005   5.969   3.900   8.195  1.5354 -1.0685  0.5769
  184MOL    H4037006   6.207   4.010   8.284 -0.1432 -0.6728  0.6945
  184MOL    H4137007   6.108   4.126   8.346  1.4218 -1.2152  1.8337
  184MOL    C4237008   6.065   3.925   0.017 -0.2089  0.2681 -0.0168
  184MOL    C4337009   6.129   3.965   0.148  0.1627  0.3453 -0.0949
  184MOL   Cl4437010   6.039   4.075   0.243 -0.0866 -0.0149 -0.1458
  184MOL    C4537011   6.244   3.915   0.194 -0.0783  0.5138 -0.4065
  184MOL    C4637012   6.326   3.799   0.128  0.3781 -0.8653  0.2608
  184MOL    H4737013   5.957   3.913   0.032 -0.4105  3.0828  1.2692
  184MOL    H4837014   6.083   3.820   8.414 -0.4485 -0.0591  1.1811
  184MOL    H4937015   6.287   3.957   0.284 -0.8185 -0.3152  0.3459
  184MOL    H5037016   6.285   3.786   0.028  2.0697  2.1797 -0.9169
  184MOL    H5137017   6.428   3.835   0.110  0.2100 -0.4305  0.1591
  184MOL    C5237018   6.320   3.668   0.205 -0.2580 -0.0168  0.4408
  184MOL    C5337019   6.390   3.553   0.131 -0.2781  0.5530  0.1661
  184MOL   Cl5437020   6.554   3.592   0.092  0.0369  0.0546 -0.1465
  184MOL    C5537021   6.317   3.462   0.066  0.9285 -0.5619  0.8386
  184MOL    C5637022   6.370   3.356   8.399  0.1085  0.3765 -0.5355
  184MOL    H5737023   6.383   3.675   0.294 -1.0174 -0.1126  0.9928
  184MOL    H5837024   6.220   3.634   0.233  1.0075 -2.4498  2.2775
  184MOL    H5937025   6.210   3.469   0.071  0.8419  0.0010 -1.1101
  184MOL    H6037026   6.479   3.359   8.391  0.0744  1.3254 -0.7810
  184MOL    H6137027   6.344   3.259   0.019  1.3366 -0.3760 -1.4957
  184MOL    C6237028   6.309   3.354   8.259 -0.6405 -0.2494 -0.7924
  184MOL    C6337029   6.331   3.220   8.193 -0.0510  0.5652  0.7387
  184MOL   Cl6437030   6.185   3.132   8.202 -0.0493  0.0254 -0.1845
  184MOL    C6537031   6.430   3.181   8.115 -0.1850 -0.1523  0.2009
  184MOL    C6637032   6.441   3.052   8.030  0.4664  0.4069 -1.2362
  184MOL    H6737033   6.205   3.385   8.251 -1.5397 -2.9732  0.0699
  184MOL    H6837034   6.364   3.429   8.202 -2.0360  0.6400 -0.9959
  184MOL    H6937035   6.519   3.242   8.106 -0.3086 -0.2550 -1.9170
  184MOL    H7037036   6.473   3.083   7.931 -2.2597  0.0996 -2.2610
  184MOL    H7137037   6.345   2.999   8.026  0.3647  0.6272 -1.6975
  184MOL    C7237038   6.538   2.953   8.099 -0.2554 -0.2148 -0.5799
  184MOL    C7337039   6.528   2.814   8.033 -0.4336 -0.3621  0.7155
  184MOL   Cl7437040   6.693   2.763   8.032 -0.5078 -0.0188 -0.2903
  184MOL    C7537041   6.433   2.746   7.980 -0.2221  0.1204  0.2155
  184MOL    C7637042   6.445   2.609   7.920  0.6072 -0.4198 -0.4269
  184MOL    H7737043   6.513   2.954   8.205 -0.7243 -1.2292 -0.6717
  184MOL    H7837044   6.638   2.997   8.096 -0.6448  0.6655 -0.5921
  184MOL    H7937045   6.337   2.797   7.985  0.0521  0.5429  1.4354
  184MOL    H8037046   6.552   2.603   7.903  0.7141  0.5576 -0.1396
  184MOL    H8137047   6.411   2.611   7.817 -0.6161  0.1599 -0.0206
  184MOL    C8237048   6.373   2.499   8.000 -0.2372  0.7414  0.6637
  184MOL    C8337049   6.407   2.363   7.940 -0.4337  0.5657  0.3570
  184MOL   Cl8437050   6.291   2.327   7.821  0.2010 -0.0654 -0.3608
  184MOL    C8537051   6.489   2.274   7.990 -0.2426 -0.6496  0.2779
  184MOL    C8637052   6.502   2.130   7.944  0.0406  0.2293 -0.0055
  184MOL    H8737053   6.268   2.525   8.007 -0.6044 -0.5794  0.1625
  184MOL    H8837054   6.394   2.501   8.107 -1.5698  0.4701  0.9344
  184MOL    H8937055   6.548   2.291   8.078  1.2153 -1.3514 -0.5518
  184MOL    H9037056   6.438   2.077   8.015  2.4344  0.3266  2.2884
  184MOL    H9137057   6.455   2.108   7.849  1.3653  2.0246 -1.1043
  184MOL    C9237058   6.647   2.078   7.938 -0.4579  0.0439  0.2655
  184MOL    C9337059   6.645   1.927   7.928 -0.0560 -0.0527  0.1782
  184MOL   Cl9437060   6.639   1.864   7.766  0.1339 -0.0435  0.4393
  184MOL    C9537061   6.656   1.840   8.034 -0.4849  1.1348 -0.0060
  184MOL    C9637062   6.657   1.855   8.183  0.0834 -1.1338 -0.2462
  184MOL    H9737063   6.702   2.111   8.025  0.8345  0.1110 -0.5724
  184MOL    H9837064   6.704   2.108   7.850  1.4542 -1.7007  0.8819
  184MOL    H9937065   6.672   1.737   8.005  1.4383  2.0587 -2.4445
  184MOL   H10037066   6.750   1.814   8.221  2.0044  1.5932 -1.8124
  184MOL   H10137067   6.669   1.962   8.200 -1.8289 -0.7608 -1.1173
  184MOL   C10237068   6.525   1.815   8.240  0.1944 -0.1744  0.3065
  184MOL   C10337069   6.523   1.839   8.395  0.3062  0.2268  0.5697
  184MOL  Cl10437070   6.633   1.754   0.081 -0.0384  0.1928  0.0794
  184MOL   C10537071   6.429   1.915   0.025  0.0260  0.3385  0.1280
  184MOL   C10637072   6.404   1.929   0.172 -0.3083  0.6940  0.6876
  184MOL   H10737073   6.431   1.858   8.206 -0.5564 -0.6949  1.6721
  184MOL   H10837074   6.500   1.710   8.228  0.0336  0.0647 -1.5799
  184MOL   H10937075   6.363   1.969   8.379 -0.5404 -0.4002  0.0751
  184MOL   H11037076   6.307   1.973   0.195  0.2094  3.1399 -1.6200
  184MOL   H11137077   6.393   1.831   0.219 -1.6525  0.3017 -0.4268
  184MOL   C11237078   6.514   2.025   0.234 -0.9992 -0.1414  0.2902
  184MOL   C11337079   6.505   2.167   0.180 -0.8867 -0.3889  0.8061
  184MOL  Cl11437080   6.609   2.197   0.048 -0.3215  0.2366 -0.2475
  184MOL   C11537081   6.425   2.265   0.222  0.1775 -0.1337 -0.3600
  184MOL   C11637082   6.342   2.257   0.341  0.2730  0.2725 -0.1532
  184MOL   H11737083   6.496   2.030   0.342 -2.2682  0.3770  0.0580
  184MOL   H11837084   6.617   1.989   0.220 -1.1106 -0.4248  0.1872
  184MOL   H11937085   6.429   2.366   0.183 -2.2081 -0.0817 -0.5310
  184MOL   H12037086   6.318   2.151   0.339  0.8865  0.1500 -1.2153
  184MOL   H12137087   6.243   2.297   0.318 -1.4618 -4.1755 -0.9689
  184MOL   C12237088   6.409   2.308   0.473 -0.0767 -0.6116 -0.3397
  184MOL   C12337089   6.312   2.310   0.596 -0.6545 -0.8934 -1.2272
  184MOL  Cl12437090   6.359   2.196   0.717  0.4939  0.0508 -0.2423
  184MOL   C12537091   6.198   2.374   0.606 -0.1227  0.4033 -0.2473
  184MOL   C12637092   6.146   2.472   0.505 -0.2574  0.3179 -0.7561
  184MOL   H12737093   6.484   2.235   0.503  1.9739  1.1566 -1.0353
  184MOL   H12837094   6.456   2.406   0.477  2.7256 -1.9541  1.4423
  184MOL   H12937095   6.135   2.351   0.691  2.1994  0.2130  1.4551
  184MOL   H13037096   6.119   2.562   0.561  1.1488  0.7587 -0.7532
  184MOL   H13137097   6.222   2.508   0.436 -0.4346  0.5470 -0.8348
  184MOL   C13237098   6.016   2.431   0.437  0.1474 -0.6414  0.0235
  184MOL   C13337099   5.969   2.544   0.340  0.0504 -0.0910 -0.2846
  184MOL  Cl13437100   6.046   2.517   0.179  0.0284 -0.1364  0.0537
  184MOL   C13537101   5.894   2.647   0.371 -0.4995 -0.2213  0.6276
  184MOL   C13637102   5.833   2.661   0.508 -0.8399  0.2134  0.4333
  184MOL   H13737103   6.032   2.345   0.371  1.4833 -1.6722  1.6448
  184MOL   H13837104   5.939   2.398   0.507  1.2645 -1.7894  0.7219
  184MOL   H13937105   5.892   2.724   0.295 -0.3021 -1.5425 -0.7376
  184MOL   H14037106   5.730   2.682   0.480 -0.8121 -1.8201 -1.3440
  184MOL   H14137107   5.825   2.565   0.557 -1.1870 -0.2270 -0.4696
  184MOL   C14237108   5.890   2.769   0.594 -0.6984 -0.2033  0.0059
  184MOL   C14337109   5.834   2.767   0.736 -0.2979  0.1941 -0.0267
  184MOL  Cl14437110   5.936   2.698   0.855  0.0718 -0.2578  0.3682
  184MOL   C14537111   5.717   2.824   0.769 -0.4554  0.3252 -0.2245
  184MOL   C14637112   5.662   2.820   0.912  0.3300 -0.3316 -0.3301
  184MOL   H14737113   5.874   2.863   0.543 -1.8213 -0.8324 -0.8416
  184MOL   H14837114   5.998   2.751   0.597 -0.9127 -1.3727  2.7122
  184MOL   H14937115   5.657   2.868   0.691  2.2549 -1.9138 -3.7260
  184MOL   H15037116   5.556   2.797   0.904  0.6024 -1.3839 -0.9861
  184MOL   H15137117   5.700   2.736   0.969 -0.1189 -0.3267 -0.0176
  184MOL   C15237118   5.691   2.944   0.994 -0.0399 -0.1791  0.1836
  184MOL   C15337119   5.591   2.962   1.105  0.2840 -1.5647 -0.2202
  184MOL  Cl15437120   5.563   2.820   1.199 -0.0768  0.0234  0.0506
  184MOL   C15537121   5.525   3.078   1.117 -0.0112 -0.5427  0.5701
  184MOL   C15637122   5.422   3.114   1.219  0.0111 -0.1039 -0.2631
  184MOL   H15737123   5.787   2.945   1.046  0.8715  0.0031 -1.4572
  184MOL   H15837124   5.674   3.028   0.926 -0.8506  0.1735  0.8149
  184MOL   H15937125   5.546   3.155   1.044  0.8474  1.7249  3.1364
  184MOL   H16037126   5.407   3.027   1.282 -0.7557  1.0255  1.1333
  184MOL   H16137127   5.328   3.136   1.167  0.9189 -1.1605 -2.4187
  184MOL   C16237128   5.458   3.221   1.322 -0.3338  0.0150 -0.1496
  184MOL   C16337129   5.357   3.231   1.434  0.6214  0.4665 -0.3520
  184MOL  Cl16437130   5.238   3.356   1.405  0.4350 -0.2298 -0.2417
  184MOL   C16537131   5.354   3.149   1.542 -0.2882 -0.5403 -0.5087
  184MOL   C16637132   5.245   3.147   1.651  0.7265  0.3358 -0.6640
  184MOL   H16737133   5.552   3.196   1.371 -0.0246 -1.5715 -1.4932
  184MOL   H16837134   5.469   3.320   1.278 -2.1019 -0.0995 -0.8815
  184MOL   H16937135   5.435   3.079   1.555  1.2767  1.3841  0.4610
  184MOL   H17037136   5.156   3.201   1.619  1.1530  0.4774 -1.6228
  184MOL   H17137137   5.223   3.041   1.652  1.1946  0.1842 -3.1227
  184MOL   C17237138   5.296   3.192   1.789 -0.3775 -0.1256  0.2934
  184MOL   C17337139   5.194   3.188   1.900  0.1643  0.4359  0.8834
  184MOL  Cl17437140   5.261   3.286   2.024  0.3430  0.2603  0.1909
  184MOL   C17537141   5.068   3.136   1.908 -0.5216  0.3499 -0.1071
  184MOL   C17637142   4.980   3.148   2.022  0.7064 -0.0545  0.1432
  184MOL   H17737143   5.343   3.291   1.782  0.1905 -0.4820 -0.9999
  184MOL   H17837144   5.377   3.127   1.822  1.6294  0.5170 -3.1079
  184MOL   H17937145   5.023   3.071   1.834 -0.6931 -0.9563  1.1220
  184MOL   H18037146   4.994   3.247   2.065 -0.5985 -0.3093  1.1881
  184MOL   H18137147   5.023   3.081   2.097 -0.3488 -3.0743 -1.8425
  184MOL   C18237148   4.839   3.096   1.995  0.2379  0.1638 -0.1070
  184MOL   C18337149   4.762   3.061   2.122 -0.5797 -0.1625 -0.8789
  184MOL  Cl18437150   4.757   3.191   2.241  0.0234 -0.2227 -0.1609
  184MOL   C18537151   4.685   2.950   2.145  0.2634 -0.1406  0.8473
  184MOL   C18637152   4.603   2.921   2.273 -1.3145 -0.6637 -0.1922
  184MOL   H18737153   4.762   3.159   1.949  0.0254 -1.2370 -1.7237
  184MOL   H18837154   4.841   3.005   1.936  1.4240  1.9928 -3.0357
  184MOL   H18937155   4.689   2.876   2.068 -0.0116  0.5437  0.1688
  184MOL   H19037156   4.581   3.013   2.327 -0.5124 -0.6622  0.1321
  184MOL   H19137157   4.504   2.888   2.241 -2.1799  1.8586 -0.2354
  184MOL   C19237158   4.660   2.815   2.362  0.1650  0.3206  0.4191
  184MOL   C19337159   4.577   2.774   2.484  0.5844  0.3421 -0.4230
  184MOL  Cl19437160   4.477   2.901   2.537 -0.1108 -0.0177 -0.3345
  184MOL   C19537161   4.571   2.654   2.545  0.6478  0.1173 -0.0272
  184MOL   C19637162   4.642   2.531   2.500 -0.1857  0.3651  0.4367
  184MOL   H19737163   4.747   2.861   2.409 -1.2739  1.2635  2.2533
  184MOL   H19837164   4.711   2.736   2.309  0.3515  0.9105 -0.2864
  184MOL   H19937165   4.506   2.647   2.631 -0.0570 -2.0088 -0.6885
  184MOL   H20037166   4.695   2.548   2.406 -0.7400  0.8354  0.2041
  184MOL   H20137167   4.572   2.449   2.480 -1.0981  0.6686  2.2634
  184MOL   H20237168   4.707   2.506   2.583  1.4928  0.6881 -0.7497
  185MOL     C137169   5.176   2.246   3.392  0.4941 -0.1050  0.0983
  185MOL     C237170   5.042   2.323   3.386  0.0086  0.9181  0.6469
  185MOL    Cl337171   4.979   2.301   3.224  0.0855  0.1392  0.2505
  185MOL     C437172   4.983   2.399   3.477  0.3180  0.5125 -0.6842
  185MOL     C537173   5.034   2.425   3.623  0.2965 -0.3528 -0.2324
  185MOL     H637174   5.160   2.165   3.321 -1.5762 -1.0502  1.6103
  185MOL     H737175   5.202   2.204   3.489 -0.3458  1.9096  1.2102
  185MOL     H837176   4.891   2.450   3.451 -0.8498 -1.1164  0.1738
  185MOL     H937177   5.125   2.367   3.636 -0.5236 -0.9627  3.2597
  185MOL    H1037178   5.064   2.530   3.625 -0.7097 -0.0460 -0.8599
  185MOL    H1137179   5.257   2.308   3.352  0.7060  0.7855  1.8851
  185MOL    C1237180   4.927   2.382   3.726 -0.4967 -0.8515 -0.0771
  185MOL    C1337181   4.987   2.350   3.863 -0.1434  0.1512 -0.2256
  185MOL   Cl1437182   4.953   2.477   3.983  0.2785  0.0433 -0.4446
  185MOL    C1537183   5.060   2.236   3.896 -0.1714 -0.6285 -0.0959
  185MOL    C1637184   5.090   2.117   3.807 -0.6633 -0.1586  0.4410
  185MOL    H1737185   4.844   2.451   3.735  0.1220 -0.1988  0.7336
  185MOL    H1837186   4.882   2.290   3.690 -1.3823  0.0631 -1.3383
  185MOL    H1937187   5.083   2.233   4.001  0.2654 -2.4394 -0.2317
  185MOL    H2037188   5.140   2.147   3.715  0.5910 -1.7959  0.5546
  185MOL    H2137189   5.153   2.054   3.870 -0.0442  1.9024  1.9079
  185MOL    C2237190   4.970   2.028   3.786 -0.3821  0.1960 -0.1408
  185MOL    C2337191   5.005   1.917   3.683 -0.0466 -0.1004 -0.6207
  185MOL   Cl2437192   5.081   1.784   3.764  0.0238 -0.4037  0.0266
  185MOL    C2537193   4.975   1.932   3.551 -0.2420  0.2067 -0.2829
  185MOL    C2637194   5.005   1.834   3.438 -0.2281 -0.1083  0.0868
  185MOL    H2737195   4.935   1.978   3.876 -1.5828 -2.3726 -1.9652
  185MOL    H2837196   4.883   2.087   3.756 -0.8339  0.6472  1.9860
  185MOL    H2937197   4.923   2.021   3.520  0.7228  0.9269  0.1415
  185MOL    H3037198   5.065   1.879   3.359 -1.3977 -0.0353 -0.7677
  185MOL    H3137199   5.061   1.748   3.475  0.6963  0.5844  0.3466
  185MOL    C3237200   4.880   1.765   3.381 -0.9404 -0.6695 -0.0191
  185MOL    C3337201   4.901   1.667   3.262  0.1816 -0.2892 -0.1088
  185MOL   Cl3437202   4.915   1.511   3.321  0.3394  0.1312  0.3892
  185MOL    C3537203   4.905   1.708   3.133  0.2859  0.4220 -0.0782
  185MOL    C3637204   4.910   1.612   3.017 -0.1744 -0.0158 -0.1626
  185MOL    H3737205   4.819   1.716   3.457  0.1735 -0.3892  1.0751
  185MOL    H3837206   4.818   1.847   3.344 -1.2970 -1.0224 -0.2025
  185MOL    H3937207   4.897   1.809   3.098 -0.4138  0.4323  0.1008
  185MOL    H4037208   4.994   1.648   2.958 -0.4404  2.3513  0.8502
  185MOL    H4137209   4.934   1.506   3.031  1.0780  0.4485  1.3913
  185MOL    C4237210   4.791   1.622   2.920 -0.1922  0.4031 -0.3708
  185MOL    C4337211   4.783   1.515   2.810  0.2814 -0.4606 -0.1130
  185MOL   Cl4437212   4.821   1.580   2.651  0.2514 -0.0417 -0.0211
  185MOL    C4537213   4.769   1.381   2.825  0.3401  0.0700 -0.1404
  185MOL    C4637214   4.746   1.309   2.955  0.1860  0.5170  0.1366
  185MOL    H4737215   4.703   1.618   2.984  0.0750 -1.0003 -0.0946
  185MOL    H4837216   4.811   1.722   2.879 -1.8379  1.2249  0.7775
  185MOL    H4937217   4.760   1.326   2.733 -0.0723  0.4705 -0.3393
  185MOL    H5037218   4.768   1.376   3.037  0.4606 -1.2748  1.5735
  185MOL    H5137219   4.644   1.271   2.960  0.2321  0.0885 -1.5993
  185MOL    C5237220   4.837   1.176   2.956 -0.2660 -0.2162 -0.5709
  185MOL    C5337221   4.794   1.084   3.062 -0.2672  0.3675 -0.3235
  185MOL   Cl5437222   4.869   1.112   3.211  0.4348  0.4210  0.0496
  185MOL    C5537223   4.701   0.984   3.050 -0.1552  0.8009  0.0647
  185MOL    C5637224   4.643   0.893   3.150  0.2270  0.4898  0.2477
  185MOL    H5737225   4.820   1.125   2.861  0.0357 -0.9903 -0.2139
  185MOL    H5837226   4.940   1.208   2.971 -0.4365 -0.3901  1.0596
  185MOL    H5937227   4.652   0.974   2.955  1.5500 -0.9512 -0.6654
  185MOL    H6037228   4.672   0.790   3.129 -3.5342 -1.4170  3.6511
  185MOL    H6137229   4.680   0.919   3.249  4.2158  0.8089 -1.2361
  185MOL    C6237230   4.489   0.903   3.146 -0.0489 -0.2211 -1.1306
  185MOL    C6337231   4.425   0.793   3.227 -0.2003  0.1033  0.1965
  185MOL   Cl6437232   4.435   0.644   3.136 -0.3159  0.0237  0.1694
  185MOL    C6537233   4.377   0.791   3.354 -0.2202  0.2443  0.0392
  185MOL    C6637234   4.339   0.675   3.432  0.6301  0.0561  0.5947
  185MOL    H6737235   4.453   0.995   3.192  0.5975 -0.0710 -0.9182
  185MOL    H6837236   4.455   0.896   3.043 -0.0090  0.0147 -1.1600
  185MOL    H6937237   4.361   0.887   3.402  2.8868  0.5266  0.5738
  185MOL    H7037238   4.340   0.695   3.539  0.6847  0.3677  0.5367
  185MOL    H7137239   4.418   0.601   3.423  1.6029  1.0440  0.9610
  185MOL    C7237240   4.195   0.630   3.391 -0.1711 -0.2936 -0.0928
  185MOL    C7337241   4.170   0.500   3.469  0.0968  0.3402 -0.2443
  185MOL   Cl7437242   4.063   0.521   3.608  0.0631  0.2584  0.0144
  185MOL    C7537243   4.215   0.379   3.431 -0.4176 -0.0887  0.3104
  185MOL    C7637244   4.184   0.251   3.502 -0.5286 -0.0367 -0.0696
  185MOL    H7737245   4.177   0.613   3.285 -1.5121  0.2617  0.0297
  185MOL    H7837246   4.114   0.698   3.416  0.5581  0.8887 -0.9111
  185MOL    H7937247   4.279   0.371   3.343 -1.8020  1.0706 -0.8301
  185MOL    H8037248   4.159   0.171   3.431 -2.1713  0.8837 -0.5737
  185MOL    H8137249   4.107   0.273   3.576 -1.3739  1.8673 -1.4569
  185MOL    C8237250   4.317   0.198   3.575  0.3732 -0.5421  0.4194
  185MOL    C8337251   4.299   0.066   3.639  0.3577 -0.0651  0.2276
  185MOL   Cl8437252   4.430   8.382   3.581  0.1008 -0.0084 -0.2219
  185MOL    C8537253   4.192   0.020   3.707  0.0210 -0.1865 -0.0523
  185MOL    C8637254   4.166   8.301   3.755  0.5872  0.2113  0.1363
  185MOL    H8737255   4.337   0.275   3.650  0.2204  2.0518 -2.1210
  185MOL    H8837256   4.403   0.208   3.510  1.5187  1.6282  2.1754
  185MOL    H8937257   4.107   0.083   3.733  0.5080  0.2483  0.5036
  185MOL    H9037258   4.259   8.246   3.739  0.4401  0.1273 -0.4352
  185MOL    H9137259   4.140   8.301   3.861 -1.6463  0.6375 -0.3798
  185MOL    C9237260   4.044   8.227   3.683 -0.8301  0.1086  0.0766
  185MOL    C9337261   4.003   8.092   3.735  0.5447  0.0782  0.4297
  185MOL   Cl9437262   3.898   8.123   3.867 -0.2535  0.2677 -0.1736
  185MOL    C9537263   4.025   7.963   3.696 -0.8119  0.7117  0.2833
  185MOL    C9637264   4.105   7.911   3.584 -0.1228 -0.0061  0.3123
  185MOL    H9737265   4.081   8.213   3.581 -0.9706 -1.6778  0.2527
  185MOL    H9837266   3.954   8.290   3.683 -1.0704 -0.2169 -1.0117
  185MOL    H9937267   3.974   7.890   3.756 -1.1949 -0.5276 -1.5144
  185MOL   H10037268   4.187   7.982   3.585 -0.3805  0.2999  2.7080
  185MOL   H10137269   4.135   7.808   3.606  0.0955 -0.1931 -0.8350
  185MOL   C10237270   4.020   7.914   3.456 -0.3515 -0.1993 -0.2357
  185MOL   C10337271   4.094   7.841   3.350  0.5541 -0.1331 -0.4216
  185MOL  Cl10437272   4.187   7.943   3.250 -0.4435 -0.1210  0.1045
  185MOL   C10537273   4.092   7.708   3.348 -0.6765 -0.4776  0.6031
  185MOL   C10637274   4.164   7.622   3.242 -0.2717 -0.1827 -0.8309
  185MOL   H10737275   3.919   7.881   3.479 -1.1124  1.7057 -0.7502
  185MOL   H10837276   4.023   8.016   3.416  1.9954 -0.5776 -1.1226
  185MOL   H10937277   4.028   7.667   3.424 -0.6048 -1.0026  0.3865
  185MOL   H11037278   4.211   7.688   3.169  1.3889 -0.6042 -0.1792
  185MOL   H11137279   4.250   7.576   3.291 -2.5095 -3.3598  0.2550
  185MOL   C11237280   4.072   7.517   3.173 -0.5112 -0.2624  0.0366
  185MOL   C11337281   4.147   7.452   3.057  0.2516 -0.0610  0.1619
  185MOL  Cl11437282   4.179   7.286   3.091 -0.0165  0.0866 -0.2853
  185MOL   C11537283   4.177   7.499   2.934  0.2386  0.2339 -0.0773
  185MOL   C11637284   4.142   7.637   2.886 -0.4118 -0.7977  0.3590
  185MOL   H11737285   4.045   7.446   3.251  0.0442  0.3455  0.7987
  185MOL   H11837286   3.984   7.570   3.136 -0.9451  1.5788  3.4912
  185MOL   H11937287   4.226   7.437   2.861  3.0214 -0.7536  2.4970
  185MOL   H12037288   4.238   7.687   2.873  0.0168 -1.9236 -0.9395
  185MOL   H12137289   4.083   7.699   2.954 -0.1027  0.5904 -0.6299
  185MOL   C12237290   4.074   7.626   2.750  0.0860 -0.4295 -0.3730
  185MOL   C12337291   4.008   7.747   2.689 -0.4534  0.5438 -0.6975
  185MOL  Cl12437292   4.058   7.886   2.775 -0.0876  0.2586  0.0540
  185MOL   C12537293   3.925   7.756   2.586 -0.0615 -0.1047 -0.1967
  185MOL   C12637294   3.874   7.646   2.499 -0.2008 -0.0095 -0.8832
  185MOL   H12737295   4.144   7.590   2.675  0.5256 -3.0843  1.2483
  185MOL   H12837296   3.999   7.551   2.775 -0.3330  0.5216  1.3248
  185MOL   H12937297   3.885   7.851   2.556 -3.3379 -1.1907  0.5005
  185MOL   H13037298   3.900   7.551   2.545  2.1192  0.8386 -0.3617
  185MOL   H13137299   3.767   7.658   2.487 -0.2720  1.6967  1.0837
  185MOL   C13237300   3.930   7.638   2.358 -0.0666  0.0241  0.1192
  185MOL   C13337301   3.876   7.527   2.268 -0.2516  0.2764  0.2341
  185MOL  Cl13437302   3.984   7.397   2.246 -0.0208 -0.0297  0.2322
  185MOL   C13537303   3.761   7.537   2.203 -0.6557 -0.5678 -0.0713
  185MOL   C13637304   3.660   7.659   2.193  0.3849 -0.2726  0.0304
  185MOL   H13737305   3.940   7.737   2.315 -0.1692 -0.6870 -1.6038
  185MOL   H13837306   4.035   7.612   2.373  0.0860  1.6282  1.9860
  185MOL   H13937307   3.733   7.452   2.142 -0.8817  0.3098 -1.2056
  185MOL   H14037308   3.705   7.742   2.246 -0.2047  0.4862 -0.6529
  185MOL   H14137309   3.655   7.683   2.087  0.0734 -0.3750  0.0186
  185MOL   C14237310   3.515   7.639   2.243  0.4677 -0.5258 -0.1032
  185MOL   C14337311   3.512   7.616   2.401  0.1742  0.3049 -0.2558
  185MOL  Cl14437312   3.476   7.771   2.475 -0.0252 -0.0364 -0.2134
  185MOL   C14537313   3.518   7.498   2.465  0.3938  0.2657  0.5567
  185MOL   C14637314   3.508   7.478   2.615 -0.4450 -0.5043  0.1589
  185MOL   H14737315   3.468   7.556   2.192  0.0931 -1.5384  1.8190
  185MOL   H14837316   3.456   7.729   2.226  1.8465  0.5255  0.5076
  185MOL   H14937317   3.526   7.409   2.404  1.4136  0.1794  0.7994
  185MOL   H15037318   3.508   7.575   2.665 -0.1712 -0.4962  0.1430
  185MOL   H15137319   3.412   7.429   2.630 -0.8195 -0.3156 -1.5942
  185MOL   C15237320   3.627   7.389   2.665 -0.1506 -0.0744 -0.2575
  185MOL   C15337321   3.630   7.348   2.812  0.3298  1.1529  0.6176
  185MOL  Cl15437322   3.513   7.221   2.828  0.0613  0.2377 -0.4899
  185MOL   C15537323   3.687   7.415   2.912  0.0911 -0.2543 -0.1285
  185MOL   C15637324   3.681   7.368   3.059  0.0688 -0.3220  0.7864
  185MOL   H15737325   3.637   7.306   2.594 -0.5214  0.1592 -0.5877
  185MOL   H15837326   3.720   7.444   2.653  2.0454 -3.4879  0.5523
  185MOL   H15937327   3.747   7.502   2.889 -0.2077  0.3262  1.2452
  185MOL   H16037328   3.783   7.342   3.090  0.7176 -0.4048 -1.3068
  185MOL   H16137329   3.629   7.273   3.072  1.7395 -1.5243 -0.8284
  185MOL   C16237330   3.621   7.486   3.131 -0.0742  0.3722  0.3610
  185MOL   C16337331   3.625   7.475   3.283  1.0112  0.3434  0.0914
  185MOL  Cl16437332   3.461   7.458   3.340 -0.0217  0.1130 -0.0574
  185MOL   C16537333   3.737   7.504   3.351  0.8212  0.1193 -0.0667
  185MOL   C16637334   3.741   7.516   3.504  0.3663 -0.0376  0.5287
  185MOL   H16737335   3.673   7.575   3.095 -1.0687  0.0771 -1.8497
  185MOL   H16837336   3.518   7.507   3.102  0.0218  0.8663  0.3766
  185MOL   H16937337   3.832   7.528   3.304  0.9643  0.7616  0.5394
  185MOL   H17037338   3.751   7.620   3.535  0.6256  0.1534 -0.1693
  185MOL   H17137339   3.647   7.482   3.547  0.0158 -0.5784 -0.6436
  185MOL   C17237340   3.855   7.429   3.555  0.1090  0.8498  0.3225
  185MOL   C17337341   3.906   7.470   3.693 -0.0713 -0.1923 -0.6127
  185MOL  Cl17437342   4.084   7.477   3.709  0.4106  0.3179  0.1220
  185MOL   C17537343   3.835   7.493   3.804  1.0592 -0.1221  0.1548
  185MOL   C17637344   3.894   7.532   3.940 -0.5200 -0.1912  0.2112
  185MOL   H17737345   3.933   7.441   3.480 -0.0400 -0.6460 -0.0845
  185MOL   H17837346   3.834   7.322   3.550  1.1314  0.7431 -2.2271
  185MOL   H17937347   3.727   7.495   3.797  1.0139 -0.3400  0.8019
  185MOL   H18037348   3.997   7.567   3.938 -0.9955  1.2473  0.3821
  185MOL   H18137349   3.879   7.446   4.005 -0.6151  0.6273  1.2815
  185MOL   C18237350   3.834   7.666   3.992 -0.8654 -0.4854  0.0843
  185MOL   C18337351   3.861   7.684   4.136 -0.0225 -0.0222 -0.5345
  185MOL  Cl18437352   3.731   7.603   4.232 -0.0057 -0.3790 -0.0296
  185MOL   C18537353   3.952   7.769   4.198 -0.1266  0.2616 -0.0192
  185MOL   C18637354   3.963   7.794   4.349 -0.3498 -0.6123  0.2116
  185MOL   H18737355   3.893   7.749   3.952 -0.5890 -0.6558  0.1373
  185MOL   H18837356   3.731   7.678   3.960 -1.2722 -2.4775  0.5797
  185MOL   H18937357   4.014   7.828   4.132 -0.7048 -0.3549 -1.1343
  185MOL   H19037358   3.896   7.876   4.375  1.9972  1.1577  0.8262
  185MOL   H19137359   3.931   7.701   4.397  0.2597 -1.1184 -0.3472
  185MOL   C19237360   4.114   7.822   4.399  0.0667  0.4178  0.1505
  185MOL   C19337361   4.129   7.861   4.544 -0.9976 -0.4883  0.6562
  185MOL  Cl19437362   3.985   7.909   4.621 -0.0459 -0.3965  0.1682
  185MOL   C19537363   4.246   7.849   4.613 -0.2585 -0.0357  0.5125
  185MOL   C19637364   4.378   7.825   4.549 -0.2078  0.9900 -0.2446
  185MOL   H19737365   4.157   7.909   4.350  1.0001 -0.5271 -0.7119
  185MOL   H19837366   4.189   7.745   4.381 -0.5703 -0.2835  0.4731
  185MOL   H19937367   4.238   7.869   4.719 -2.4575  1.5147  0.0818
  185MOL   H20037368   4.421   7.735   4.592  0.2354  0.9233 -0.8284
  185MOL   H20137369   4.443   7.912   4.556  2.2130 -0.8185  0.2883
  185MOL   H20237370   4.373   7.811   4.441  1.4053 -0.7120 -0.1189
  186MOL     C137371   6.520   3.919   0.949  0.4607  0.0244  0.4327
  186MOL     C237372   6.609   3.844   0.851 -0.1774 -0.2324 -0.2607
  186MOL    Cl337373   6.770   3.842   0.897 -0.0700 -0.3412  0.1095
  186MOL     C437374   6.573   3.792   0.736  0.1666 -0.5629  0.4258
  186MOL     C537375   6.444   3.796   0.668  0.2381  0.1955  0.8055
  186MOL     H637376   6.573   3.954   1.037 -0.0676  1.1067  0.3332
  186MOL     H737377   6.436   3.866   0.994  0.0563  1.0912  0.9543
  186MOL     H837378   6.643   3.742   0.671  1.2581 -0.6611  1.6704
  186MOL     H937379   6.380   3.874   0.709  1.0941  1.0338  0.5425
  186MOL    H1037380   6.462   3.830   0.566 -1.7520  1.0127  0.7040
  186MOL    H1137381   6.478   4.011   0.908  0.0748 -0.4614 -0.2781
  186MOL    C1237382   6.379   3.655   0.671 -0.0645 -0.2225 -0.5350
  186MOL    C1337383   6.226   3.658   0.647  0.4421  0.0474 -0.6382
  186MOL   Cl1437384   6.194   3.739   0.496 -0.0978 -0.2629  0.0933
  186MOL    C1537385   6.130   3.610   0.723  0.5176 -0.4581 -0.0769
  186MOL    C1637386   6.143   3.521   0.848 -0.4496  0.5589 -0.0779
  186MOL    H1737387   6.426   3.589   0.598  0.0375 -0.8281  0.0771
  186MOL    H1837388   6.389   3.612   0.770  3.2805 -1.2045 -1.2217
  186MOL    H1937389   6.031   3.631   0.685  0.8044  2.1266  0.4602
  186MOL    H2037390   6.246   3.495   0.870 -0.9323 -0.7481  0.6879
  186MOL    H2137391   6.101   3.563   0.940 -0.8889 -2.6045  1.2116
  186MOL    C2237392   6.077   3.381   0.832 -0.1206  0.7977 -0.1546
  186MOL    C2337393   6.091   3.285   0.950 -0.2764  0.0593 -0.0743
  186MOL   Cl2437394   6.147   3.132   0.887  0.1065  0.0912  0.2408
  186MOL    C2537395   6.084   3.313   1.085 -0.9741 -0.1900  0.6731
  186MOL    C2637396   6.107   3.221   1.202  0.1387  0.4812  0.5139
  186MOL    H2737397   5.975   3.410   0.807 -0.1849 -0.5081 -1.4617
  186MOL    H2837398   6.115   3.330   0.744 -2.0698 -0.2386 -0.4235
  186MOL    H2937399   6.052   3.412   1.114 -0.9821  1.2508 -3.9090
  186MOL    H3037400   6.157   3.132   1.166 -0.0828 -0.5522  2.6579
  186MOL    H3137401   6.181   3.271   1.266 -0.3595 -0.9077  2.2203
  186MOL    C3237402   5.971   3.182   1.278 -0.6909 -0.1744  0.4633
  186MOL    C3337403   5.900   3.310   1.324 -0.3428 -0.4140 -0.9251
  186MOL   Cl3437404   5.759   3.343   1.222 -0.1681  0.2079  0.0635
  186MOL    C3537405   5.923   3.376   1.442 -0.0896  0.2587 -0.0882
  186MOL    C3637406   5.842   3.493   1.497  0.0304 -0.3036 -0.2849
  186MOL    H3737407   5.912   3.122   1.209 -0.1224 -1.4130  1.0397
  186MOL    H3837408   6.000   3.121   1.364  1.3759 -0.4009 -0.3791
  186MOL    H3937409   6.003   3.342   1.506  0.3207  0.9462 -0.2358
  186MOL    H4037410   5.901   3.584   1.486  0.4731 -0.4931  0.4780
  186MOL    H4137411   5.755   3.523   1.439 -0.5889  0.8726  1.2311
  186MOL    C4237412   5.802   3.473   1.646 -0.0726  0.0302 -0.8341
  186MOL    C4337413   5.682   3.376   1.659 -0.4118  0.0429  0.1322
  186MOL   Cl4437414   5.524   3.451   1.653  0.0392  0.1177 -0.1674
  186MOL    C4537415   5.690   3.246   1.694  0.2623 -0.4641 -0.7044
  186MOL    C4637416   5.808   3.155   1.715  0.5850 -0.3319  0.0169
  186MOL    H4737417   5.884   3.444   1.711 -1.4006 -2.3377 -0.1225
  186MOL    H4837418   5.762   3.566   1.685 -0.2044  0.2411 -1.4703
  186MOL    H4937419   5.595   3.197   1.711 -0.4873  1.3444  0.4884
  186MOL    H5037420   5.813   3.091   1.627  1.8422  0.3716 -0.4346
  186MOL    H5137421   5.900   3.212   1.706  1.3503 -1.7425 -1.4024
  186MOL    C5237422   5.805   3.075   1.850  0.1137 -0.5224  0.1148
  186MOL    C5337423   5.925   2.982   1.853 -0.1805  0.3040  0.2542
  186MOL   Cl5437424   6.079   3.065   1.857  0.3905 -0.2526  0.3962
  186MOL    C5537425   5.921   2.848   1.844  0.8842 -0.0036 -0.8827
  186MOL    C5637426   6.037   2.759   1.835 -0.4184 -0.3419 -0.1992
  186MOL    H5737427   5.817   3.138   1.938 -1.9088 -0.3309  0.2778
  186MOL    H5837428   5.713   3.017   1.861 -0.8066  0.7900 -0.4724
  186MOL    H5937429   5.829   2.792   1.831  0.5829  0.7378 -1.9487
  186MOL    H6037430   6.127   2.811   1.802  0.2551  0.5562  2.8708
  186MOL    H6137431   6.060   2.731   1.938  0.5520 -1.8129 -0.8000
  186MOL    C6237432   6.020   2.634   1.755 -0.3884  0.1129  0.3831
  186MOL    C6337433   6.142   2.550   1.750 -0.5358  0.0964  0.3322
  186MOL   Cl6437434   6.163   2.459   1.896  0.0595  0.2911 -0.1736
  186MOL    C6537435   6.226   2.546   1.645  0.2406  0.4273 -0.1377
  186MOL    C6637436   6.354   2.465   1.636 -0.1990 -0.5915 -0.1066
  186MOL    H6737437   5.942   2.570   1.797 -0.0678  1.4750  3.1505
  186MOL    H6837438   5.999   2.671   1.654 -2.4510  0.0233  0.7560
  186MOL    H6937439   6.202   2.611   1.563  0.0289  1.5410  0.7889
  186MOL    H7037440   6.322   2.372   1.589 -0.8396 -1.5751  2.2109
  186MOL    H7137441   6.392   2.435   1.733  0.7422 -0.4520 -0.4304
  186MOL    C7237442   6.470   2.522   1.554 -0.0752  0.1144 -1.1797
  186MOL    C7337443   6.592   2.435   1.553  0.0580 -0.2587  0.3285
  186MOL   Cl7437444   6.613   2.367   1.390  0.2099 -0.1103  0.2031
  186MOL    C7537445   6.676   2.406   1.655 -0.1048 -0.0938  0.4645
  186MOL    C7637446   6.801   2.321   1.650 -0.3097  0.9879 -0.3983
  186MOL    H7737447   6.503   2.615   1.601 -2.3179 -0.8581  2.5033
  186MOL    H7837448   6.449   2.550   1.451 -2.9942 -0.8144 -0.8663
  186MOL    H7937449   6.663   2.446   1.755 -1.6625  0.0099  0.2356
  186MOL    H8037450   6.883   2.393   1.648 -0.5710  1.3974  2.1619
  186MOL    H8137451   6.812   2.265   1.557  1.1636  0.6633 -0.0361
  186MOL    C8237452   6.806   2.217   1.758  0.0301 -0.8876 -0.4308
  186MOL    C8337453   6.714   2.096   1.742  0.2836 -0.3014 -0.2957
  186MOL   Cl8437454   6.753   1.970   1.855  0.3414 -0.5658 -0.1558
  186MOL    C8537455   6.610   2.083   1.652  0.6506 -0.4196 -0.9648
  186MOL    C8637456   6.522   1.966   1.644 -0.3327  0.6169 -0.4235
  186MOL    H8737457   6.791   2.261   1.857  1.9455 -1.4241  0.1189
  186MOL    H8837458   6.911   2.188   1.766  0.8745  2.3151  0.5863
  186MOL    H8937459   6.590   2.171   1.592  2.5263  1.0871  0.5346
  186MOL    H9037460   6.587   1.889   1.601 -0.5957  0.2331 -0.1283
  186MOL    H9137461   6.500   1.926   1.742 -0.0157  0.1874 -0.5256
  186MOL    C9237462   6.403   1.984   1.556  0.0934  0.1077  0.1594
  186MOL    C9337463   6.312   1.857   1.549 -0.8921 -0.1254  0.5238
  186MOL   Cl9437464   6.314   1.794   1.385 -0.0667 -0.3588 -0.0944
  186MOL    C9537465   6.234   1.805   1.642 -0.3460 -0.1038  0.1693
  186MOL    C9637466   6.205   1.872   1.776 -0.5837  0.3413 -0.3728
  186MOL    H9737467   6.444   2.009   1.458  2.3266  1.9401  1.4914
  186MOL    H9837468   6.347   2.069   1.595  0.2758  1.1904 -1.8528
  186MOL    H9937469   6.180   1.713   1.628  0.5159 -0.6508  0.4173
  186MOL   H10037470   6.233   1.977   1.776 -1.6384  0.6370 -1.4541
  186MOL   H10137471   6.098   1.887   1.787 -0.3946  0.9501  0.6831
  186MOL   C10237472   6.265   1.793   1.898 -0.7503  0.2089  0.2003
  186MOL   C10337473   6.226   1.853   2.031 -0.1656  0.0636  0.2583
  186MOL  Cl10437474   6.360   1.883   2.136 -0.0043 -0.4858 -0.0678
  186MOL   C10537475   6.098   1.864   2.070  0.2796  0.4077  0.3620
  186MOL   C10637476   6.058   1.922   2.204  0.4223  0.3436  0.1169
  186MOL   H10737477   6.230   1.690   1.900  1.6441 -0.6127  1.4018
  186MOL   H10837478   6.373   1.796   1.905 -0.7874 -0.6820  1.1921
  186MOL   H10937479   6.019   1.826   2.007  0.8139  1.4475 -0.9644
  186MOL   H11037480   6.146   1.940   2.265  0.5231 -1.6891  0.5850
  186MOL   H11137481   6.001   2.013   2.186 -1.2974 -0.4021  1.5666
  186MOL   C11237482   5.981   1.808   2.272 -0.5575 -0.0198 -0.2445
  186MOL   C11337483   5.948   1.845   2.417 -0.9414  0.1137  0.2635
  186MOL  Cl11437484   5.812   1.952   2.423  0.4501  0.2077  0.4553
  186MOL   C11537485   6.024   1.813   2.520  0.2063 -0.0724 -0.4085
  186MOL   C11637486   6.141   1.718   2.521 -0.6429 -0.5589  0.1212
  186MOL   H11737487   5.887   1.785   2.223 -0.7884 -0.4472  0.3824
  186MOL   H11837488   6.029   1.710   2.263 -0.3048  0.0424  0.3673
  186MOL   H11937489   5.998   1.856   2.615 -0.5597  0.4518 -0.8503
  186MOL   H12037490   6.123   1.650   2.437  0.0307  0.5374 -0.9223
  186MOL   H12137491   6.127   1.655   2.609  0.3450  0.7648  1.2470
  186MOL   C12237492   6.290   1.768   2.519  0.6981 -0.4368 -0.2920
  186MOL   C12337493   6.331   1.832   2.658  0.3539  0.7259  0.9311
  186MOL  Cl12437494   6.233   1.965   2.710 -0.2172 -0.0737 -0.2590
  186MOL   C12537495   6.433   1.799   2.738  0.1671 -0.7317  0.4272
  186MOL   C12637496   6.538   1.696   2.712  0.0144 -0.0448  0.5363
  186MOL   H12737497   6.355   1.682   2.507 -0.3924 -1.0084 -2.3220
  186MOL   H12837498   6.312   1.839   2.439 -0.3473  0.2634  0.0215
  186MOL   H12937499   6.443   1.857   2.829  2.7641  0.4981 -0.5833
  186MOL   H13037500   6.545   1.676   2.605 -3.0653  0.9408  0.0812
  186MOL   H13137501   6.637   1.735   2.734  0.1101  0.3521 -0.5579
  186MOL   C13237502   6.513   1.561   2.791  0.3203  0.3047  0.1722
  186MOL   C13337503   6.621   1.462   2.773  0.6838 -0.5737  0.4020
  186MOL  Cl13437504   6.743   1.497   2.896  0.4696  0.4214 -0.0104
  186MOL   C13537505   6.635   1.360   2.678  0.2176 -0.4718  0.6558
  186MOL   C13637506   6.532   1.334   2.565 -0.4285  0.0734  0.0098
  186MOL   H13737507   6.498   1.583   2.896 -0.9121 -1.4189  0.3889
  186MOL   H13837508   6.421   1.514   2.757 -0.2111  0.2482  1.6442
  186MOL   H13937509   6.726   1.302   2.676  0.4828 -0.1668  2.6157
  186MOL   H14037510   6.500   1.231   2.579 -0.7779  0.2711  0.6558
  186MOL   H14137511   6.445   1.396   2.584 -2.1599 -3.0776  2.9009
  186MOL   C14237512   6.586   1.358   2.426 -0.1974  0.4782  0.8119
  186MOL   C14337513   6.480   1.336   2.311  0.3193  0.6666 -0.2515
  186MOL  Cl14437514   6.540   1.247   2.170  0.2095  0.0655  0.1757
  186MOL   C14537515   6.361   1.401   2.312  0.7208  0.7590  0.0590
  186MOL   C14637516   6.259   1.405   2.195 -0.4806  0.5307 -0.0722
  186MOL   H14737517   6.668   1.288   2.410 -0.6933  0.1150 -0.2485
  186MOL   H14837518   6.620   1.462   2.430  0.0623  0.3920  0.8474
  186MOL   H14937519   6.329   1.464   2.394  0.5204  2.0203 -0.9662
  186MOL   H15037520   6.262   1.492   2.129 -0.3367  0.5969  0.0239
  186MOL   H15137521   6.274   1.316   2.133 -0.0145  0.7709 -0.3038
  186MOL   C15237522   6.124   1.383   2.253 -0.4978  0.4683 -0.4906
  186MOL   C15337523   6.018   1.373   2.149  0.5804 -0.4250 -0.3108
  186MOL  Cl15437524   6.006   1.519   2.055 -0.0256  0.4018 -0.3684
  186MOL   C15537525   5.936   1.268   2.143 -0.7079  0.3082  0.2210
  186MOL   C15637526   5.812   1.245   2.055 -0.4814  0.2739  1.2650
  186MOL   H15737527   6.122   1.295   2.317 -1.4448 -0.4800 -1.7832
  186MOL   H15837528   6.098   1.460   2.325  0.8345  0.4237  0.0533
  186MOL   H15937529   5.962   1.195   2.219  0.6017  0.8937  0.3518
  186MOL   H16037530   5.810   1.142   2.021  2.3004  1.1507 -1.7998
  186MOL   H16137531   5.814   1.314   1.971 -2.2943 -0.6097  0.4723
  186MOL   C16237532   5.680   1.252   2.135  0.1237 -0.2667 -0.4519
  186MOL   C16337533   5.554   1.254   2.049  0.5100  0.1568 -0.6516
  186MOL  Cl16437534   5.516   1.109   1.965  0.0169  0.1470  0.1066
  186MOL   C16537535   5.481   1.365   2.030  0.0555  0.5190  0.6079
  186MOL   C16637536   5.359   1.378   1.943 -0.2084  0.4535  0.4136
  186MOL   H16737537   5.678   1.171   2.208 -2.3845 -0.7138 -0.9732
  186MOL   H16837538   5.684   1.342   2.197  0.4505  1.2934 -2.6963
  186MOL   H16937539   5.512   1.448   2.093 -0.3070 -1.3636  3.3733
  186MOL   H17037540   5.386   1.436   1.855  3.4145  1.3522  2.0294
  186MOL   H17137541   5.329   1.276   1.920  1.1211  0.0981  0.2178
  186MOL   C17237542   5.254   1.450   2.022  0.1567  0.7376  0.0070
  186MOL   C17337543   5.122   1.479   1.943 -0.1400 -0.2119 -0.2616
  186MOL  Cl17437544   5.142   1.470   1.766  0.2358  0.2021  0.0238
  186MOL   C17537545   5.007   1.518   2.000  0.5914 -0.6667  0.6000
  186MOL   C17637546   4.880   1.550   1.930 -0.9728  0.3340 -0.1612
  186MOL   H17737547   5.295   1.547   2.050  0.5593  0.6101 -0.1314
  186MOL   H17837548   5.228   1.386   2.107 -0.7764 -0.6417 -1.2902
  186MOL   H17937549   5.003   1.532   2.107 -0.5957  1.8137  0.2675
  186MOL   H18037550   4.799   1.498   1.981  0.0499 -0.4859  0.6664
  186MOL   H18137551   4.885   1.524   1.824  1.4902  0.4189 -0.0834
  186MOL   C18237552   4.846   1.706   1.929  0.1789  1.3859 -0.0090
  186MOL   C18337553   4.768   1.729   1.806  1.0808  0.0663 -0.5730
  186MOL  Cl18437554   4.596   1.746   1.828 -0.1537  0.0649  0.1527
  186MOL   C18537555   4.829   1.745   1.688  0.5667 -0.1199 -0.1272
  186MOL   C18637556   4.758   1.779   1.556  0.8442 -0.1572 -0.3431
  186MOL   H18737557   4.777   1.732   2.009  0.2498  3.0955 -0.4826
  186MOL   H18837558   4.935   1.769   1.931  0.7967  0.6890 -2.8947
  186MOL   H18937559   4.937   1.738   1.685  0.7551  1.8672  1.2203
  186MOL   H19037560   4.771   1.708   1.474  1.0383  0.6766 -1.0439
  186MOL   H19137561   4.654   1.751   1.574  0.9241 -1.4260 -1.6870
  186MOL   C19237562   4.784   1.921   1.503  0.2490  0.0020  0.2822
  186MOL   C19337563   4.710   1.939   1.374  0.2549 -0.2883  0.4840
  186MOL  Cl19437564   4.787   1.875   1.237 -0.3423  0.3845 -0.2270
  186MOL   C19537565   4.596   2.008   1.362 -0.2110 -0.1841  0.1269
  186MOL   C19637566   4.504   2.076   1.472  0.1840  0.2522  0.6288
  186MOL   H19737567   4.886   1.950   1.475 -0.6833 -0.2468 -3.5590
  186MOL   H19837568   4.735   1.982   1.580 -2.1501 -0.7317 -0.6375
  186MOL   H19937569   4.549   2.021   1.266 -3.6239 -1.0031  1.5928
  186MOL   H20037570   4.480   2.179   1.448 -0.3676 -0.2862 -1.1515
  186MOL   H20137571   4.546   2.075   1.573 -0.3378  1.4173  0.8700
  186MOL   H20237572   4.414   2.014   1.477  0.0534  0.4158  0.3045
  187MOL     C137573   4.468   3.989   7.243  0.1495  0.4761 -0.1360
  187MOL     C237574   4.378   3.930   7.136 -0.8422 -0.6393  0.1236
  187MOL    Cl337575   4.237   3.865   7.196  0.0693  0.2094  0.6197
  187MOL     C437576   4.408   3.923   7.005  0.7840  0.6790  0.0864
  187MOL     C537577   4.541   3.963   6.946  0.4994 -0.4658 -0.1905
  187MOL     H637578   4.571   3.960   7.222 -0.3187 -0.3941 -1.2880
  187MOL     H737579   4.431   3.941   7.333  2.0757 -1.9493 -0.5778
  187MOL     H837580   4.336   3.883   6.934  2.3192 -1.4611 -0.3067
  187MOL     H937581   4.630   3.955   7.009  0.6933  0.4778 -0.3359
  187MOL    H1037582   4.567   3.892   6.868  1.4480 -0.0179 -0.2995
  187MOL    H1137583   4.468   4.096   7.264 -4.0173  0.2339  1.5094
  187MOL    C1237584   4.525   4.097   6.888 -0.3351 -0.2830 -0.0882
  187MOL    C1337585   4.654   4.171   6.863  0.4568  0.2343 -0.5553
  187MOL   Cl1437586   4.724   4.240   7.006  0.1089  0.2483 -0.3960
  187MOL    C1537587   4.712   4.185   6.749 -0.2053 -0.3621  0.7877
  187MOL    C1637588   4.673   4.132   6.608  0.2326  0.6959 -0.3757
  187MOL    H1737589   4.473   4.088   6.792 -1.1882 -0.8331  0.4214
  187MOL    H1837590   4.466   4.156   6.958 -1.9282 -1.7433 -0.1799
  187MOL    H1937591   4.809   4.232   6.749  0.4143 -1.5886  0.2132
  187MOL    H2037592   4.758   4.087   6.557 -1.6659 -1.9437 -1.3201
  187MOL    H2137593   4.617   4.042   6.631 -1.6676  2.2156  1.1454
  187MOL    C2237594   4.591   4.224   6.526  0.7299 -0.1826  0.7282
  187MOL    C2337595   4.517   4.148   6.419  0.0817 -0.9947  0.1739
  187MOL   Cl2437596   4.368   4.092   6.475 -0.3479 -0.0374  0.2369
  187MOL    C2537597   4.541   4.157   6.289  0.1543  0.3025 -0.2490
  187MOL    C2637598   4.451   4.118   6.171  0.5466 -0.1601 -0.2963
  187MOL    H2737599   4.529   4.288   6.588  1.2708  2.3355 -1.2506
  187MOL    H2837600   4.650   4.295   6.467 -1.0715  2.5691  2.1324
  187MOL    H2937601   4.634   4.187   6.242  1.2178 -1.6467  0.5272
  187MOL    H3037602   4.495   4.046   6.102  0.2323  0.3688 -1.0480
  187MOL    H3137603   4.365   4.061   6.207  0.9374 -1.1334 -0.8794
  187MOL    C3237604   4.415   4.248   6.090 -0.2436 -0.3133  0.5293
  187MOL    C3337605   4.303   4.225   5.984  0.3702  0.9822  0.2666
  187MOL   Cl3437606   4.158   4.269   6.061 -0.2292  0.1417 -0.0903
  187MOL    C3537607   4.314   4.179   5.857  0.1377 -0.1987 -0.1232
  187MOL    C3637608   4.200   4.153   5.755 -0.5569 -0.6189  0.3635
  187MOL    H3737609   4.369   4.315   6.163 -0.1093 -1.0258  1.2747
  187MOL    H3837610   4.497   4.304   6.046 -0.2235  2.2245  3.6314
  187MOL    H3937611   4.407   4.139   5.820  0.2230 -0.4724  0.3825
  187MOL    H4037612   4.226   4.050   5.731  1.5076 -0.6231  2.4022
  187MOL    H4137613   4.098   4.172   5.788 -1.3489 -1.7673 -1.3640
  187MOL    C4237614   4.228   4.231   5.623 -0.1280  0.5438 -0.0017
  187MOL    C4337615   4.132   4.201   5.507  0.4924 -0.3434 -0.4826
  187MOL   Cl4437616   4.011   4.318   5.505 -0.0324  0.4603 -0.3289
  187MOL    C4537617   4.132   4.094   5.426 -0.2983 -0.7705  0.2314
  187MOL    C4637618   4.226   3.975   5.441  0.5947 -0.6948  0.0739
  187MOL    H4737619   4.227   4.338   5.645  2.5239  0.9706 -1.6318
  187MOL    H4837620   4.329   4.205   5.591 -1.1292  0.4563 -3.3762
  187MOL    H4937621   4.054   4.096   5.351 -0.0501 -1.1925 -0.0363
  187MOL    H5037622   4.294   3.983   5.526  0.9604 -0.4046 -0.2439
  187MOL    H5137623   4.163   3.888   5.458  0.6621 -0.3950  1.9669
  187MOL    C5237624   4.301   3.947   5.313 -0.0556 -0.2734 -0.8065
  187MOL    C5337625   4.347   3.809   5.297  0.1184  0.4610  0.6489
  187MOL   Cl5437626   4.300   3.747   5.136  0.3366 -0.1350 -0.4037
  187MOL    C5537627   4.411   3.741   5.391 -0.0316 -0.5725 -0.2269
  187MOL    C5637628   4.445   3.592   5.374 -0.5612  0.0052 -0.6084
  187MOL    H5737629   4.249   3.973   5.221 -0.9307  0.7864 -0.0335
  187MOL    H5837630   4.388   4.013   5.323 -1.3246  1.0166  2.6043
  187MOL    H5937631   4.420   3.792   5.486  2.5456 -1.0754 -0.1634
  187MOL    H6037632   4.359   3.543   5.420  0.4632 -0.4439  0.8960
  187MOL    H6137633   4.451   3.568   5.268  0.3694 -0.4512 -0.4588
  187MOL    C6237634   4.570   3.543   5.451  0.1904  0.3870 -0.1901
  187MOL    C6337635   4.611   3.406   5.406  0.1704  0.3362  0.5662
  187MOL   Cl6437636   4.558   3.269   5.504 -0.1867 -0.4145 -0.0125
  187MOL    C6537637   4.690   3.388   5.299  0.1452 -0.0556 -0.1890
  187MOL    C6637638   4.744   3.256   5.253  0.5443  0.1306  0.2314
  187MOL    H6737639   4.655   3.610   5.439  0.8637 -0.6854 -1.6105
  187MOL    H6837640   4.543   3.543   5.556 -2.6258 -0.8176 -0.8770
  187MOL    H6937641   4.712   3.482   5.249 -0.7842  0.3751  0.2013
  187MOL    H7037642   4.693   3.233   5.159  0.2046 -2.3915  1.0037
  187MOL    H7137643   4.718   3.172   5.317  0.3088  1.4177  1.8828
  187MOL    C7237644   4.897   3.254   5.232  0.0029  0.1100 -0.9289
  187MOL    C7337645   4.969   3.219   5.366  0.4176 -0.4149  0.3812
  187MOL   Cl7437646   5.008   3.353   5.463  0.3026 -0.6674 -0.6259
  187MOL    C7537647   5.001   3.093   5.403 -0.7378  0.6201  0.5530
  187MOL    C7637648   5.073   3.043   5.534 -0.0003 -0.1544  0.0353
  187MOL    H7737649   4.935   3.351   5.198  1.1041 -0.8322 -2.4473
  187MOL    H7837650   4.931   3.182   5.158  0.1756 -2.7416  1.7845
  187MOL    H7937651   4.972   3.010   5.339  0.1465 -0.5284  1.6384
  187MOL    H8037652   5.007   2.993   5.605 -2.1192  0.9681 -1.0626
  187MOL    H8137653   5.123   3.128   5.581 -0.1390  0.0715 -0.2259
  187MOL    C8237654   5.181   2.946   5.498  0.2377  0.8817  0.1421
  187MOL    C8337655   5.224   2.857   5.618  0.1922  1.0329  0.1720
  187MOL   Cl8437656   5.164   2.696   5.594  0.4380 -0.1204 -0.3070
  187MOL    C8537657   5.294   2.894   5.727 -0.3891  0.2712  0.8079
  187MOL    C8637658   5.340   2.809   5.839  0.1998  0.4651  0.3322
  187MOL    H8737659   5.270   3.003   5.471  0.6465  1.3812  2.4125
  187MOL    H8837660   5.149   2.884   5.415  0.3455 -0.4456  1.0767
  187MOL    H8937661   5.318   3.000   5.732 -0.7985  0.3083  2.3345
  187MOL    H9037662   5.291   2.853   5.926 -0.0578  1.7259 -0.4503
  187MOL    H9137663   5.304   2.706   5.837  0.4442  0.3579  1.1967
  187MOL    C9237664   5.492   2.803   5.854 -0.1935 -0.0183 -0.4934
  187MOL    C9337665   5.568   2.930   5.854  0.2169  0.1268 -0.0910
  187MOL   Cl9437666   5.622   2.979   5.704  0.0443  0.0112 -0.0584
  187MOL    C9537667   5.581   3.010   5.963  0.9271  0.2095  0.0565
  187MOL    C9637668   5.523   2.982   6.099  0.0436 -0.0247  0.4411
  187MOL    H9737669   5.521   2.747   5.765 -1.1738 -1.9993  0.3891
  187MOL    H9837670   5.521   2.742   5.940  0.7984  0.8581 -0.2068
  187MOL    H9937671   5.639   3.099   5.945  2.2817 -0.2912  1.8309
  187MOL   H10037672   5.455   2.897   6.095  2.2096 -1.8198  0.6601
  187MOL   H10137673   5.606   2.951   6.164  0.3920 -0.5198 -0.2273
  187MOL   C10237674   5.463   3.107   6.163  0.3141 -0.4491  0.2834
  187MOL   C10337675   5.346   3.071   6.262  0.3207 -0.7556  0.3633
  187MOL  Cl10437676   5.205   3.161   6.228 -0.3568  0.0960  0.1980
  187MOL   C10537677   5.357   2.985   6.365 -0.2724 -0.3388  0.1055
  187MOL   C10637678   5.243   2.953   6.461  0.0274 -0.2122  0.0054
  187MOL   H10737679   5.544   3.168   6.202 -0.8491  0.3087  1.5474
  187MOL   H10837680   5.424   3.174   6.087  2.0326  0.2311 -0.0216
  187MOL   H10937681   5.448   2.928   6.370 -0.6959 -0.9476  0.9929
  187MOL   H11037682   5.271   2.986   6.561 -2.5430 -0.0500  0.7074
  187MOL   H11137683   5.156   3.012   6.431  0.3886 -0.7230 -2.1469
  187MOL   C11237684   5.205   2.803   6.470 -0.2990 -0.5465 -0.1061
  187MOL   C11337685   5.100   2.762   6.571 -0.2433 -0.2828  0.4455
  187MOL  Cl11437686   5.016   2.893   6.654 -0.2332  0.0386  0.4773
  187MOL   C11537687   5.058   2.634   6.588 -0.7047  0.7546 -0.8176
  187MOL   C11637688   5.112   2.511   6.519  0.1020  0.5279 -0.2052
  187MOL   H11737689   5.166   2.771   6.374 -1.1758 -1.9563  0.7029
  187MOL   H11837690   5.297   2.748   6.488 -0.6205 -1.6793 -1.7855
  187MOL   H11937691   4.978   2.618   6.659 -0.0102  0.7768 -0.0259
  187MOL   H12037692   5.163   2.534   6.426 -2.9518 -1.5062 -2.4735
  187MOL   H12137693   5.018   2.467   6.485 -0.1823 -0.9546  2.3172
  187MOL   C12237694   5.182   2.406   6.611  0.6871  0.5421  0.2602
  187MOL   C12337695   5.226   2.284   6.530  0.2135  0.1882 -0.3544
  187MOL  Cl12437696   5.109   2.172   6.531 -0.0587 -0.1260  0.2052
  187MOL   C12537697   5.345   2.259   6.472  0.1899  0.4887  0.1650
  187MOL   C12637698   5.456   2.360   6.483 -0.1085  0.1748 -0.4149
  187MOL   H12737699   5.264   2.455   6.663 -1.2909  0.7374  3.3515
  187MOL   H12837700   5.124   2.367   6.695  0.5069  1.1058  0.3969
  187MOL   H12937701   5.362   2.169   6.415 -0.0683 -0.9800  2.3354
  187MOL   H13037702   5.438   2.452   6.538  3.3270  2.7541 -3.4053
  187MOL   H13137703   5.528   2.304   6.545 -0.5658  1.2771  1.1500
  187MOL   C13237704   5.503   2.399   6.347  0.0152  0.1050  0.0194
  187MOL   C13337705   5.418   2.508   6.281 -0.0670 -0.6646  0.4622
  187MOL  Cl13437706   5.494   2.664   6.288 -0.1357  0.1707 -0.1401
  187MOL   C13537707   5.309   2.490   6.207  0.0450 -0.5556 -0.1726
  187MOL   C13637708   5.235   2.359   6.175 -0.4392  0.0256  0.6105
  187MOL   H13737709   5.606   2.433   6.356  0.7606 -1.9503 -0.3519
  187MOL   H13837710   5.513   2.309   6.285  1.1274  0.7185 -0.7090
  187MOL   H13937711   5.273   2.582   6.163  1.1343 -0.3642 -0.6617
  187MOL   H14037712   5.300   2.279   6.212 -0.6891 -0.7354 -0.5299
  187MOL   H14137713   5.147   2.347   6.237  0.1530 -0.6782  1.3418
  187MOL   C14237714   5.183   2.337   6.024 -0.1390 -0.9399  0.0706
  187MOL   C14337715   5.107   2.213   6.005 -0.1442  0.0986 -0.0333
  187MOL  Cl14437716   5.158   2.076   6.100  0.4201  0.0387  0.3077
  187MOL   C14537717   4.997   2.204   5.925  0.0975  0.5164 -0.1519
  187MOL   C14637718   4.907   2.081   5.910 -0.1828 -0.1758 -0.9212
  187MOL   H14737719   5.262   2.332   5.948 -1.9484 -1.0723 -1.8370
  187MOL   H14837720   5.125   2.428   6.006 -0.8766 -0.9551  2.2866
  187MOL   H14937721   4.968   2.290   5.867  0.0965 -0.7734 -2.1063
  187MOL   H15037722   4.949   1.998   5.966 -1.0111  0.9691  1.4609
  187MOL   H15137723   4.807   2.098   5.949 -0.0753 -0.7970 -0.3639
  187MOL   C15237724   4.895   2.029   5.764  0.4974 -0.0592 -0.6675
  187MOL   C15337725   4.774   1.935   5.746  0.0428  0.6709 -0.3579
  187MOL  Cl15437726   4.781   1.813   5.877 -0.2272 -0.2711 -0.2103
  187MOL   C15537727   4.686   1.932   5.646 -0.2620  0.3068 -0.4988
  187MOL   C15637728   4.566   1.848   5.645  0.7440  0.3221 -0.1048
  187MOL   H15737729   4.878   2.108   5.690  1.4972  0.0625 -0.7762
  187MOL   H15837730   4.990   1.987   5.732 -0.2521 -1.2188 -1.3909
  187MOL   H15937731   4.693   2.004   5.566  0.4959  2.5041  1.5117
  187MOL   H16037732   4.554   1.792   5.738 -1.2617 -1.7360 -1.5308
  187MOL   H16137733   4.573   1.776   5.563 -0.3719 -0.0285  0.1019
  187MOL   C16237734   4.439   1.930   5.623  0.7516 -0.1075 -0.3856
  187MOL   C16337735   4.412   1.977   5.482 -0.0734  0.3602  0.1808
  187MOL  Cl16437736   4.275   2.080   5.478  0.0058 -0.1413 -0.0954
  187MOL   C16537737   4.496   1.965   5.372  0.6279 -0.0656  0.5318
  187MOL   C16637738   4.464   2.029   5.232  0.9996 -0.2292 -0.3160
  187MOL   H16737739   4.353   1.871   5.655  0.9498 -0.3086 -0.2268
  187MOL   H16837740   4.443   2.020   5.684  0.3720 -0.2420 -0.1633
  187MOL   H16937741   4.591   1.914   5.383 -0.4924 -2.2711  0.2472
  187MOL   H17037742   4.485   1.953   5.157  1.4513  1.6938 -2.2137
  187MOL   H17137743   4.361   2.060   5.214  1.1851  0.7451  0.2807
  187MOL   C17237744   4.558   2.146   5.203 -0.8692  0.6353 -0.1425
  187MOL   C17337745   4.578   2.171   5.055  0.7148  0.4988 -0.6934
  187MOL  Cl17437746   4.586   2.337   5.029 -0.3133  0.0681  0.0555
  187MOL   C17537747   4.559   2.083   4.952 -0.5976 -0.1048 -0.2762
  187MOL   C17637748   4.562   2.121   4.805  0.5986 -0.4303  0.9659
  187MOL   H17737749   4.662   2.118   5.222 -0.7096  1.1551 -0.2351
  187MOL   H17837750   4.523   2.231   5.261  0.2312 -0.4366  2.1428
  187MOL   H17937751   4.551   1.978   4.976  0.7380 -0.0991  0.2751
  187MOL   H18037752   4.601   2.222   4.792 -0.9766 -0.1687 -2.3486
  187MOL   H18137753   4.463   2.132   4.760  0.7024  0.5312  0.9614
  187MOL   C18237754   4.637   2.020   4.718 -0.6349  0.0462  0.2261
  187MOL   C18337755   4.572   1.888   4.697 -0.0663 -0.0021 -0.4402
  187MOL  Cl18437756   4.463   1.897   4.562  0.0509 -0.3209  0.0757
  187MOL   C18537757   4.602   1.775   4.761  0.7468  0.4499 -0.6300
  187MOL   C18637758   4.561   1.634   4.732 -0.1190  0.5645  0.0100
  187MOL   H18737759   4.646   2.059   4.617  2.0426 -0.7253  0.1360
  187MOL   H18837760   4.735   2.005   4.764  0.2218 -0.8106 -1.8225
  187MOL   H18937761   4.671   1.788   4.843  0.6366 -2.5716  0.0045
  187MOL   H19037762   4.487   1.634   4.652 -0.1654  1.4020  0.0477
  187MOL   H19137763   4.650   1.581   4.699  0.6158  0.3362  2.2373
  187MOL   C19237764   4.504   1.563   4.853  0.4004 -0.6979 -0.0885
  187MOL   C19337765   4.445   1.423   4.830 -0.0984 -0.1386  0.5209
  187MOL  Cl19437766   4.266   1.428   4.839 -0.1206 -0.1745  0.0198
  187MOL   C19537767   4.506   1.308   4.800  0.0679 -0.6324  0.7251
  187MOL   C19637768   4.656   1.277   4.797 -0.2232 -0.4057  0.1002
  187MOL   H19737769   4.436   1.625   4.911  0.0200 -1.2043  0.0048
  187MOL   H19837770   4.584   1.551   4.926 -0.1664 -0.0490  0.6565
  187MOL   H19937771   4.449   1.219   4.777  0.1755 -0.1221 -1.6360
  187MOL   H20037772   4.694   1.203   4.726 -0.4586  1.3273 -1.8890
  187MOL   H20137773   4.689   1.232   4.890  0.2314 -1.2395 -0.4516
  187MOL   H20237774   4.713   1.369   4.796  0.3622 -0.7661 -0.7868
  188MOL     C137775   7.680   7.467   4.095 -0.6970  0.4915 -0.7511
  188MOL     C237776   7.665   7.580   3.998 -0.7153 -0.0696 -0.1504
  188MOL    Cl337777   7.682   7.733   4.073  0.0718 -0.6956 -0.0226
  188MOL     C437778   7.639   7.573   3.859  0.6991 -0.0638 -0.2512
  188MOL     C537779   7.624   7.449   3.776  0.1428  0.2028 -0.4596
  188MOL     H637780   7.782   7.430   4.097 -0.0816  2.1418 -0.3561
  188MOL     H737781   7.613   7.384   4.073  1.5990 -1.7554  0.6013
  188MOL     H837782   7.632   7.669   3.810 -1.1992 -0.4183 -0.6965
  188MOL     H937783   7.673   7.453   3.679 -0.9198 -0.0260 -1.0148
  188MOL    H1037784   7.657   7.360   3.829  0.3717  0.7654  0.3546
  188MOL    H1137785   7.664   7.506   4.195 -2.5741 -1.6922 -0.1616
  188MOL    C1237786   7.481   7.425   3.749  0.4182 -0.0931  0.7256
  188MOL    C1337787   7.461   7.289   3.679  0.2392 -0.2887  1.0831
  188MOL   Cl1437788   7.478   7.303   3.506  0.4225 -0.2425  0.0565
  188MOL    C1537789   7.440   7.170   3.742 -0.7228 -0.2841  0.6172
  188MOL    C1637790   7.429   7.144   3.895 -0.5794 -0.0301 -0.0673
  188MOL    H1737791   7.409   7.424   3.831  0.6420 -2.5853  0.9565
  188MOL    H1837792   7.446   7.502   3.681  1.0381  2.0543  2.7842
  188MOL    H1937793   7.429   7.079   3.684 -1.0610  0.5567 -0.6712
  188MOL    H2037794   7.441   7.240   3.946  0.4887  1.3941 -2.8793
  188MOL    H2137795   7.325   7.114   3.901 -0.7672  0.3056 -1.4742
  188MOL    C2237796   7.529   7.033   3.956  0.1768 -0.3701 -0.3268
  188MOL    C2337797   7.667   7.082   3.996 -0.4530 -0.1429  0.5594
  188MOL   Cl2437798   7.671   7.141   4.158 -0.1179 -0.0659  0.1870
  188MOL    C2537799   7.777   7.081   3.921  0.1343 -0.7993  0.2205
  188MOL    C2637800   7.912   7.137   3.966  0.4493  0.7296  0.2652
  188MOL    H2737801   7.477   6.985   4.039 -1.5143  0.1907 -1.0372
  188MOL    H2837802   7.543   6.951   3.885 -0.2979 -1.2006  0.5249
  188MOL    H2937803   7.780   7.039   3.822  2.2779 -0.8877  0.3132
  188MOL    H3037804   7.913   7.187   4.063  1.6761  0.8681  0.1955
  188MOL    H3137805   7.984   7.055   3.976  2.1662  2.1370 -0.1655
  188MOL    C3237806   7.952   7.242   3.856  0.3806 -0.4988 -0.2590
  188MOL    C3337807   8.093   7.226   3.801  0.3491 -0.9011 -0.0484
  188MOL   Cl3437808   8.115   7.267   3.628 -0.1642 -0.0804  0.1379
  188MOL    C3537809   8.195   7.182   3.872  0.0371  1.1189 -0.0376
  188MOL    C3637810   8.338   7.164   3.825 -0.5149  0.4034  0.1471
  188MOL    H3737811   7.882   7.259   3.774  0.2737  0.5211  0.0396
  188MOL    H3837812   7.950   7.342   3.901  1.2764 -1.1169  1.2045
  188MOL    H3937813   8.184   7.156   3.976 -0.1385 -1.4342 -0.6506
  188MOL    H4037814   8.372   7.063   3.849 -0.8553  0.3011  0.2005
  188MOL    H4137815   8.318   7.156   3.718  2.0644 -0.6963 -0.2969
  188MOL    C4237816   0.009   7.268   3.868  0.1907  0.2816  0.2461
  188MOL    C4337817   0.124   7.275   3.772  0.3006  0.8719 -0.4676
  188MOL   Cl4437818   0.233   7.133   3.791  0.2227 -0.1683  0.2858
  188MOL    C4537819   0.158   7.367   3.678 -0.4611  0.7759  0.8122
  188MOL    C4637820   0.077   7.492   3.650  0.6104  0.1291 -0.0737
  188MOL    H4737821   8.379   7.362   3.888  1.2222  0.0669  4.4943
  188MOL    H4837822   0.048   7.238   3.966  1.1770  2.1767  0.4541
  188MOL    H4937823   0.250   7.344   3.625 -1.3391  0.0733 -0.4438
  188MOL    H5037824   0.033   7.519   3.746  2.5338  2.1460  0.2751
  188MOL    H5137825   0.141   7.579   3.636 -0.9471  1.1732 -0.8776
  188MOL    C5237826   8.416   7.497   3.520  0.5529 -0.4016  0.3347
  188MOL    C5337827   8.362   7.637   3.503  0.2735 -0.0172 -0.2406
  188MOL   Cl5437828   0.007   7.720   3.364  0.1253  0.3935  0.3247
  188MOL    C5537829   8.267   7.690   3.580 -0.3614 -0.1138  0.2253
  188MOL    C5637830   8.220   7.829   3.557  0.0769 -0.0329 -0.7492
  188MOL    H5737831   0.057   7.477   3.432 -0.9604  1.0947 -1.0862
  188MOL    H5837832   8.338   7.420   3.521  0.0447  0.1022  0.0168
  188MOL    H5937833   8.215   7.643   3.662 -0.7163 -1.6780 -0.8913
  188MOL    H6037834   8.275   7.889   3.485 -2.4421  0.0356 -2.6529
  188MOL    H6137835   8.121   7.814   3.515  0.0652  0.2622 -0.8238
  188MOL    C6237836   8.210   7.906   3.690  0.1343 -0.4493 -0.3164
  188MOL    C6337837   8.342   7.936   3.754 -0.1465  0.0370 -0.0446
  188MOL   Cl6437838   8.368   7.837   3.891  0.4918 -0.0166 -0.3368
  188MOL    C6537839   0.020   8.019   3.712  0.3017  0.1551  0.0503
  188MOL    C6637840   0.159   8.051   3.770 -0.1461 -0.6446  0.3587
  188MOL    H6737841   8.146   7.993   3.675  1.0409  0.0601 -1.3305
  188MOL    H6837842   8.151   7.851   3.762 -1.9636  3.0151  0.7306
  188MOL    H6937843   0.000   8.073   3.621  2.0193  0.6945 -0.0069
  188MOL    H7037844   0.228   7.969   3.749  3.5122  2.2267  0.6050
  188MOL    H7137845   0.168   8.054   3.878  2.2343 -1.2068  0.2034
  188MOL    C7237846   0.226   8.181   3.718  0.1786 -0.5049 -0.0975
  188MOL    C7337847   0.153   8.318   3.745 -0.4909 -0.1362 -0.3574
  188MOL   Cl7437848   0.009   8.313   3.842 -0.3850  0.0236 -0.2822
  188MOL    C7537849   0.206   0.019   3.717  0.0103  0.3052  0.1788
  188MOL    C7637850   0.144   0.149   3.756  0.2756  0.8039 -0.0294
  188MOL    H7737851   0.217   8.175   3.609 -0.6994 -0.2201 -0.0452
  188MOL    H7837852   0.331   8.177   3.745  1.0684 -1.8190 -3.4460
  188MOL    H7937853   0.294   0.035   3.657  1.2433  0.2766  1.9535
  188MOL    H8037854   0.045   0.149   3.802  1.3140  3.4232  2.3350
  188MOL    H8137855   0.103   0.191   3.664  2.1817 -0.4690 -1.4940
  188MOL    C8237856   0.240   0.249   3.823 -0.1923  0.4890 -0.2618
  188MOL    C8337857   0.171   0.391   3.844 -0.4795 -0.3156  0.3371
  188MOL   Cl8437858   0.157   0.475   3.693 -0.5077  0.1433  0.2488
  188MOL    C8537859   0.160   0.454   3.962 -0.3164 -0.0568 -0.1745
  188MOL    C8637860   0.138   0.600   3.994  0.5029  0.1703 -0.0891
  188MOL    H8737861   0.308   0.271   3.741 -0.8696  0.4476 -0.8375
  188MOL    H8837862   0.294   0.223   3.914 -1.6521  0.8417  0.7241
  188MOL    H8937863   0.179   0.390   4.047  0.6734 -1.1386 -1.1836
  188MOL    H9037864   0.049   0.620   3.934  0.3712  0.5679  0.2339
  188MOL    H9137865   0.112   0.611   4.099 -1.2798 -2.1473 -0.2310
  188MOL    C9237866   0.261   0.687   3.955  0.4202 -0.1111  0.4878
  188MOL    C9337867   0.382   0.650   4.032  0.4092 -0.2814  0.1274
  188MOL   Cl9437868   0.377   0.711   4.196  0.0544  0.3983  0.0391
  188MOL    C9537869   0.500   0.610   3.977  0.5289  0.3813 -0.3702
  188MOL    C9637870   0.517   0.559   3.834 -0.6281  0.3317  0.4489
  188MOL    H9737871   0.232   0.792   3.969  1.5080 -0.0135  2.1240
  188MOL    H9837872   0.290   0.670   3.851  0.5335 -0.4612  0.5781
  188MOL    H9937873   0.588   0.601   4.039 -0.5878 -1.6911  0.9585
  188MOL   H10037874   0.596   0.485   3.838  0.7206  1.7704  1.0526
  188MOL   H10137875   0.430   0.498   3.810  0.8360 -0.5557 -2.8041
  188MOL   C10237876   0.538   0.670   3.730  0.2277 -0.0735  0.3485
  188MOL   C10337877   0.563   0.619   3.589 -0.4575  0.1857 -0.7385
  188MOL  Cl10437878   0.429   0.634   3.482  0.2476 -0.3606 -0.3344
  188MOL   C10537879   0.689   0.574   3.552 -0.2542 -0.1897 -0.1784
  188MOL   C10637880   0.718   0.529   3.413 -0.2471  0.6942 -0.5407
  188MOL   H10737881   0.456   0.741   3.722 -1.0681 -1.1025  3.6124
  188MOL   H10837882   0.627   0.725   3.759  0.3846 -1.2129  2.0847
  188MOL   H10937883   0.779   0.563   3.612 -0.7038 -2.4180  0.1093
  188MOL   H11037884   0.691   0.424   3.411 -1.8764  1.0560  0.8726
  188MOL   H11137885   0.653   0.569   3.335  0.0337  0.1346 -1.0593
  188MOL   C11237886   0.861   0.577   3.374  0.1281 -0.0082 -0.1630
  188MOL   C11337887   0.910   0.534   3.233  0.5374  0.4023  1.0328
  188MOL  Cl11437888   0.840   0.385   3.178  0.5874  0.2786 -0.1133
  188MOL   C11537889   0.997   0.599   3.155 -0.6566 -0.2990  0.0308
  188MOL   C11637890   1.066   0.728   3.178  0.0204  0.7399 -0.3864
  188MOL   H11737891   0.872   0.686   3.373  0.5705 -0.0651 -1.5404
  188MOL   H11837892   0.929   0.530   3.444  1.2239  1.5787 -0.1394
  188MOL   H11937893   1.010   0.555   3.057 -1.9380  2.1684 -1.3012
  188MOL   H12037894   1.024   0.790   3.257  0.5645 -0.4675  0.8872
  188MOL   H12137895   1.044   0.785   3.088  0.4304  0.8403 -0.4234
  188MOL   C12237896   1.214   0.718   3.195 -0.0366 -0.0660 -0.0227
  188MOL   C12337897   1.281   0.857   3.216  0.6627 -0.2680  0.2208
  188MOL  Cl12437898   1.239   0.911   3.379 -0.1591 -0.3191 -0.0071
  188MOL   C12537899   1.355   0.928   3.132 -0.6530  0.7055  0.1346
  188MOL   C12637900   1.393   0.883   2.994  0.1596 -0.4743 -0.4107
  188MOL   H12737901   1.246   0.658   3.280  0.5000 -0.3577 -0.4286
  188MOL   H12837902   1.258   0.660   3.114 -1.2255 -2.5695  1.0800
  188MOL   H12937903   1.398   1.022   3.166  1.2405 -0.8719  2.2680
  188MOL   H13037904   1.323   0.804   2.968 -1.5207  0.8623 -0.0069
  188MOL   H13137905   1.375   0.971   2.932 -0.3379  0.9682  1.7125
  188MOL   C13237906   1.546   0.846   2.973 -0.0951 -0.9625  0.6769
  188MOL   C13337907   1.583   0.807   2.839 -0.2418  0.6928  0.3541
  188MOL  Cl13437908   1.660   0.940   2.762  0.0966  0.4826  0.0511
  188MOL   C13537909   1.559   0.693   2.774 -0.1371 -0.0251  0.3331
  188MOL   C13637910   1.487   0.569   2.827  0.1976 -0.0274  0.2553
  188MOL   H13737911   1.590   0.940   3.005 -0.9303 -0.5620  0.6658
  188MOL   H13837912   1.581   0.771   3.045 -0.7391 -0.0348  1.9924
  188MOL   H13937913   1.598   0.684   2.674  0.4190  1.7794  0.3739
  188MOL   H14037914   1.445   0.572   2.928  3.6300 -2.3025  1.8304
  188MOL   H14137915   1.399   0.572   2.762  1.5672  0.9187 -1.5914
  188MOL   C14237916   1.561   0.436   2.823  0.2646 -0.2926  0.3404
  188MOL   C14337917   1.461   0.322   2.861 -0.0453 -0.6560 -0.0931
  188MOL  Cl14437918   1.402   0.232   2.726  0.3745 -0.2650  0.2744
  188MOL   C14537919   1.438   0.293   2.986  0.4019 -0.0664  0.2145
  188MOL   C14637920   1.344   0.185   3.027  0.5364  0.0715 -0.2315
  188MOL   H14737921   1.650   0.436   2.886 -0.0450 -0.1958  0.7857
  188MOL   H14837922   1.591   0.426   2.719  2.0997 -3.2491  1.1312
  188MOL   H14937923   1.487   0.352   3.062  1.4441  2.2760 -2.2030
  188MOL   H15037924   1.334   0.116   2.943 -0.2564 -0.4449  0.2705
  188MOL   H15137925   1.387   0.124   3.107  0.4614  0.8921  0.4344
  188MOL   C15237926   1.213   0.252   3.082 -0.1064 -0.6976  0.9396
  188MOL   C15337927   1.091   0.166   3.067 -0.3759  0.3080 -0.3385
  188MOL  Cl15437928   1.033   0.169   2.908  0.1832  0.1359 -0.4423
  188MOL   C15537929   1.027   0.104   3.166 -0.3642 -0.0509  0.1527
  188MOL   C15637930   0.906   0.022   3.145  0.1405 -0.4527  0.0459
  188MOL   H15737931   1.239   0.286   3.182  1.1153  1.2162  0.0166
  188MOL   H15837932   1.192   0.352   3.044  1.8064  0.4374  2.7634
  188MOL   H15937933   1.061   0.114   3.268 -1.3562 -1.6475  0.6551
  188MOL   H16037934   0.906   8.408   3.042  1.6878 -0.9927  0.2030
  188MOL   H16137935   0.826   0.092   3.168  1.2927  1.1511 -0.7003
  188MOL   C16237936   0.890   8.314   3.223 -0.2771  0.0113 -0.0432
  188MOL   C16337937   0.755   8.254   3.193  0.3544  0.5548 -0.5153
  188MOL  Cl16437938   0.767   8.133   3.072 -0.4948  0.0330 -0.3132
  188MOL   C16537939   0.632   8.285   3.241  0.7184  0.0258 -0.3785
  188MOL   C16637940   0.491   8.228   3.205 -1.0210 -0.1081 -0.5949
  188MOL   H16737941   0.971   8.248   3.191 -0.3207  0.6380 -1.5005
  188MOL   H16837942   0.910   8.344   3.325 -2.3508  1.5856 -0.0688
  188MOL   H16937943   0.630   8.361   3.318  0.5701  0.9192 -1.2607
  188MOL   H17037944   0.489   8.180   3.107 -2.4261 -0.8867 -0.1950
  188MOL   H17137945   0.466   8.169   3.293  1.6387 -0.8194 -0.2764
  188MOL   C17237946   0.387   8.345   3.199 -0.0474  0.7031 -0.5585
  188MOL   C17337947   0.239   8.303   3.170 -0.1539 -0.3146 -0.0082
  188MOL  Cl17437948   0.131   8.368   3.284  0.2215  0.3687 -0.0539
  188MOL   C17537949   0.202   8.233   3.061  0.3605 -0.0610  0.3816
  188MOL   C17637950   0.058   8.183   3.024 -0.1906 -0.6535 -0.3655
  188MOL   H17737951   0.410   0.001   3.126  2.5358  2.6392  2.1658
  188MOL   H17837952   0.389   8.405   3.290 -2.9190  1.3398 -0.8706
  188MOL   H17937953   0.283   8.209   2.995 -0.7076 -0.4454 -0.8080
  188MOL   H18037954   0.042   8.208   2.919 -1.4329  0.8430  0.1550
  188MOL   H18137955   8.413   8.241   3.089  1.7220 -0.6091  1.5977
  188MOL   C18237956   0.028   8.032   3.046  0.1268  0.6686  0.3714
  188MOL   C18337957   8.301   8.003   3.042  0.3067  0.1662 -0.2647
  188MOL  Cl18437958   8.251   7.950   2.886  0.1153  0.2127 -0.0009
  188MOL   C18537959   8.204   8.018   3.141  0.0369 -0.3753  0.1502
  188MOL   C18637960   8.052   7.991   3.126 -0.1930 -0.2566  0.2662
  188MOL   H18737961   0.083   7.974   2.971 -1.4114 -1.3987  0.7818
  188MOL   H18837962   0.071   8.000   3.141 -0.2169  0.5354  0.4805
  188MOL   H18937963   8.232   8.053   3.239 -0.9154  1.4850 -0.2208
  188MOL   H19037964   8.029   7.958   3.025  2.2449  1.4707 -0.8880
  188MOL   H19137965   8.051   7.894   3.177  0.9605 -0.8919 -0.8944
  188MOL   C19237966   7.962   8.106   3.181 -0.4317  0.0362  0.5355
  188MOL   C19337967   7.813   8.066   3.182 -0.4932  0.0834  0.0350
  188MOL  Cl19437968   7.765   7.990   3.326  0.4256 -0.0352  0.3917
  188MOL   C19537969   7.722   8.092   3.088 -0.3334  0.1102 -0.3394
  188MOL   C19637970   7.746   8.159   2.957  0.0181 -0.0930  0.4159
  188MOL   H19737971   7.978   8.203   3.134 -0.9735 -0.1687 -0.0759
  188MOL   H19837972   8.001   8.124   3.281  0.4000  1.9654 -0.0990
  188MOL   H19937973   7.630   8.046   3.122  0.5391  0.5142  2.6549
  188MOL   H20037974   7.679   8.244   2.942  1.9369  1.0025 -2.4297
  188MOL   H20137975   7.733   8.093   2.872 -0.6833  2.3075 -1.4101
  188MOL   H20237976   7.841   8.213   2.959 -0.8876  1.6459 -1.1828
  189MOL     C137977   1.233   2.136   2.623 -0.4554  0.0253 -0.2834
  189MOL     C237978   1.096   2.180   2.604 -0.0731 -0.4151 -0.6388
  189MOL    Cl337979   1.003   2.180   2.756 -0.0758 -0.1483  0.1382
  189MOL     C437980   1.027   2.208   2.490  0.2032  0.1524 -1.0862
  189MOL     C537981   1.084   2.215   2.347  0.1034  0.4691  0.3802
  189MOL     H637982   1.240   2.054   2.694  3.2112 -1.3424 -2.0882
  189MOL     H737983   1.282   2.228   2.656  2.0854 -0.4571 -2.5230
  189MOL     H837984   0.921   2.229   2.500  0.2773 -0.2195  0.7425
  189MOL     H937985   1.181   2.165   2.344 -0.0483  0.0577  1.8647
  189MOL    H1037986   1.021   2.150   2.286  1.3065  0.7464 -1.1732
  189MOL    H1137987   1.283   2.108   2.530 -1.8149 -1.0574 -0.6940
  189MOL    C1237988   1.076   2.358   2.293 -0.0712  0.4046 -0.0199
  189MOL    C1337989   1.132   2.364   2.158 -0.3543 -0.5639 -0.9714
  189MOL   Cl1437990   1.298   2.410   2.155 -0.4334  0.0475 -0.1087
  189MOL    C1537991   1.063   2.338   2.048  0.0896  0.2367 -0.3476
  189MOL    C1637992   0.913   2.300   2.047  0.1226 -0.9393 -0.9275
  189MOL    H1737993   0.974   2.392   2.311  0.0046  0.5583  0.1201
  189MOL    H1837994   1.149   2.413   2.354 -0.4203  0.5085  0.3051
  189MOL    H1937995   1.112   2.356   1.953  1.0424  0.9179  0.2701
  189MOL    H2037996   0.863   2.301   2.144 -0.4945 -1.2482 -1.2382
  189MOL    H2137997   0.866   2.385   1.997 -0.5084 -0.9687 -0.3983
  189MOL    C2237998   0.883   2.169   1.966  0.1616  0.0932 -0.8217
  189MOL    C2337999   0.734   2.137   1.953 -0.7809  0.2831 -0.2591
  189MOL   Cl2438000   0.724   1.972   1.887 -0.5502 -0.3286  0.0970
  189MOL    C2538001   0.624   2.212   1.974  0.3612  0.7173  0.4060
  189MOL    C2638002   0.477   2.176   1.935 -0.5581  0.0304 -0.6088
  189MOL    H2738003   0.908   2.200   1.864 -0.5140 -0.8771 -1.2886
  189MOL    H2838004   0.955   2.090   1.986 -1.1015 -0.6644  0.7709
  189MOL    H2938005   0.634   2.314   2.009 -0.3098  1.4203 -1.3731
  189MOL    H3038006   0.480   2.069   1.917  0.0200  0.1337 -1.1639
  189MOL    H3138007   0.423   2.194   2.028 -1.4992  0.9377 -1.3133
  189MOL    C3238008   0.426   2.269   1.822  0.5594  0.3029 -0.2779
  189MOL    C3338009   0.511   2.254   1.694 -0.3147 -0.2510 -0.1668
  189MOL   Cl3438010   0.569   2.400   1.629  0.4253  0.1121 -0.0115
  189MOL    C3538011   0.552   2.137   1.639  0.4784 -0.3362 -0.3474
  189MOL    C3638012   0.644   2.120   1.520 -0.3439  0.4803 -0.5906
  189MOL    H3738013   0.324   2.248   1.787  0.6115  0.4919 -0.5431
  189MOL    H3838014   0.442   2.373   1.852  0.4078  0.1457  0.3400
  189MOL    H3938015   0.525   2.042   1.684 -1.6569 -0.8421 -2.6442
  189MOL    H4038016   0.702   2.212   1.518 -1.8045  1.4208 -0.4321
  189MOL    H4138017   0.723   2.048   1.540  1.3420  2.7514  1.1122
  189MOL    C4238018   0.566   2.095   1.387  0.5912 -0.0010 -0.4476
  189MOL    C4338019   0.658   2.092   1.263  0.2182 -0.1538  0.6083
  189MOL   Cl4438020   0.720   1.941   1.221  0.4337  0.5788 -0.3201
  189MOL    C4538021   0.687   2.200   1.183  0.3023  0.5160  0.3839
  189MOL    C4638022   0.644   2.339   1.214  0.1179  0.6166 -0.2068
  189MOL    H4738023   0.502   2.007   1.395 -1.4241  1.3399 -1.2888
  189MOL    H4838024   0.496   2.177   1.371 -2.0608 -2.2489 -0.8033
  189MOL    H4938025   0.758   2.185   1.103 -0.9832  1.3032 -0.9273
  189MOL    H5038026   0.621   2.361   1.319  0.7935 -0.7876  0.2507
  189MOL    H5138027   0.725   2.401   1.178  1.3752  0.5713  2.4374
  189MOL    C5238028   0.521   2.367   1.127  0.3127 -0.3493  1.2273
  189MOL    C5338029   0.432   2.486   1.176 -0.5787 -0.2258  0.4752
  189MOL   Cl5438030   0.422   2.615   1.063  0.0785  0.0358  0.0003
  189MOL    C5538031   0.353   2.481   1.288 -0.1060 -0.2563 -0.1673
  189MOL    C5638032   0.265   2.587   1.345  0.1612  0.2167  0.5263
  189MOL    H5738033   0.546   2.389   1.023 -1.9610  1.2498  0.9494
  189MOL    H5838034   0.451   2.284   1.124 -0.9424  0.7322 -2.9741
  189MOL    H5938035   0.371   2.395   1.351  1.3980 -0.0557 -0.3029
  189MOL    H6038036   0.280   2.684   1.298 -0.8705 -0.1233 -0.5110
  189MOL    H6138037   0.170   2.557   1.301  0.9139  1.1240 -1.7733
  189MOL    C6238038   0.280   2.617   1.494  0.0317  0.2139  0.6299
  189MOL    C6338039   0.169   2.701   1.558 -0.0607  0.5489 -0.0436
  189MOL   Cl6438040   0.023   2.615   1.555 -0.1428 -0.4830  0.1430
  189MOL    C6538041   0.182   2.824   1.610 -0.3026  0.2457 -0.8409
  189MOL    C6638042   0.072   2.898   1.680 -0.0498  0.2712 -0.0482
  189MOL    H6738043   0.283   2.524   1.550  2.0667 -0.3853 -0.4235
  189MOL    H6838044   0.374   2.665   1.521  0.1459 -0.1707  0.9162
  189MOL    H6938045   0.273   2.881   1.609 -0.8697  1.2006  0.2733
  189MOL    H7038046   8.404   2.836   1.685  0.0258  0.1943  0.3957
  189MOL    H7138047   0.044   2.985   1.621  0.5459  0.8125  0.4481
  189MOL    C7238048   0.114   2.932   1.827 -0.1473  0.2753 -0.1486
  189MOL    C7338049   0.090   2.821   1.923  0.2175  0.0822  0.2136
  189MOL   Cl7438050   8.342   2.815   1.952 -0.2680  0.3457 -0.1759
  189MOL    C7538051   0.185   2.744   1.977 -0.4543 -0.0138 -0.5483
  189MOL    C7638052   0.158   2.634   2.078 -0.2653  0.1137 -0.0323
  189MOL    H7738053   0.062   3.020   1.864 -0.2975  0.7739 -1.4885
  189MOL    H7838054   0.218   2.961   1.840 -0.0195 -1.0244  1.9562
  189MOL    H7938055   0.285   2.765   1.943 -0.5461  0.6054 -0.4525
  189MOL    H8038056   0.051   2.634   2.095 -0.0833  1.2386  1.2065
  189MOL    H8138057   0.196   2.660   2.177  2.4878  0.3981 -1.1052
  189MOL    C8238058   0.226   2.503   2.028 -0.0311 -0.0231  0.0091
  189MOL    C8338059   0.184   2.399   2.132 -0.3381 -0.9052 -0.0266
  189MOL   Cl8438060   0.255   2.427   2.290  0.0551 -0.2171 -0.0230
  189MOL    C8538061   0.108   2.294   2.105 -0.0363 -0.1103 -0.0035
  189MOL    C8638062   0.066   2.189   2.200  0.4865 -0.7703  0.4133
  189MOL    H8738063   0.334   2.514   2.026 -0.0117  0.2156  1.4507
  189MOL    H8838064   0.180   2.473   1.934 -2.0729 -0.7878  1.2263
  189MOL    H8938065   0.077   2.285   2.002  1.0087 -0.4820 -0.2913
  189MOL    H9038066   0.128   2.101   2.183  1.5304  0.0552 -0.1405
  189MOL    H9138067   0.083   2.227   2.301 -0.1022  0.7989 -0.0567
  189MOL    C9238068   8.338   2.155   2.198 -0.2862 -0.2890  0.0191
  189MOL    C9338069   8.308   2.043   2.290  0.1452  0.1260  0.5750
  189MOL   Cl9438070   8.306   2.089   2.453  0.3910  0.1580  0.2488
  189MOL    C9538071   8.291   1.917   2.255  0.3234 -0.2133  0.4656
  189MOL    C9638072   8.308   1.854   2.121 -0.4526 -0.5721 -0.6308
  189MOL    H9738073   8.296   2.144   2.098 -0.9518 -1.8632  0.4585
  189MOL    H9838074   8.284   2.237   2.246 -1.0471 -0.8372  0.1216
  189MOL    H9938075   8.257   1.852   2.334 -0.3970 -1.1630 -0.6124
  189MOL   H10038076   8.359   1.927   2.058  1.6375 -0.5171  1.0879
  189MOL   H10138077   8.373   1.771   2.144  1.5471  1.7471  2.4586
  189MOL   C10238078   8.173   1.817   2.060  0.6670  0.3294  0.2726
  189MOL   C10338079   8.090   1.931   1.994  1.0461  0.0956  0.9135
  189MOL  Cl10438080   8.079   1.931   1.820  0.0472  0.5259 -0.0180
  189MOL   C10538081   8.008   2.011   2.069  0.7354 -0.4184  0.4420
  189MOL   C10638082   7.911   2.112   2.017 -0.4759  0.3621  0.5267
  189MOL   H10738083   8.194   1.757   1.971 -1.5385  0.2635 -0.2305
  189MOL   H10838084   8.118   1.746   2.122 -1.7183  0.0690 -2.0752
  189MOL   H10938085   8.006   2.004   2.177 -0.0631  0.4847  0.4905
  189MOL   H11038086   7.968   2.196   1.978  2.1479 -0.2080  2.9583
  189MOL   H11138087   7.849   2.067   1.939  1.2762 -1.3758  0.1128
  189MOL   C11238088   7.818   2.169   2.126 -0.5400  0.0093  0.2884
  189MOL   C11338089   7.726   2.280   2.080 -0.0419  0.7337 -0.2498
  189MOL  Cl11438090   7.594   2.228   1.982 -0.0934  0.0180  0.0824
  189MOL   C11538091   7.741   2.403   2.116 -0.4561 -0.1034  0.1210
  189MOL   C11638092   7.849   2.470   2.209  0.4051  0.4007 -0.2398
  189MOL   H11738093   7.758   2.084   2.159 -0.7760 -0.4526 -1.2822
  189MOL   H11838094   7.863   2.205   2.218  0.4127 -0.1759 -0.0939
  189MOL   H11938095   7.672   2.472   2.070  1.0391 -0.2462 -2.4188
  189MOL   H12038096   7.940   2.411   2.218 -0.9054 -1.4263  1.2502
  189MOL   H12138097   7.810   2.485   2.309  0.2864 -0.1275 -0.2110
  189MOL   C12238098   7.885   2.610   2.158 -0.0655  0.7225  0.0532
  189MOL   C12338099   7.968   2.694   2.252 -0.2720 -0.1943  0.2514
  189MOL  Cl12438100   8.137   2.683   2.212 -0.0567 -0.0243  0.0695
  189MOL   C12538101   7.920   2.778   2.343  0.4268 -0.2226 -0.5270
  189MOL   C12638102   7.774   2.793   2.383  0.3724 -0.0361 -0.3883
  189MOL   H12738103   7.941   2.604   2.065 -1.3118 -0.4404 -0.6512
  189MOL   H12838104   7.802   2.676   2.136 -0.2790  0.6784  0.7011
  189MOL   H12938105   7.999   2.831   2.393 -0.4094  0.1900  0.3658
  189MOL   H13038106   7.707   2.797   2.298 -0.4611 -1.0874  0.2092
  189MOL   H13138107   7.757   2.698   2.432  2.5500 -0.9785 -1.4003
  189MOL   C13238108   7.731   2.896   2.488 -0.8914 -0.2228  0.0894
  189MOL   C13338109   7.581   2.904   2.496  0.4059 -0.4300 -0.2201
  189MOL  Cl13438110   7.519   2.808   2.627  0.1050  0.3939 -0.0753
  189MOL   C13538111   7.498   2.974   2.415 -0.0974  0.5295 -0.4593
  189MOL   C13638112   7.537   3.074   2.304 -1.5992  0.1852 -0.1406
  189MOL   H13738113   7.775   2.859   2.580  0.0074 -1.7154 -0.9151
  189MOL   H13838114   7.768   2.997   2.472 -0.1348 -0.6616 -1.0113
  189MOL   H13938115   7.391   2.971   2.430 -0.0895  3.3267  0.5558
  189MOL   H14038116   7.642   3.061   2.280 -1.4128 -0.3554  0.9260
  189MOL   H14138117   7.477   3.045   2.217  0.3680 -3.1816 -0.4546
  189MOL   C14238118   7.507   3.226   2.335  0.0117  0.7052 -0.0980
  189MOL   C14338119   7.493   3.313   2.209 -0.3382 -0.5958  0.2159
  189MOL  Cl14438120   7.326   3.380   2.197 -0.0908  0.1958  0.1991
  189MOL   C14538121   7.581   3.328   2.112  0.0289  0.9059 -0.0733
  189MOL   C14638122   7.581   3.413   1.981 -0.3822 -0.0599 -0.0254
  189MOL   H14738123   7.582   3.275   2.396 -1.2647  1.8994  0.5233
  189MOL   H14838124   7.410   3.239   2.384 -0.7998 -3.6906 -0.3122
  189MOL   H14938125   7.670   3.269   2.127  0.0796  1.3567  1.4557
  189MOL   H15038126   7.516   3.495   2.010 -0.9375 -0.5333  0.1015
  189MOL   H15138127   7.678   3.453   1.951 -0.5509  0.5976  0.3179
  189MOL   C15238128   7.514   3.331   1.864  1.0890  0.3018 -0.4291
  189MOL   C15338129   7.518   3.413   1.738  0.1332 -0.1216 -0.2460
  189MOL  Cl15438130   7.562   3.312   1.603 -0.1116  0.2686 -0.0642
  189MOL   C15538131   7.508   3.544   1.713  0.6087 -0.2223 -0.0177
  189MOL   C15638132   7.530   3.616   1.577  0.3678  0.2341  0.2954
  189MOL   H15738133   7.574   3.240   1.860 -0.2854 -0.7341  1.5978
  189MOL   H15838134   7.415   3.307   1.904  1.7901  1.4189  2.0065
  189MOL   H15938135   7.492   3.612   1.795 -2.4462  0.2309 -0.9174
  189MOL   H16038136   7.471   3.575   1.495  0.1697  0.6801  0.2181
  189MOL   H16138137   7.636   3.600   1.556 -0.2728 -2.4122 -1.2705
  189MOL   C16238138   7.505   3.766   1.585  1.0570 -0.3024 -0.1793
  189MOL   C16338139   7.522   3.843   1.458 -0.7904 -0.0046 -0.4966
  189MOL  Cl16438140   7.366   3.907   1.414 -0.0098 -0.2250  0.1064
  189MOL   C16538141   7.639   3.892   1.411 -0.1389 -0.4446  0.1049
  189MOL   C16638142   7.668   3.986   1.296 -0.6434  0.5055 -0.2853
  189MOL   H16738143   7.401   3.774   1.614  1.7728 -0.5791  2.6389
  189MOL   H16838144   7.573   3.802   1.663 -1.1298 -3.3795  3.3116
  189MOL   H16938145   7.724   3.855   1.468 -1.0093 -2.4046  0.1784
  189MOL   H17038146   7.731   3.928   1.229  2.4558  2.6794  0.6412
  189MOL   H17138147   7.575   4.016   1.248 -1.8642 -0.8616  1.1659
  189MOL   C17238148   7.768   4.102   1.341 -0.2416 -0.3775  0.1621
  189MOL   C17338149   7.725   4.172   1.465  0.1465 -0.0330 -0.6015
  189MOL  Cl17438150   7.840   4.149   1.592 -0.1308 -0.1116 -0.1563
  189MOL   C17538151   7.614   4.242   1.487  0.6151 -0.1192 -0.1406
  189MOL   C17638152   7.558   4.309   1.610 -0.2683 -0.4953 -0.5429
  189MOL   H17738153   7.778   4.176   1.262  0.8849 -2.4236 -1.6710
  189MOL   H17838154   7.869   4.069   1.366  0.1549  2.2233  2.1949
  189MOL   H17938155   7.556   4.260   1.398  0.5404 -0.6515 -0.2014
  189MOL   H18038156   7.583   4.416   1.607  1.2537 -0.7556  1.9405
  189MOL   H18138157   7.600   4.265   1.700  0.4517  0.9634 -0.1518
  189MOL   C18238158   7.402   4.284   1.610 -0.3974 -0.5769 -0.4922
  189MOL   C18338159   7.341   4.335   1.741  0.2745 -0.7978  0.1477
  189MOL  Cl18438160   7.413   4.260   1.875 -0.2343 -0.1935  0.1028
  189MOL   C18538161   7.223   4.399   1.741  0.0247  0.3746 -0.2842
  189MOL   C18638162   7.150   4.442   1.866 -0.0766 -0.0165  0.2579
  189MOL   H18738163   7.357   4.347   1.533  2.7280 -0.0829 -1.9672
  189MOL   H18838164   7.366   4.182   1.595  0.1603 -1.2693  2.4042
  189MOL   H18938165   7.178   4.423   1.646 -2.2422  0.4528  0.7638
  189MOL   H19038166   7.062   4.379   1.884 -0.1924  0.3831  1.1257
  189MOL   H19138167   7.212   4.439   1.956 -1.8993  0.2875  1.5737
  189MOL   C19238168   7.101   4.588   1.856  0.3137  0.1859 -0.0091
  189MOL   C19338169   7.070   4.638   1.997 -0.9536 -0.0206  0.1669
  189MOL  Cl19438170   6.903   4.664   2.015 -0.2069 -0.0607 -0.1689
  189MOL   C19538171   7.157   4.679   2.093  0.2444  0.2720  0.0390
  189MOL   C19638172   7.308   4.678   2.072 -1.0976 -0.2447 -0.4550
  189MOL   H19738173   7.009   4.596   1.797  0.3188 -1.0166 -0.1919
  189MOL   H19838174   7.169   4.656   1.804 -3.7997  3.0157 -2.0193
  189MOL   H19938175   7.118   4.709   2.190 -3.1190  1.2200 -1.5502
  189MOL   H20038176   7.363   4.603   2.129 -0.4205  0.2226 -0.4811
  189MOL   H20138177   7.344   4.775   2.106 -0.4243  0.1789 -2.3353
  189MOL   H20238178   7.332   4.658   1.968  3.4011  0.2022  0.3716
  190MOL     C138179   7.163   1.416   7.525  0.5801  0.0623  0.1978
  190MOL     C238180   7.093   1.551   7.538  0.6033 -0.2312 -0.5214
  190MOL    Cl338181   7.186   1.686   7.498 -0.3814  0.1092  0.2718
  190MOL     C438182   6.969   1.570   7.582  0.2083  0.1245 -0.1044
  190MOL     C538183   6.860   1.471   7.620 -0.4940  0.3279 -0.3986
  190MOL     H638184   7.207   1.407   7.426  0.9828  2.4227  0.1385
  190MOL     H738185   7.089   1.337   7.533 -0.5740  1.1918  0.9508
  190MOL     H838186   6.930   1.671   7.587  1.0454  0.5211 -1.4249
  190MOL     H938187   6.773   1.482   7.556 -0.7996 -0.6663 -0.1727
  190MOL    H1038188   6.902   1.371   7.604 -0.2403  0.5931 -1.4064
  190MOL    H1138189   7.237   1.397   7.602  2.9644 -1.1647 -2.3373
  190MOL    C1238190   6.808   1.479   7.769  0.4488  0.1598 -0.2603
  190MOL    C1338191   6.677   1.401   7.778  0.8898  0.8567 -0.0144
  190MOL   Cl1438192   6.545   1.500   7.825 -0.0307  0.2247 -0.3154
  190MOL    C1538193   6.654   1.270   7.762 -0.0602  0.4324  0.0952
  190MOL    C1638194   6.751   1.158   7.734 -0.9562  0.0767  0.2260
  190MOL    H1738195   6.867   1.427   7.845 -0.8640  0.4236  0.9629
  190MOL    H1838196   6.796   1.582   7.802  1.0856  0.0900  0.2144
  190MOL    H1938197   6.553   1.234   7.768  0.2454 -0.6875 -1.2318
  190MOL    H2038198   6.856   1.188   7.728 -1.5125  1.8030 -1.4824
  190MOL    H2138199   6.758   1.078   7.807  0.0706 -1.0703 -1.0879
  190MOL    C2238200   6.714   1.093   7.599 -0.5183  0.6598  0.5388
  190MOL    C2338201   6.822   0.998   7.551  0.5545  0.2215  0.5640
  190MOL   Cl2438202   6.965   1.085   7.515 -0.1392  0.0615 -0.0376
  190MOL    C2538203   6.808   0.867   7.532 -0.3025  0.1492  0.4225
  190MOL    C2638204   6.907   0.771   7.474  0.4370 -0.4379 -0.0998
  190MOL    H2738205   6.622   1.035   7.601 -0.2769  0.2698  0.3890
  190MOL    H2838206   6.711   1.168   7.520 -1.4699  0.5603  0.4774
  190MOL    H2938207   6.712   0.830   7.566  0.2333 -0.4535  1.3185
  190MOL    H3038208   7.009   0.794   7.508 -0.1777  1.6235  0.4036
  190MOL    H3138209   6.882   0.676   7.522 -2.7015 -0.0103 -0.7870
  190MOL    C3238210   6.896   0.750   7.329  0.0532 -0.1076  0.3107
  190MOL    C3338211   7.015   0.673   7.276  0.3030  0.2302  0.3540
  190MOL   Cl3438212   6.958   0.510   7.247 -0.1106 -0.3406 -0.1729
  190MOL    C3538213   7.131   0.718   7.240 -0.3684 -0.0828 -0.1295
  190MOL    C3638214   7.245   0.627   7.189 -0.1884 -0.0767 -0.3229
  190MOL    H3738215   6.804   0.695   7.308  0.8921 -1.5215  0.3453
  190MOL    H3838216   6.893   0.846   7.277  2.2275 -0.7605 -1.0572
  190MOL    H3938217   7.162   0.820   7.256  1.0857 -0.3117 -1.4100
  190MOL    H4038218   7.223   0.542   7.124  1.6453 -1.3913  0.7195
  190MOL    H4138219   7.308   0.689   7.124  1.5718 -0.3435  1.1056
  190MOL    C4238220   7.342   0.577   7.297  0.1941  0.1032 -1.0285
  190MOL    C4338221   7.477   0.522   7.251 -0.3403 -0.4510 -0.1485
  190MOL   Cl4438222   7.485   0.353   7.263 -0.3573  0.5153  0.1248
  190MOL    C4538223   7.584   0.591   7.217 -0.1644 -0.1214 -0.4424
  190MOL    C4638224   7.604   0.744   7.215 -0.0282  0.2479  0.1799
  190MOL    H4738225   7.361   0.654   7.372  0.4613 -0.7645 -0.1802
  190MOL    H4838226   7.294   0.501   7.359  0.8858 -0.5498 -1.2920
  190MOL    H4938227   7.672   0.532   7.193  0.4479  2.2128 -4.5092
  190MOL    H5038228   7.605   0.781   7.113  1.5742 -1.4046 -0.4556
  190MOL    H5138229   7.527   0.791   7.275  1.1478 -1.2462  2.9688
  190MOL    C5238230   7.737   0.796   7.262 -0.2390 -0.0417 -0.2624
  190MOL    C5338231   7.745   0.942   7.273  0.0618  0.5490 -0.5243
  190MOL   Cl5438232   7.905   0.995   7.230 -0.2167  0.0424 -0.0452
  190MOL    C5538233   7.656   1.019   7.332  0.1927 -0.7688 -0.4450
  190MOL    C5638234   7.665   1.166   7.349  0.2920  0.3252  0.0820
  190MOL    H5738235   7.764   0.745   7.355 -1.6406 -2.3846 -1.0973
  190MOL    H5838236   7.811   0.764   7.189 -0.9711 -1.8020 -0.2623
  190MOL    H5938237   7.564   0.982   7.375 -0.2280  0.9983  0.2462
  190MOL    H6038238   7.738   1.208   7.279 -1.4258  0.4872 -1.6363
  190MOL    H6138239   7.573   1.215   7.317 -0.3536  0.2859  1.7895
  190MOL    C6238240   7.697   1.199   7.489  0.1429  0.4133 -0.7798
  190MOL    C6338241   7.701   1.346   7.519  0.0784  0.2401  0.0767
  190MOL   Cl6438242   7.852   1.403   7.460  0.1024 -0.5573  0.2908
  190MOL    C6538243   7.604   1.418   7.580  0.3961  0.4785 -0.0385
  190MOL    C6638244   7.608   1.565   7.605 -0.4507  0.0229  0.4979
  190MOL    H6738245   7.624   1.161   7.560  0.4754  0.1929 -0.5517
  190MOL    H6838246   7.795   1.165   7.522 -0.1953  0.3964  0.2180
  190MOL    H6938247   7.516   1.366   7.616  0.4937  1.2149  1.2632
  190MOL    H7038248   7.596   1.622   7.513  2.0829 -0.6742 -0.3275
  190MOL    H7138249   7.710   1.592   7.634 -0.2992  0.6784 -0.5975
  190MOL    C7238250   7.514   1.609   7.719  0.3096 -0.5955 -0.1917
  190MOL    C7338251   7.542   1.755   7.747 -0.8073  0.7642  0.7235
  190MOL   Cl7438252   7.641   1.779   7.888 -0.4125  0.1880  0.3336
  190MOL    C7538253   7.516   1.858   7.668 -1.1119 -0.4093  0.0199
  190MOL    C7638254   7.577   2.000   7.693  0.0993  0.0496 -0.5982
  190MOL    H7738255   7.518   1.555   7.814 -1.1616 -0.8058 -0.2353
  190MOL    H7838256   7.409   1.599   7.691  0.2892 -2.2344  0.4060
  190MOL    H7938257   7.454   1.850   7.580 -1.8437  0.0472  0.4874
  190MOL    H8038258   7.661   1.999   7.762 -0.5665 -0.1499  0.2163
  190MOL    H8138259   7.500   2.057   7.745 -0.2895 -0.4116 -0.6581
  190MOL    C8238260   7.636   2.070   7.570  0.4800  0.8874  0.6808
  190MOL    C8338261   7.674   2.218   7.589 -0.1629  0.2664  0.3007
  190MOL   Cl8438262   7.840   2.227   7.637 -0.2951  0.2434  0.4955
  190MOL    C8538263   7.611   2.319   7.530  0.6927 -0.6728 -0.5649
  190MOL    C8638264   7.646   2.463   7.514 -0.4430 -1.0762 -0.5879
  190MOL    H8738265   7.578   2.065   7.478  3.2799  0.8793 -1.1369
  190MOL    H8838266   7.719   2.002   7.553 -0.4533 -0.9113  3.0660
  190MOL    H8938267   7.522   2.280   7.484  1.5891 -1.4105 -1.7139
  190MOL    H9038268   7.565   2.521   7.558  0.5805  1.6140 -2.1584
  190MOL    H9138269   7.739   2.477   7.569  0.1574 -2.2541 -1.2841
  190MOL    C9238270   7.656   2.497   7.365 -0.0424  0.3206  0.6731
  190MOL    C9338271   7.631   2.647   7.337 -0.5834 -0.0436  0.8430
  190MOL   Cl9438272   7.466   2.677   7.337 -0.1388  0.0888  0.3001
  190MOL    C9538273   7.723   2.744   7.321  1.0887  0.1605 -0.7920
  190MOL    C9638274   7.869   2.731   7.349 -0.0643  0.2858  0.4553
  190MOL    H9738275   7.572   2.452   7.312  0.7078  1.4794 -1.5602
  190MOL    H9838276   7.754   2.467   7.326 -0.5749  1.6311 -1.6970
  190MOL    H9938277   7.692   2.846   7.303  0.1383  0.0561  0.1617
  190MOL   H10038278   7.890   2.644   7.411  1.1920  1.9116  2.3771
  190MOL   H10138279   7.920   2.719   7.253 -1.0890 -1.3496  0.1069
  190MOL   C10238280   7.917   2.859   7.418 -0.2549  0.1314 -0.1930
  190MOL   C10338281   8.019   2.836   7.523 -0.1976  0.4271  0.0555
  190MOL  Cl10438282   8.164   2.921   7.491 -0.4111  0.0640  0.1158
  190MOL   C10538283   7.996   2.759   7.629 -0.1226 -0.1652  0.6119
  190MOL   C10638284   8.097   2.731   7.743  0.1498  0.1638  0.1073
  190MOL   H10738285   7.947   2.931   7.341 -1.1788 -0.3595 -1.0243
  190MOL   H10838286   7.836   2.899   7.478 -0.2997 -0.3520  0.0702
  190MOL   H10938287   7.903   2.709   7.648  0.7691 -1.3853  1.8546
  190MOL   H11038288   8.188   2.786   7.721 -0.3985  2.4739  3.2131
  190MOL   H11138289   8.060   2.771   7.838  0.4889 -0.1760  0.3818
  190MOL   C11238290   8.112   2.583   7.770 -0.0874  0.6230  0.0915
  190MOL   C11338291   8.199   2.541   7.888  0.4560 -0.3401  0.4721
  190MOL  Cl11438292   8.319   2.656   7.928  0.1928 -0.0129  0.2778
  190MOL   C11538293   8.186   2.425   7.951  0.4870  0.0213 -0.1764
  190MOL   C11638294   8.074   2.328   7.914  0.3779 -0.0441  0.3070
  190MOL   H11738295   8.010   2.554   7.797  0.1729  1.1406  1.6399
  190MOL   H11838296   8.143   2.527   7.682  0.7469  1.0951  0.0849
  190MOL   H11938297   8.256   2.390   8.025  1.0306 -0.7902 -1.0606
  190MOL   H12038298   8.121   2.234   7.942  0.0321  0.3432  2.2819
  190MOL   H12138299   8.046   2.339   7.809  1.9418  3.1251  0.1578
  190MOL   C12238300   7.958   2.352   8.017  0.2036 -0.0012  0.3095
  190MOL   C12338301   7.840   2.260   7.984 -1.2862  0.4035  0.2536
  190MOL  Cl12438302   7.703   2.355   7.939  0.0458 -0.1724 -0.0922
  190MOL   C12538303   7.828   2.128   8.019  0.1329  0.5634  0.7058
  190MOL   C12638304   7.943   2.046   8.092  0.4252 -0.0967  0.7234
  190MOL   H12738305   7.983   2.335   8.122  1.1586  0.9315  0.2342
  190MOL   H12838306   7.924   2.454   8.003  1.5771  0.1658 -1.9346
  190MOL   H12938307   7.731   2.086   7.995  0.8696  0.5980 -2.6426
  190MOL   H13038308   7.977   1.974   8.017 -0.7754 -0.2468  0.3175
  190MOL   H13138309   8.024   2.111   8.125  0.8829  0.7144 -1.8771
  190MOL   C13238310   7.885   1.953   8.202 -0.5926 -0.3946 -0.0732
  190MOL   C13338311   7.987   1.866   8.272 -0.0419  0.4272  0.0671
  190MOL  Cl13438312   8.101   1.956   8.370  0.1958 -0.2918  0.0470
  190MOL   C13538313   7.991   1.729   8.260  0.1830 -0.6074  0.1926
  190MOL   C13638314   7.898   1.633   8.183 -0.0248 -0.0617  0.0195
  190MOL   H13738315   7.848   2.017   8.283 -0.2227  0.1283 -0.3092
  190MOL   H13838316   7.807   1.885   8.169 -1.9238 -0.0582  2.2232
  190MOL   H13938317   8.071   1.679   8.313  0.1883  0.7334  1.4895
  190MOL   H14038318   7.876   1.681   8.088  1.4724 -2.3898 -1.5547
  190MOL   H14138319   7.946   1.544   8.142  2.5697  2.4166 -2.4974
  190MOL   C14238320   7.772   1.600   8.264  0.0720 -0.5157 -0.0900
  190MOL   C14338321   7.800   1.534   8.400  0.5742  0.7152  0.2152
  190MOL  Cl14438322   7.721   1.599   0.114  0.0294 -0.4439 -0.1624
  190MOL   C14538323   7.898   1.444   0.001 -0.2198  0.3891 -0.2365
  190MOL   C14638324   7.934   1.389   0.139  0.6390 -0.5862 -0.3203
  190MOL   H14738325   7.703   1.541   8.204  0.5130 -0.4619 -0.6621
  190MOL   H14838326   7.712   1.690   8.275 -0.1316 -0.6164 -0.3818
  190MOL   H14938327   7.961   1.398   8.348  1.0721 -0.6987  1.4863
  190MOL   H15038328   7.872   1.432   0.219 -2.4873 -1.5101 -2.1600
  190MOL   H15138329   7.920   1.281   0.143 -0.9231 -0.3441  2.4183
  190MOL   C15238330   8.079   1.417   0.166  0.0932  0.2285  0.6412
  190MOL   C15338331   8.114   1.561   0.189 -0.0904 -0.0520 -0.2044
  190MOL  Cl15438332   8.252   1.599   0.092 -0.2884 -0.0434 -0.0856
  190MOL   C15538333   8.049   1.638   0.281 -0.0998  0.0185 -0.9154
  190MOL   C15638334   8.069   1.785   0.305  0.3939  0.3590 -0.5321
  190MOL   H15738335   8.130   1.360   0.244 -0.5542  1.2394  1.8006
  190MOL   H15838336   8.129   1.387   0.074 -0.1452 -0.4231  0.7189
  190MOL   H15938337   7.979   1.586   0.344  3.7408  0.0263  3.6270
  190MOL   H16038338   8.161   1.820   0.258  0.5711 -2.2137 -2.1608
  190MOL   H16138339   8.083   1.800   0.413  1.2427 -0.8624 -0.4659
  190MOL   C16238340   7.945   1.867   0.255 -0.4353  0.3351 -0.0606
  190MOL   C16338341   7.940   2.015   0.278 -0.2947 -0.1994  0.5350
  190MOL  Cl16438342   7.848   2.098   0.163  0.1632 -0.1136  0.2333
  190MOL   C16538343   8.016   2.081   0.366  0.2753  0.0334 -0.5669
  190MOL   C16638344   8.002   2.229   0.388 -0.6851  0.4958 -0.3510
  190MOL   H16738345   7.937   1.854   0.147  0.0711 -0.1958 -0.0410
  190MOL   H16838346   7.852   1.822   0.290  0.6873 -1.2176  1.0153
  190MOL   H16938347   8.087   2.028   0.428 -1.9386 -3.3615 -0.7772
  190MOL   H17038348   7.907   2.268   0.353 -0.8232 -0.5629 -1.1566
  190MOL   H17138349   8.005   2.249   0.495  1.7212  2.5724 -0.7475
  190MOL   C17238350   8.117   2.306   0.322  0.5669  0.2434  0.1337
  190MOL   C17338351   8.114   2.450   0.362  0.4200 -0.3433 -0.2262
  190MOL  Cl17438352   8.273   2.499   0.416 -0.2414  0.1454 -0.0843
  190MOL   C17538353   8.013   2.531   0.362  1.0290 -0.4439  0.5115
  190MOL   C17638354   8.000   2.677   0.402 -0.2287 -0.8050 -1.0310
  190MOL   H17738355   8.125   2.295   0.214  0.6918  0.8150  0.0819
  190MOL   H17838356   8.210   2.269   0.365  0.9408  0.3050 -0.6159
  190MOL   H17938357   7.915   2.496   0.331  0.9711  0.0291  0.1390
  190MOL   H18038358   7.985   2.738   0.314  0.3561  1.3118  0.2994
  190MOL   H18138359   8.094   2.717   0.440 -1.1895 -0.4955  1.1190
  190MOL   C18238360   7.895   2.700   0.507 -0.5838  0.0327  0.2129
  190MOL   C18338361   7.896   2.838   0.565  0.1014 -0.0326 -0.0352
  190MOL  Cl18438362   7.841   2.838   0.730 -0.2782  0.1301 -0.2779
  190MOL   C18538363   7.928   2.947   0.503  0.4769  0.2524  0.4156
  190MOL   C18638364   7.911   3.090   0.557  0.9558  0.4361  0.5308
  190MOL   H18738365   7.795   2.675   0.472 -0.7083 -1.1780  1.3676
  190MOL   H18838366   7.911   2.621   0.581 -3.1297 -0.9722 -0.2682
  190MOL   H18938367   7.959   2.948   0.399  0.0006  0.1779  0.2711
  190MOL   H19038368   7.855   3.100   0.650  0.4660  4.0413 -0.0862
  190MOL   H19138369   8.002   3.135   0.596  1.7116 -2.0115  1.7068
  190MOL   C19238370   7.850   3.185   0.449 -0.1768 -0.0768 -0.1610
  190MOL   C19338371   7.705   3.143   0.421 -0.1074  0.1071  0.1555
  190MOL  Cl19438372   7.611   3.230   0.540 -0.0773 -0.1782  0.0814
  190MOL   C19538373   7.654   3.073   0.315  0.1423 -0.3032 -0.7534
  190MOL   C19638374   7.734   3.009   0.208 -0.0541 -0.0052 -0.1986
  190MOL   H19738375   7.914   3.175   0.361 -1.4363 -0.8554 -0.9919
  190MOL   H19838376   7.858   3.291   0.474  1.3691  0.7339 -3.7970
  190MOL   H19938377   7.547   3.065   0.303 -0.0914  0.5137  0.6510
  190MOL   H20038378   7.699   3.046   0.111 -0.5031 -0.3374 -0.1636
  190MOL   H20138379   7.707   2.904   0.204 -1.4351  0.3591 -0.6635
  190MOL   H20238380   7.841   3.022   0.225 -0.4730  0.9866  1.8391
  191MOL     C138381   7.151   6.538   6.553 -0.9230  0.3874 -0.6441
  191MOL     C238382   7.220   6.521   6.689  0.4764  0.8552 -0.5201
  191MOL    Cl338383   7.142   6.592   6.817  0.1085 -0.2331 -0.0687
  191MOL     C438384   7.339   6.466   6.713 -0.4075 -0.6742 -0.5618
  191MOL     C538385   7.414   6.394   6.605 -0.3618  0.3237 -0.8143
  191MOL     H638386   7.092   6.449   6.530  0.4638 -1.3076  2.1216
  191MOL     H738387   7.229   6.555   6.479  1.8700  1.1750  2.3987
  191MOL     H838388   7.388   6.487   6.807 -1.5282  1.5320 -0.4464
  191MOL     H938389   7.354   6.380   6.515 -0.4379 -0.4728 -0.6449
  191MOL    H1038390   7.504   6.444   6.569  0.5805 -2.0010 -1.8442
  191MOL    H1138391   7.088   6.625   6.567  0.4406  1.1834  0.6946
  191MOL    C1238392   7.466   6.262   6.660  0.0073 -0.3216 -0.1549
  191MOL    C1338393   7.541   6.181   6.560 -0.4781  0.0356 -0.1550
  191MOL   Cl1438394   7.439   6.059   6.496 -0.2851  0.4499  0.1695
  191MOL    C1538395   7.663   6.201   6.508  0.0037  1.0064 -0.0708
  191MOL    C1638396   7.759   6.307   6.530 -0.5789 -0.1266 -0.1025
  191MOL    H1738397   7.536   6.284   6.741 -2.0651  1.6601  1.1560
  191MOL    H1838398   7.387   6.201   6.704  0.6499 -0.2895  1.0534
  191MOL    H1938399   7.697   6.131   6.433  0.4901  0.7735  0.3667
  191MOL    H2038400   7.745   6.334   6.634  0.1044 -0.9293  0.2084
  191MOL    H2138401   7.857   6.259   6.519 -0.2875  0.7100 -1.3154
  191MOL    C2238402   7.746   6.417   6.422  0.6101  0.3380  0.5611
  191MOL    C2338403   7.814   6.542   6.466  1.2141  0.2983  0.4291
  191MOL   Cl2438404   7.701   6.650   6.545  0.4676 -0.2688 -0.1261
  191MOL    C2538405   7.926   6.582   6.414 -0.0173 -0.2833 -0.6564
  191MOL    C2638406   7.990   6.717   6.443  0.2266 -0.5707  0.2145
  191MOL    H2738407   7.788   6.391   6.325 -0.6744 -0.6283  0.2451
  191MOL    H2838408   7.641   6.444   6.407  1.0628  0.9631 -1.6642
  191MOL    H2938409   7.984   6.517   6.350  1.3819 -0.1671  0.4908
  191MOL    H3038410   7.983   6.751   6.546 -1.1190  1.6138 -0.5656
  191MOL    H3138411   8.096   6.706   6.419  1.0488 -0.1280  3.3450
  191MOL    C3238412   7.936   6.839   6.359  0.2706 -0.4928  0.4581
  191MOL    C3338413   7.994   6.978   6.390  0.2580  0.0094 -0.8119
  191MOL   Cl3438414   8.171   6.972   6.409  0.3370 -0.1541  0.1948
  191MOL    C3538415   7.922   7.086   6.408 -0.1687 -1.2989 -0.0174
  191MOL    C3638416   7.980   7.218   6.448  1.0356 -0.2815 -0.4837
  191MOL    H3738417   7.945   6.817   6.252 -0.8117  3.2582 -0.4922
  191MOL    H3838418   7.831   6.839   6.385 -0.5001 -1.6432 -2.4765
  191MOL    H3938419   7.814   7.085   6.395 -0.5416  1.2606  2.4153
  191MOL    H4038420   8.083   7.210   6.483  0.2356 -1.5486  1.6773
  191MOL    H4138421   7.993   7.281   6.360 -2.9162  0.2671 -0.7623
  191MOL    C4238422   7.902   7.292   6.564  0.4955 -0.2693  0.2500
  191MOL    C4338423   7.929   7.242   6.707  0.2711 -0.9880 -0.1351
  191MOL   Cl4438424   8.057   7.325   6.795 -0.1228  0.0089 -0.1245
  191MOL    C4538425   7.851   7.149   6.762 -0.7620  0.1389  0.1972
  191MOL    C4638426   7.727   7.081   6.704 -0.0070  0.0775  0.2729
  191MOL    H4738427   7.936   7.395   6.575  0.1537 -0.0767 -0.4528
  191MOL    H4838428   7.796   7.308   6.544  0.5980  1.2612  0.8842
  191MOL    H4938429   7.877   7.127   6.865  2.6523  1.1872 -0.3712
  191MOL    H5038430   7.695   7.128   6.611  0.8490 -0.4514 -0.2931
  191MOL    H5138431   7.744   6.981   6.666  0.1709  1.0176 -2.1626
  191MOL    C5238432   7.604   7.071   6.800  0.1865 -0.3717  0.5406
  191MOL    C5338433   7.479   7.023   6.730 -0.4122 -0.3746  0.3669
  191MOL   Cl5438434   7.349   7.132   6.758  0.0863 -0.1429  0.2283
  191MOL    C5538435   7.473   6.916   6.638 -0.8053 -0.2673 -0.2104
  191MOL    C5638436   7.348   6.885   6.551 -0.2239 -0.7550  0.4831
  191MOL    H5738437   7.639   6.997   6.873  0.2977 -0.5561  0.3012
  191MOL    H5838438   7.584   7.159   6.861 -1.2568  0.4353 -1.0653
  191MOL    H5938439   7.563   6.860   6.615 -0.6057  0.1774 -0.5271
  191MOL    H6038440   7.326   6.778   6.542 -0.9732 -0.5543 -0.1888
  191MOL    H6138441   7.254   6.921   6.593 -0.3039 -1.2211  0.7132
  191MOL    C6238442   7.352   6.938   6.408  0.7936 -0.2298 -0.1884
  191MOL    C6338443   7.462   6.873   6.320  0.5691 -0.0379 -1.2616
  191MOL   Cl6438444   7.596   6.981   6.301 -0.2749 -0.0854  0.4753
  191MOL    C6538445   7.454   6.742   6.283 -0.4829 -0.1385  0.3393
  191MOL    C6638446   7.551   6.670   6.199 -0.3734  0.2005  0.1737
  191MOL    H6738447   7.253   6.920   6.367  0.5712  1.4780 -0.4570
  191MOL    H6838448   7.364   7.046   6.419  2.2204 -0.1967 -1.7519
  191MOL    H6938449   7.363   6.689   6.308 -1.0006  0.2530 -0.6434
  191MOL    H7038450   7.562   6.569   6.239 -0.2834 -0.6087 -1.8310
  191MOL    H7138451   7.651   6.709   6.216 -0.3773 -0.3702  1.5582
  191MOL    C7238452   7.517   6.655   6.046 -0.0331 -0.2434 -0.2601
  191MOL    C7338453   7.623   6.583   5.964 -0.3368 -0.2804  0.1541
  191MOL   Cl7438454   7.551   6.508   5.825  0.1905 -0.1879 -0.0488
  191MOL    C7538455   7.755   6.576   5.987 -0.0603 -0.2168 -0.4191
  191MOL    C7638456   7.868   6.507   5.906  0.0838  0.0602 -0.6774
  191MOL    H7738457   7.508   6.749   5.992  0.9751 -0.7293 -1.2963
  191MOL    H7838458   7.420   6.610   6.024 -0.8875  0.9806  0.9096
  191MOL    H7938459   7.789   6.619   6.080  1.1975 -0.1322 -0.9159
  191MOL    H8038460   7.961   6.565   5.910  0.3375 -0.4797  2.5155
  191MOL    H8138461   7.848   6.510   5.799  3.9459 -2.4164 -1.5851
  191MOL    C8238462   7.886   6.364   5.947 -0.0067 -0.0877  0.1766
  191MOL    C8338463   8.033   6.324   5.918  0.2622  0.0047 -0.4539
  191MOL   Cl8438464   8.038   6.249   5.757 -0.3803 -0.2273  0.3103
  191MOL    C8538465   8.135   6.309   6.004 -0.2334  0.7003  0.2015
  191MOL    C8638466   8.275   6.247   5.981 -0.8644 -0.5155  0.1365
  191MOL    H8738467   7.819   6.301   5.888 -1.2716  1.1621  0.2448
  191MOL    H8838468   7.849   6.349   6.048 -2.0572  2.4217 -0.1510
  191MOL    H8938469   8.119   6.347   6.104  0.0778 -0.2033  0.6042
  191MOL    H9038470   8.310   6.195   6.070 -0.0797  1.2714  0.8891
  191MOL    H9138471   8.279   6.167   5.907  1.5562  1.5313 -2.0456
  191MOL    C9238472   8.378   6.354   5.941 -0.3936 -0.5668 -0.0235
  191MOL    C9338473   0.091   6.321   6.003 -0.2050  0.0202  0.4670
  191MOL   Cl9438474   0.181   6.218   5.898  0.3099 -0.2261 -0.0967
  191MOL    C9538475   0.152   6.373   6.113 -0.2315  0.1129 -0.6740
  191MOL    C9638476   0.086   6.467   6.212  0.1560 -0.5506  0.5067
  191MOL    H9738477   8.346   6.456   5.961  0.2590  0.1525 -2.4264
  191MOL    H9838478   8.391   6.353   5.833 -3.5594 -1.1336 -0.4521
  191MOL    H9938479   0.256   6.354   6.135 -0.0842  0.9526 -0.6275
  191MOL   H10038480   0.145   6.558   6.207 -0.5566 -0.1040  0.1265
  191MOL   H10138481   8.408   6.501   6.181  0.2531 -0.6990  0.0359
  191MOL   C10238482   0.087   6.415   6.356  0.4977 -0.0391 -0.4371
  191MOL   C10338483   8.408   6.486   6.444 -0.1562 -0.3957 -0.3792
  191MOL  Cl10438484   8.243   6.451   6.403 -0.1359  0.0876  0.3484
  191MOL   C10538485   0.031   6.568   6.543  0.4407  0.5321 -0.0725
  191MOL   C10638486   8.359   6.644   6.642  0.4418 -0.0968  0.1162
  191MOL   H10738487   0.058   6.310   6.364 -0.6110  0.0538 -2.8588
  191MOL   H10838488   0.188   6.398   6.394 -0.3433 -2.3052  0.8941
  191MOL   H10938489   0.138   6.562   6.559  0.4946 -0.2002 -0.6823
  191MOL   H11038490   8.259   6.625   6.603  0.9102 -0.8044 -0.7613
  191MOL   H11138491   8.363   6.585   6.734 -1.3837 -1.8097 -0.8536
  191MOL   C11238492   8.391   6.794   6.660 -0.3093 -0.6134  0.2854
  191MOL   C11338493   8.324   6.859   6.783 -0.1578 -0.3914  0.5683
  191MOL  Cl11438494   8.175   6.947   6.742 -0.1053  0.2366  0.3618
  191MOL   C11538495   8.366   6.861   6.907 -0.5897  0.1716  0.1398
  191MOL   C11638496   0.074   6.799   6.958 -0.1676 -0.2549 -0.0495
  191MOL   H11738497   0.077   6.815   6.660 -0.6333  1.3090 -1.4111
  191MOL   H11838498   8.354   6.844   6.570  0.2616  0.0518  0.4158
  191MOL   H11938499   8.305   6.910   6.981  0.0115 -0.0946  0.8152
  191MOL   H12038500   0.111   6.882   7.017 -1.6897  1.0905 -0.9669
  191MOL   H12138501   0.131   6.776   6.868 -0.7288  3.9113 -1.5440
  191MOL   C12238502   0.046   6.671   7.040  0.7466  0.1186  0.5946
  191MOL   C12338503   0.177   6.612   7.086 -0.4678 -0.0440  0.2037
  191MOL  Cl12438504   0.225   6.663   7.242  0.3386 -0.1448  0.0327
  191MOL   C12538505   0.265   6.542   7.020  0.4121 -0.0915 -0.3954
  191MOL   C12638506   0.247   6.485   6.880  0.0492  0.1823 -0.1832
  191MOL   H12738507   8.405   6.684   7.128  1.1555 -1.6186  1.1709
  191MOL   H12838508   0.000   6.595   6.977 -0.8906 -0.2014  2.1277
  191MOL   H12938509   0.358   6.514   7.068  0.6543 -0.2680 -0.9598
  191MOL   H13038510   0.145   6.449   6.864 -0.7233  1.9992  0.4302
  191MOL   H13138511   0.248   6.567   6.808 -1.9772  0.1616 -0.2724
  191MOL   C13238512   0.355   6.374   6.839 -0.2033 -0.1097  0.3242
  191MOL   C13338513   0.320   6.315   6.706 -0.1215  0.2883 -0.0570
  191MOL  Cl13438514   0.407   6.397   6.579  0.3561  0.0455  0.1406
  191MOL   C13538515   0.251   6.202   6.679  0.2956  0.3978 -0.2795
  191MOL   C13638516   0.168   6.123   6.773 -0.0916 -0.3152  0.6815
  191MOL   H13738517   0.452   6.423   6.829 -0.0454 -0.6753 -0.9911
  191MOL   H13838518   0.359   6.292   6.911  3.5992  0.3253  0.7082
  191MOL   H13938519   0.234   6.155   6.584 -1.2691  0.2153  0.0754
  191MOL   H14038520   0.132   6.174   6.862  0.3366 -0.2246  0.8017
  191MOL   H14138521   0.084   6.092   6.710  1.2527 -1.0347 -0.7906
  191MOL   C14238522   0.231   5.989   6.810 -0.0805  0.0255 -0.2855
  191MOL   C14338523   0.355   6.018   6.900  0.2054 -0.1057  0.3300
  191MOL  Cl14438524   0.307   6.034   7.064 -0.3614  0.1097  0.1107
  191MOL   C14538525   0.481   6.005   6.857 -0.1768  0.6593 -0.2833
  191MOL   C14638526   0.598   6.007   6.940  0.1199  0.3034 -0.2446
  191MOL   H14738527   0.267   5.935   6.722 -0.0981 -0.8417  0.2381
  191MOL   H14838528   0.159   5.924   6.860 -0.2546  1.7748  1.8007
  191MOL   H14938529   0.496   5.984   6.752  0.5204  0.6342 -0.1827
  191MOL   H15038530   0.571   6.039   7.040  0.3294 -1.4391  0.3844
  191MOL   H15138531   0.638   5.908   6.963 -2.5359 -0.5490  0.8962
  191MOL   C15238532   0.709   6.095   6.890  0.0860  0.3027  0.2458
  191MOL   C15338533   0.822   6.100   6.995  0.0090  0.2335  0.1400
  191MOL  Cl15438534   0.908   5.953   6.994  0.0082 -0.1003 -0.0344
  191MOL   C15538535   0.851   6.205   7.068  0.4427  0.1231  0.5412
  191MOL   C15638536   0.952   6.216   7.182 -0.3493  0.6726 -0.1573
  191MOL   H15738537   0.744   6.058   6.793  1.9341  0.7649  0.7144
  191MOL   H15838538   0.657   6.189   6.872 -2.3891 -1.2898 -1.2685
  191MOL   H15938539   0.785   6.289   7.048 -0.6731 -0.9271 -0.2599
  191MOL   H16038540   1.015   6.128   7.173 -0.6597  0.5318 -1.0096
  191MOL   H16138541   0.891   6.214   7.273  0.3809  0.9269  0.3461
  191MOL   C16238542   1.019   6.349   7.170 -0.5966 -0.0219 -0.4200
  191MOL   C16338543   1.131   6.364   7.272 -0.2652 -0.4766 -0.4026
  191MOL  Cl16438544   1.208   6.521   7.248 -0.1721  0.0328  0.2157
  191MOL   C16538545   1.175   6.287   7.373 -0.6979  0.2198  0.0597
  191MOL   C16638546   1.289   6.318   7.466 -1.0720 -0.3022 -0.4088
  191MOL   H16738547   1.052   6.360   7.067 -1.0285 -0.8886 -0.6622
  191MOL   H16838548   0.947   6.427   7.193 -0.2960  0.8780 -2.4722
  191MOL   H16938549   1.122   6.195   7.393  0.3067 -0.4440 -0.3340
  191MOL   H17038550   1.327   6.222   7.501 -1.2044 -0.1110  0.2594
  191MOL   H17138551   1.370   6.375   7.420 -0.0897 -1.3677 -0.0143
  191MOL   C17238552   1.244   6.394   7.595  0.1332  0.7971  0.5057
  191MOL   C17338553   1.329   6.357   7.714 -0.4457  0.0411  0.0946
  191MOL  Cl17438554   1.236   6.364   7.864 -0.3374 -0.1703 -0.1412
  191MOL   C17538555   1.462   6.343   7.712 -0.1490  0.0428  0.4738
  191MOL   C17638556   1.558   6.327   7.830  0.4212  0.3943  0.4068
  191MOL   H17738557   1.140   6.374   7.618  0.6486 -0.5496  1.7869
  191MOL   H17838558   1.257   6.500   7.574 -0.4975  0.6316 -0.7355
  191MOL   H17938559   1.513   6.344   7.616  0.2823 -2.7022  0.6544
  191MOL   H18038560   1.499   6.321   7.922 -0.8608 -0.8223 -0.4614
  191MOL   H18138561   1.602   6.426   7.831 -0.9137  1.1472 -4.1620
  191MOL   C18238562   1.660   6.206   7.822  0.4224  0.5257  0.0770
  191MOL   C18338563   1.738   6.183   7.948 -0.3180  0.3025  0.3463
  191MOL  Cl18438564   1.647   6.069   8.043  0.1600 -0.2148 -0.0212
  191MOL   C18538565   1.843   6.258   7.984  0.5494  0.4816 -0.9192
  191MOL   C18638566   1.923   6.254   8.115  0.6382 -0.3979 -0.9035
  191MOL   H18738567   1.594   6.122   7.804  2.4287 -1.2359  0.8156
  191MOL   H18838568   1.721   6.218   7.732  1.8522  2.0839  1.2121
  191MOL   H18938569   1.869   6.333   7.911 -0.8229  0.1300 -1.7719
  191MOL   H19038570   1.942   6.358   8.139  3.3421 -1.3432  1.3293
  191MOL   H19138571   1.863   6.240   8.205 -1.6377  2.6528 -1.8580
  191MOL   C19238572   2.046   6.166   8.101 -0.2031 -0.3995 -0.1794
  191MOL   C19338573   2.016   6.019   8.121 -0.2152  0.1104  0.1755
  191MOL  Cl19438574   2.015   5.942   7.969  0.0156 -0.1638 -0.0956
  191MOL   C19538575   1.994   5.956   8.235 -0.3421 -0.1889  0.0726
  191MOL   C19638576   1.998   6.017   8.379 -0.3112 -0.3153  0.5138
  191MOL   H19738577   2.116   6.183   8.183  1.3298 -2.1087 -1.1053
  191MOL   H19838578   2.089   6.196   8.006  0.7431  0.8767  0.6376
  191MOL   H19938579   1.969   5.851   8.232  1.8821 -0.7559  0.3667
  191MOL   H20038580   2.058   6.108   8.377  1.6688 -1.6117 -1.3850
  191MOL   H20138581   2.046   5.950   0.029  1.2575 -0.5346 -0.7131
  191MOL   H20238582   1.902   6.050   8.418  0.2220  0.8305  0.8763
  192MOL     C138583   7.536   2.531   6.073  0.3668  0.2975 -0.0751
  192MOL     C238584   7.533   2.554   6.224  0.3385 -0.0565 -0.7084
  192MOL    Cl338585   7.516   2.409   6.312  0.4047 -0.4047  0.0092
  192MOL     C438586   7.558   2.667   6.293 -0.3229 -0.1209  0.3735
  192MOL     C538587   7.578   2.811   6.237  0.8354 -1.0140  1.1483
  192MOL     H638588   7.506   2.617   6.013 -0.6304  0.7104  0.9898
  192MOL     H738589   7.465   2.451   6.051 -0.0011  0.6129 -0.0407
  192MOL     H838590   7.569   2.681   6.400  0.0996  0.3903  0.2693
  192MOL     H938591   7.574   2.808   6.128 -0.3764 -1.0155  1.1854
  192MOL    H1038592   7.490   2.873   6.257  2.3043  1.6293 -0.4055
  192MOL    H1138593   7.635   2.493   6.052  1.2671  0.9744  2.6892
  192MOL    C1238594   7.708   2.879   6.278  0.0602  0.4181  0.6679
  192MOL    C1338595   7.735   3.002   6.204  0.5321 -0.5852 -0.0019
  192MOL   Cl1438596   7.830   2.968   6.061 -0.4381  0.0122 -0.4013
  192MOL    C1538597   7.685   3.122   6.226 -0.3845 -0.2300  0.4322
  192MOL    C1638598   7.594   3.177   6.330 -0.0222 -0.1886 -0.0879
  192MOL    H1738599   7.723   2.904   6.383  2.9550 -0.2085  0.4475
  192MOL    H1838600   7.791   2.810   6.263 -0.2046  0.6038 -1.8588
  192MOL    H1938601   7.724   3.202   6.164  1.4635  0.3124  2.2274
  192MOL    H2038602   7.495   3.180   6.283  0.2879  2.0627 -0.6641
  192MOL    H2138603   7.590   3.109   6.415 -1.2074  1.4335  1.1938
  192MOL    C2238604   7.629   3.314   6.389 -0.1649 -0.0856 -0.1917
  192MOL    C2338605   7.565   3.343   6.521 -0.1541 -0.0611 -0.4387
  192MOL   Cl2438606   7.638   3.260   6.646  0.1196 -0.1162  0.3266
  192MOL    C2538607   7.458   3.426   6.541  0.0073 -0.0475  0.0910
  192MOL    C2638608   7.387   3.445   6.678 -0.0759  0.5679  0.3379
  192MOL    H2738609   7.735   3.313   6.414 -0.0316  0.2306 -0.7322
  192MOL    H2838610   7.593   3.393   6.324 -2.3038 -0.7316  0.1893
  192MOL    H2938611   7.417   3.479   6.456 -0.9071  0.3822  0.7821
  192MOL    H3038612   7.370   3.347   6.723 -0.1614 -0.0502 -1.0114
  192MOL    H3138613   7.443   3.511   6.745  1.0208 -0.2032  0.1930
  192MOL    C3238614   7.241   3.496   6.651 -0.1341  0.0192 -0.2614
  192MOL    C3338615   7.180   3.516   6.787  0.0926  1.0132 -0.6700
  192MOL   Cl3438616   7.090   3.378   6.836  0.4249 -0.3449  0.0075
  192MOL    C3538617   7.197   3.628   6.859 -0.3847  0.2215 -1.1494
  192MOL    C3638618   7.142   3.651   6.996  0.4302  0.4350  1.1838
  192MOL    H3738619   7.240   3.591   6.598 -1.3207  0.1005 -0.1038
  192MOL    H3838620   7.184   3.430   6.586 -1.2254  0.2856  0.4132
  192MOL    H3938621   7.261   3.706   6.818  1.2350  0.2876  1.3906
  192MOL    H4038622   7.099   3.751   6.985 -2.6908 -0.9707  0.1281
  192MOL    H4138623   7.074   3.571   7.024  1.3888 -0.3242  1.3670
  192MOL    C4238624   7.256   3.657   7.100 -0.3584 -0.2510 -0.4978
  192MOL    C4338625   7.214   3.692   7.237 -0.3360 -0.3386 -0.6029
  192MOL   Cl4438626   7.272   3.851   7.273  0.3417  0.0873  0.7925
  192MOL    C4538627   7.139   3.620   7.324  0.1189  0.0601  0.1888
  192MOL    C4638628   7.090   3.484   7.301 -0.4124 -1.2128 -0.8512
  192MOL    H4738629   7.304   3.559   7.106  1.7002  0.7691  0.3893
  192MOL    H4838630   7.339   3.725   7.079 -0.9319  0.4566 -0.4781
  192MOL    H4938631   7.128   3.663   7.423  0.9987  1.1288 -0.1713
  192MOL    H5038632   6.982   3.483   7.290 -0.4999  1.1151 -0.3781
  192MOL    H5138633   7.117   3.445   7.203  1.4959  0.3083 -0.9570
  192MOL    C5238634   7.147   3.384   7.400  0.3246 -0.0543  0.0600
  192MOL    C5338635   7.270   3.304   7.351 -0.4196 -0.9713 -0.4514
  192MOL   Cl5438636   7.418   3.394   7.371 -0.2593  0.0363  0.3745
  192MOL    C5538637   7.263   3.186   7.289 -0.0439 -0.3597  0.3088
  192MOL    C5638638   7.375   3.112   7.226 -0.1167  0.3265 -0.5146
  192MOL    H5738639   7.160   3.426   7.500 -0.0555 -1.5611  0.7573
  192MOL    H5838640   7.082   3.299   7.419  0.8231 -1.0148 -2.4156
  192MOL    H5938641   7.166   3.139   7.282 -0.9495  1.0876  2.4527
  192MOL    H6038642   7.456   3.180   7.203  0.4325  0.0327  0.5014
  192MOL    H6138643   7.409   3.040   7.301  2.0369  0.4343 -1.3668
  192MOL    C6238644   7.324   3.037   7.101 -0.2820 -0.1025 -0.3391
  192MOL    C6338645   7.436   2.991   7.015 -1.6214  0.4849  0.0818
  192MOL   Cl6438646   7.441   3.072   6.865  0.5727  0.5123  0.4348
  192MOL    C6538647   7.526   2.895   7.058 -0.5517  0.9866  0.0980
  192MOL    C6638648   7.637   2.843   6.975 -0.4798  0.1438 -0.1366
  192MOL    H6738649   7.253   2.959   7.129 -0.0405 -0.6210 -1.1565
  192MOL    H6838650   7.263   3.110   7.049  0.1353  0.9963  0.6908
  192MOL    H6938651   7.537   2.845   7.153  0.3877 -0.9574 -0.9978
  192MOL    H7038652   7.731   2.867   7.025  0.9425 -2.1667 -1.6018
  192MOL    H7138653   7.639   2.897   6.880 -0.6387 -0.9728 -0.7751
  192MOL    C7238654   7.629   2.699   6.959  0.2894  0.5158  0.7425
  192MOL    C7338655   7.741   2.636   6.876  0.5266  0.0985 -0.0350
  192MOL   Cl7438656   7.882   2.630   6.971  0.0423  0.3227 -0.0116
  192MOL    C7538657   7.732   2.601   6.746 -0.9756  0.5302  0.0080
  192MOL    C7638658   7.853   2.547   6.657 -0.3454  0.4395 -0.6092
  192MOL    H7738659   7.538   2.667   6.907 -0.4530  0.5858  1.9660
  192MOL    H7838660   7.625   2.638   7.049 -0.6101 -1.2743 -0.4710
  192MOL    H7938661   7.637   2.612   6.696 -0.6352 -0.0095 -0.7833
  192MOL    H8038662   7.867   2.440   6.669 -0.3125  0.3954 -1.0246
  192MOL    H8138663   7.944   2.599   6.686  0.1616  0.0698 -1.5250
  192MOL    C8238664   7.818   2.586   6.516  0.4999  0.0432  0.2031
  192MOL    C8338665   7.920   2.557   6.407 -0.0240  0.3223  0.3734
  192MOL   Cl8438666   8.020   2.696   6.367 -0.2601 -0.2141 -0.2244
  192MOL    C8538667   7.924   2.434   6.350  0.1306 -0.6280  0.0648
  192MOL    C8638668   8.020   2.394   6.242  0.7527 -0.8378  0.1104
  192MOL    H8738669   7.789   2.690   6.502  1.1385 -0.1973 -3.3280
  192MOL    H8838670   7.730   2.528   6.488 -1.2074  2.1722  0.9934
  192MOL    H8938671   7.856   2.359   6.388  0.1286 -0.3500  0.6181
  192MOL    H9038672   8.076   2.487   6.227  0.6697 -0.7533  0.3197
  192MOL    H9138673   8.094   2.320   6.273  0.3181 -1.0472  0.6466
  192MOL    C9238674   7.957   2.341   6.115 -0.7264 -0.0043 -0.5761
  192MOL    C9338675   8.006   2.423   5.994 -0.6433 -0.6824 -0.1369
  192MOL   Cl9438676   7.877   2.532   5.959  0.2266  0.0759  0.7692
  192MOL    C9538677   8.122   2.402   5.931 -0.2917  0.4330  0.2292
  192MOL    C9638678   8.237   2.302   5.960 -0.4696 -0.1407  0.2111
  192MOL    H9738679   7.848   2.338   6.124 -0.5050 -3.9991  1.8642
  192MOL    H9838680   7.991   2.238   6.103  1.3556  0.1548  3.1831
  192MOL    H9938681   8.137   2.469   5.848 -0.2491 -1.7513 -1.5991
  192MOL   H10038682   8.335   2.347   5.971 -0.6094  0.3397 -0.4973
  192MOL   H10138683   8.226   2.247   6.054 -1.8964 -0.5559 -0.1798
  192MOL   C10238684   8.254   2.192   5.856 -0.0352 -0.2663  0.3375
  192MOL   C10338685   8.366   2.094   5.890 -0.2959 -0.0042  0.6176
  192MOL  Cl10438686   8.311   1.969   5.990 -0.0039 -0.0584  0.1563
  192MOL   C10538687   0.072   2.107   5.838 -0.0098  0.0568 -0.2887
  192MOL   C10638688   0.188   2.007   5.875 -0.4455 -0.0760  0.6651
  192MOL   H10738689   8.153   2.151   5.857  0.2033 -0.8658  0.3506
  192MOL   H10838690   8.260   2.241   5.758  1.9949 -2.7260 -0.8313
  192MOL   H10938691   0.098   2.189   5.772  2.9298 -0.0471  0.6529
  192MOL   H11038692   0.270   2.067   5.914 -0.1273 -0.7150  0.9821
  192MOL   H11138693   0.153   1.941   5.954  1.2452 -0.0861  1.4300
  192MOL   C11238694   0.230   1.921   5.760 -0.1609 -0.5948  0.1661
  192MOL   C11338695   0.359   1.849   5.800 -0.6142  0.3174 -0.5884
  192MOL  Cl11438696   0.495   1.920   5.719 -0.1583  0.4347 -0.0220
  192MOL   C11538697   0.370   1.744   5.882  0.3839  0.2258  0.6315
  192MOL   C11638698   0.261   1.678   5.954 -1.0250 -0.5971 -0.3494
  192MOL   H11738699   0.153   1.844   5.759 -0.3108 -0.5869  4.2071
  192MOL   H11838700   0.236   1.988   5.674  1.9477  0.8095  1.3567
  192MOL   H11938701   0.463   1.694   5.905 -0.7218 -1.6676  1.0898
  192MOL   H12038702   0.275   1.585   5.898 -0.8175  0.2478 -1.7024
  192MOL   H12138703   0.160   1.717   5.945 -0.9594 -0.1639  0.7396
  192MOL   C12238704   0.280   1.647   6.103 -0.6075 -0.2960  0.1678
  192MOL   C12338705   0.171   1.559   6.170 -0.8508 -0.1237  0.2260
  192MOL  Cl12438706   0.202   1.397   6.145  0.2611 -0.3960 -0.1766
  192MOL   C12538707   0.048   1.597   6.209  0.0549 -0.4441  0.3767
  192MOL   C12638708   8.404   1.736   6.213  0.4414 -0.2441 -0.0982
  192MOL   H12738709   0.373   1.593   6.115 -0.5779 -0.2917 -0.0406
  192MOL   H12838710   0.278   1.742   6.158  1.3380 -1.1979  1.8310
  192MOL   H12938711   8.404   1.515   6.237  0.4466 -1.1827 -0.8590
  192MOL   H13038712   0.067   1.804   6.200  0.6100 -0.5538 -0.6462
  192MOL   H13138713   8.329   1.746   6.135 -0.4757 -2.2812  0.4716
  192MOL   C13238714   8.343   1.769   6.353 -0.0923  0.0096 -0.4097
  192MOL   C13338715   8.248   1.886   6.329  0.0230 -0.6289 -0.9285
  192MOL  Cl13438716   8.325   2.036   6.367 -0.1763  0.3655  0.2101
  192MOL   C13538717   8.119   1.878   6.295 -0.4311  0.7700 -0.4854
  192MOL   C13638718   8.031   1.750   6.272  0.5339 -0.6580 -0.1728
  192MOL   H13738719   8.292   1.688   6.404  0.5167 -1.6607 -2.4257
  192MOL   H13838720   8.420   1.803   6.422 -1.1956  1.5411  0.1091
  192MOL   H13938721   8.071   1.974   6.283 -0.7721  0.7138  0.3965
  192MOL   H14038722   8.078   1.663   6.317  1.7311  0.2949  0.4503
  192MOL   H14138723   7.933   1.762   6.317  1.2550 -0.5691  1.4078
  192MOL   C14238724   8.009   1.716   6.118  0.4563 -0.4562  0.1699
  192MOL   C14338725   7.965   1.578   6.095 -0.4306 -0.2447 -0.0144
  192MOL  Cl14438726   8.094   1.470   6.058  0.0109 -0.5137 -0.0576
  192MOL   C14538727   7.836   1.529   6.098 -0.1322 -0.1469  0.3186
  192MOL   C14638728   7.790   1.393   6.065 -0.0842  0.0357 -0.9315
  192MOL   H14738729   8.101   1.732   6.061  0.7410  1.7533  1.1998
  192MOL   H14838730   7.952   1.791   6.064 -2.0914  0.1424  3.5104
  192MOL   H14938731   7.759   1.599   6.128 -0.0637 -0.5106  1.3498
  192MOL   H15038732   7.871   1.320   6.055  2.4992  2.5939  0.2783
  192MOL   H15138733   7.735   1.359   6.153  0.5989  2.8156  0.6504
  192MOL   C15238734   7.690   1.379   5.945  0.1350 -0.1895 -0.2280
  192MOL   C15338735   7.657   1.228   5.927  0.0824 -0.2183  0.3847
  192MOL  Cl15438736   7.689   1.161   5.773 -0.5105  0.3109 -0.2318
  192MOL   C15538737   7.585   1.166   6.021  0.1599  1.0627  0.8180
  192MOL   C15638738   7.552   1.023   6.015  0.1901 -0.0838  0.6149
  192MOL   H15738739   7.604   1.442   5.967 -0.8043 -1.4611 -0.1600
  192MOL   H15838740   7.728   1.429   5.857  0.7351  1.9441  1.1982
  192MOL   H15938741   7.545   1.212   6.110  1.9167 -1.0142  2.7391
  192MOL   H16038742   7.559   0.985   5.913  1.0346  1.2784  0.1552
  192MOL   H16138743   7.445   1.018   6.034  0.1997 -0.6326  0.5283
  192MOL   C16238744   7.630   0.936   6.117  0.3450 -0.4528  0.3084
  192MOL   C16338745   7.773   0.925   6.079  0.3535 -0.0460 -0.1352
  192MOL  Cl16438746   7.798   0.789   5.972 -0.1263 -0.2200  0.2435
  192MOL   C16538747   7.872   1.005   6.123 -0.7100  0.3759 -0.4306
  192MOL   C16638748   8.025   0.991   6.101 -1.1782  0.5263 -0.3410
  192MOL   H16738749   7.613   0.976   6.217 -2.6712 -0.4087 -0.1918
  192MOL   H16838750   7.595   0.833   6.113 -0.5747 -0.0937 -1.4201
  192MOL   H16938751   7.842   1.092   6.180  0.5446  1.1397 -0.9048
  192MOL   H17038752   8.074   0.976   6.197 -2.1410  1.8946  0.3846
  192MOL   H17138753   8.044   0.911   6.030 -3.9216  0.2044 -0.7754
  192MOL   C17238754   8.088   1.108   6.032 -0.6083  0.8362  0.2803
  192MOL   C17338755   8.237   1.091   6.005 -0.4222  0.0211 -0.5763
  192MOL  Cl17438756   8.328   1.082   6.150  0.4554 -0.4238 -0.1068
  192MOL   C17538757   8.292   1.064   5.887  0.1236  0.3631  0.3029
  192MOL   C17638758   0.018   1.044   5.857 -0.3275 -0.3069  0.4597
  192MOL   H17738759   8.072   1.200   6.088 -0.0161  0.7324  0.6279
  192MOL   H17838760   8.046   1.133   5.935 -3.1501 -0.3616  1.0403
  192MOL   H17938761   8.227   1.053   5.801  2.3226  0.3671 -1.4300
  192MOL   H18038762   0.034   0.945   5.814  1.6708  0.1001  0.2157
  192MOL   H18138763   0.083   1.034   5.943  1.7034 -1.5480 -1.1757
  192MOL   C18238764   0.081   1.138   5.758 -0.2107  0.3569  0.4022
  192MOL   C18338765   0.229   1.160   5.758 -0.4223  0.2948  0.0243
  192MOL  Cl18438766   0.305   1.017   5.724  0.1275 -0.2320  0.1909
  192MOL   C18538767   0.288   1.280   5.773  0.3792  0.8591 -1.0568
  192MOL   C18638768   0.442   1.318   5.772  0.1104 -0.3725  0.3197
  192MOL   H18738769   0.047   1.119   5.656  1.7893  0.9161 -0.3869
  192MOL   H18838770   0.030   1.233   5.773 -0.6351  0.0562  0.8813
  192MOL   H18938771   0.222   1.363   5.789 -1.5401 -0.5965 -1.2919
  192MOL   H19038772   0.481   1.352   5.868 -0.6093  1.1116  0.1029
  192MOL   H19138773   0.512   1.238   5.748  1.4872  0.1738  2.3636
  192MOL   C19238774   0.467   1.428   5.663  0.6905 -0.0075 -0.1316
  192MOL   C19338775   0.616   1.459   5.653 -0.1603 -0.2355  0.1648
  192MOL  Cl19438776   0.652   1.595   5.755 -0.1619 -0.1026 -0.8542
  192MOL   C19538777   0.708   1.397   5.586 -0.3723  0.0165 -0.0137
  192MOL   C19638778   0.690   1.272   5.495 -0.7393 -0.0560  0.0350
  192MOL   H19738779   0.410   1.520   5.680  0.2445 -0.3412  0.1867
  192MOL   H19838780   0.449   1.385   5.564  0.4839  0.4566 -0.2970
  192MOL   H19938781   0.807   1.438   5.587  0.2971 -1.5702  0.4179
  192MOL   H20038782   0.587   1.236   5.491 -0.3015 -1.6208  1.8195
  192MOL   H20138783   0.762   1.195   5.523 -0.5131 -0.4000 -1.4817
  192MOL   H20238784   0.719   1.306   5.396 -0.9270 -0.0308 -0.0118
  193MOL     C138785   6.579   6.202   2.600  0.3013  0.0730  0.4240
  193MOL     C238786   6.623   6.068   2.550  0.5397 -0.3893 -0.1434
  193MOL    Cl338787   6.642   5.962   2.687  0.0589  0.0463 -0.4642
  193MOL     C438788   6.640   6.029   2.425 -0.1067  1.0189 -0.4600
  193MOL     C538789   6.627   6.108   2.302 -0.4485  0.2501  0.4278
  193MOL     H638790   6.520   6.264   2.533  0.2251 -0.2662  0.1762
  193MOL     H738791   6.674   6.252   2.621  0.8685 -0.4617 -0.8633
  193MOL     H838792   6.662   5.923   2.424 -1.1344  0.7893  0.6474
  193MOL     H938793   6.647   6.214   2.320 -1.2956  0.2533  1.3733
  193MOL    H1038794   6.712   6.073   2.243 -0.6403  0.4605  0.0232
  193MOL    H1138795   6.524   6.188   2.694  0.7008 -0.9119  0.5179
  193MOL    C1238796   6.495   6.093   2.224 -0.1115 -0.2233 -0.2981
  193MOL    C1338797   6.383   6.173   2.291  0.5050 -0.1961 -0.4342
  193MOL   Cl1438798   6.381   6.331   2.234  0.0991  0.1854  0.0179
  193MOL    C1538799   6.289   6.134   2.380 -0.2690  0.2376 -0.0155
  193MOL    C1638800   6.265   5.991   2.432 -0.2918 -0.3798  0.6963
  193MOL    H1738801   6.511   6.122   2.120  1.0373 -2.3415 -0.7426
  193MOL    H1838802   6.470   5.987   2.226  0.4968 -0.3849 -0.9420
  193MOL    H1938803   6.219   6.211   2.409  0.1116  0.9029 -0.8553
  193MOL    H2038804   6.215   5.926   2.360  0.4430  0.2586 -0.4028
  193MOL    H2138805   6.356   5.932   2.448 -0.4516 -0.4390  1.4244
  193MOL    C2238806   6.218   5.984   2.583 -0.5310  0.5310 -0.1105
  193MOL    C2338807   6.189   5.849   2.639 -0.4634  0.8118  0.2020
  193MOL   Cl2438808   6.325   5.776   2.698  0.0369  0.0871  0.1659
  193MOL    C2538809   6.064   5.790   2.643  0.0296  0.3600  0.5256
  193MOL    C2638810   6.036   5.645   2.688 -0.3194 -0.1672  0.1666
  193MOL    H2738811   6.276   6.043   2.655  2.5485 -1.3083 -1.0086
  193MOL    H2838812   6.125   6.041   2.579 -0.6186  0.2771 -2.1305
  193MOL    H2938813   5.968   5.832   2.614 -1.4310 -1.2539  2.8016
  193MOL    H3038814   6.043   5.577   2.603 -0.6744 -2.0602  1.6266
  193MOL    H3138815   6.115   5.613   2.756 -0.4945 -0.9794 -0.0072
  193MOL    C3238816   5.894   5.620   2.753  0.5453  0.3058  0.9749
  193MOL    C3338817   5.890   5.481   2.804 -0.0201 -0.1471  0.1184
  193MOL   Cl3438818   5.824   5.379   2.684 -0.0349  0.3010  0.0541
  193MOL    C3538819   5.912   5.449   2.931  0.3035 -0.7196 -0.0707
  193MOL    C3638820   5.894   5.311   2.990  0.3847 -0.2283 -0.2598
  193MOL    H3738821   5.890   5.692   2.835 -1.4009  1.2992  0.0220
  193MOL    H3838822   5.810   5.641   2.687  2.1437 -0.5218 -1.3757
  193MOL    H3938823   5.945   5.533   2.991  1.5153 -1.9259  0.9660
  193MOL    H4038824   5.900   5.244   2.904 -0.1821 -0.4106 -0.1611
  193MOL    H4138825   5.976   5.291   3.058 -0.8917 -0.3935  1.2709
  193MOL    C4238826   5.757   5.290   3.063 -0.3385 -0.4306  0.0099
  193MOL    C4338827   5.760   5.155   3.141  0.2933  0.0027  0.0746
  193MOL   Cl4438828   5.892   5.139   3.249 -0.1031 -0.0184  0.0721
  193MOL    C4538829   5.671   5.054   3.134 -0.1683 -0.0989 -0.6701
  193MOL    C4638830   5.552   5.056   3.049 -0.9240  0.6636  0.0995
  193MOL    H4738831   5.743   5.371   3.134 -0.5677  0.4178 -0.9980
  193MOL    H4838832   5.667   5.300   3.002 -2.2052  0.0104  2.7780
  193MOL    H4938833   5.694   4.969   3.196 -0.4177 -1.8368 -2.8892
  193MOL    H5038834   5.501   4.969   3.090  0.2789 -0.1303 -0.0637
  193MOL    H5138835   5.487   5.143   3.048 -0.9691  0.6278 -0.6182
  193MOL    C5238836   5.587   5.024   2.902 -0.3773 -0.2332  0.3428
  193MOL    C5338837   5.463   5.038   2.822 -0.1725  0.5355  0.2755
  193MOL   Cl5438838   5.448   5.190   2.742 -0.1847 -0.0821 -0.6037
  193MOL    C5538839   5.383   4.934   2.799  0.5876 -0.3290 -0.6680
  193MOL    C5638840   5.257   4.935   2.708 -0.7605 -0.5619 -0.0942
  193MOL    H5738841   5.660   5.095   2.863 -1.5545  1.2996  0.8735
  193MOL    H5838842   5.624   4.924   2.881  1.5378  1.0175 -2.6743
  193MOL    H5938843   5.402   4.838   2.844  0.2110 -0.3664 -0.5935
  193MOL    H6038844   5.187   4.971   2.784 -0.3487  1.4306 -0.6404
  193MOL    H6138845   5.265   5.017   2.636  0.3164 -0.2440  0.3726
  193MOL    C6238846   5.224   4.797   2.652  0.2500 -0.4412  0.0317
  193MOL    C6338847   5.083   4.770   2.604 -0.5510  0.1663 -0.0548
  193MOL   Cl6438848   5.084   4.681   2.453  0.3234 -0.1309 -0.1016
  193MOL    C6538849   4.971   4.801   2.661 -0.1087 -0.3188  0.1340
  193MOL    C6638850   4.836   4.780   2.600  0.2480  0.2859  0.0493
  193MOL    H6738851   5.289   4.779   2.567  1.3859  1.1813  0.5109
  193MOL    H6838852   5.251   4.722   2.727  2.0221 -0.4675 -0.5913
  193MOL    H6938853   4.982   4.840   2.761  2.8701  0.2371 -0.3814
  193MOL    H7038854   4.847   4.770   2.492  0.0600  0.6443 -0.0034
  193MOL    H7138855   4.779   4.872   2.617  0.5644  0.4302  0.3334
  193MOL    C7238856   4.754   4.657   2.652 -0.1504  0.3899 -0.1798
  193MOL    C7338857   4.620   4.651   2.591  0.6215 -0.0287 -0.2969
  193MOL   Cl7438858   4.502   4.733   2.691  0.2594  0.4277  0.3618
  193MOL    C7538859   4.603   4.597   2.466  0.2487  0.6731  0.4885
  193MOL    C7638860   4.472   4.580   2.390  0.6293  0.9129 -0.2858
  193MOL    H7738861   4.742   4.652   2.761 -0.2687  1.0769 -0.1555
  193MOL    H7838862   4.808   4.568   2.621 -0.0385 -0.0608  1.2706
  193MOL    H7938863   4.687   4.558   2.411 -0.7904 -0.8121 -0.0725
  193MOL    H8038864   4.383   4.618   2.440  0.0879  1.4579 -1.6270
  193MOL    H8138865   4.460   4.474   2.370  0.3773  0.9093 -0.1192
  193MOL    C8238866   4.475   4.624   2.242  0.0099  0.2469 -0.0526
  193MOL    C8338867   4.584   4.727   2.209 -0.4708 -0.2783 -0.4044
  193MOL   Cl8438868   4.546   4.871   2.302 -0.0362 -0.4964 -0.1385
  193MOL    C8538869   4.682   4.713   2.119 -0.2741 -0.1017 -0.5496
  193MOL    C8638870   4.788   4.811   2.072 -0.2301  0.0140 -0.3083
  193MOL    H8738871   4.376   4.667   2.222 -0.8538 -2.3683 -1.5999
  193MOL    H8838872   4.492   4.544   2.171 -0.7780  0.2121 -0.2082
  193MOL    H8938873   4.688   4.618   2.067  2.3973  1.0353 -2.4121
  193MOL    H9038874   4.751   4.910   2.095  0.3778  0.1087  0.2461
  193MOL    H9138875   4.879   4.789   2.127 -0.1733 -1.1172 -0.8256
  193MOL    C9238876   4.807   4.792   1.925 -0.0738 -0.0136 -0.9664
  193MOL    C9338877   4.905   4.890   1.875 -0.1517  0.4563  0.2044
  193MOL   Cl9438878   4.831   5.042   1.870 -0.1432  0.0751  0.1654
  193MOL    C9538879   5.034   4.874   1.837 -0.5024 -0.5576 -0.5074
  193MOL    C9638880   5.115   4.748   1.833  0.2908 -0.1909  0.4692
  193MOL    H9738881   4.707   4.818   1.890 -1.0485 -1.1524  0.8847
  193MOL    H9838882   4.826   4.690   1.893  3.7859  0.6358 -0.9836
  193MOL    H9938883   5.095   4.961   1.820 -0.8321 -0.1597  0.3024
  193MOL   H10038884   5.049   4.662   1.820  0.6438 -0.1250 -1.9745
  193MOL   H10138885   5.180   4.737   1.746 -2.5900  0.4431 -1.8610
  193MOL   C10238886   5.204   4.738   1.951 -0.6318 -0.2058 -0.2224
  193MOL   C10338887   5.237   4.605   2.012  0.5274  0.7588 -0.4235
  193MOL  Cl10438888   5.371   4.526   1.943 -0.1795 -0.0697 -0.4391
  193MOL   C10538889   5.147   4.558   2.103  0.0660 -0.4641  0.7124
  193MOL   C10638890   5.163   4.424   2.173 -0.1663 -0.4810 -0.7070
  193MOL   H10738891   5.293   4.801   1.948 -0.9650  0.1595 -4.4189
  193MOL   H10838892   5.150   4.788   2.033 -2.4025  0.7288 -1.9094
  193MOL   H10938893   5.062   4.619   2.128  1.9693  1.1997  3.3875
  193MOL   H11038894   5.248   4.364   2.142 -0.7962 -2.0448  0.4814
  193MOL   H11138895   5.167   4.452   2.278 -1.0220 -1.0122 -0.5245
  193MOL   C11238896   5.035   4.337   2.171  0.0232 -0.1015 -0.1943
  193MOL   C11338897   5.060   4.194   2.236 -0.3928 -0.9739 -0.0980
  193MOL  Cl11438898   5.110   4.080   2.121 -0.0090 -0.3051  0.2041
  193MOL   C11538899   5.045   4.156   2.365 -0.1795 -0.4972  0.0022
  193MOL   C11638900   4.998   4.251   2.468  0.3552  0.2472 -0.1262
  193MOL   H11738901   4.955   4.391   2.222 -0.6899 -0.6028 -0.7712
  193MOL   H11838902   5.010   4.322   2.066  0.0633 -1.3757 -0.0385
  193MOL   H11938903   5.065   4.053   2.391 -0.8929 -0.2788  1.4507
  193MOL   H12038904   4.890   4.258   2.477  0.3018  0.3780 -0.8116
  193MOL   H12138905   5.032   4.354   2.453  1.1444  0.1420  0.8579
  193MOL   C12238906   5.067   4.212   2.603 -0.0827 -0.4449  0.5254
  193MOL   C12338907   5.050   4.323   2.700  0.3235 -0.4422 -0.1523
  193MOL  Cl12438908   5.190   4.415   2.726  0.8130  0.4991 -0.0612
  193MOL   C12538909   4.940   4.351   2.770 -0.5618 -0.1441  0.1158
  193MOL   C12638910   4.807   4.270   2.754 -0.7628  0.1892 -0.6573
  193MOL   H12738911   5.023   4.123   2.647  1.5158 -0.9021  1.2345
  193MOL   H12838912   5.171   4.179   2.600  0.5929  1.5259  0.8615
  193MOL   H12938913   4.935   4.438   2.833 -2.0615  1.0436 -1.5930
  193MOL   H13038914   4.749   4.322   2.679 -2.0102  1.5785  1.2263
  193MOL   H13138915   4.821   4.176   2.701 -1.0153 -0.0694 -0.2669
  193MOL   C13238916   4.734   4.236   2.889 -0.0546 -0.0262  0.4484
  193MOL   C13338917   4.600   4.170   2.857 -0.0657  0.2377 -0.6083
  193MOL  Cl13438918   4.607   4.007   2.905  0.3868 -0.1207  0.1005
  193MOL   C13538919   4.484   4.229   2.807 -0.3088  0.3083  0.1679
  193MOL   C13638920   4.454   4.370   2.763 -0.6452  0.5713  0.0568
  193MOL   H13738921   4.806   4.182   2.951 -0.1997 -1.2096 -0.4101
  193MOL   H13838922   4.708   4.332   2.934  0.5037  0.5426 -0.4234
  193MOL   H13938923   4.402   4.162   2.787  1.5922 -1.7450 -1.0793
  193MOL   H14038924   4.538   4.438   2.777 -0.4978  0.6008 -0.9705
  193MOL   H14138925   4.449   4.378   2.654  0.4733 -1.7121 -0.1948
  193MOL   C14238926   4.338   4.439   2.824 -0.5944  0.1193  0.2511
  193MOL   C14338927   4.362   4.466   2.971  0.1245 -0.4502 -0.6105
  193MOL  Cl14438928   4.358   4.634   3.007  0.5465  0.0105 -0.2397
  193MOL   C14538929   4.378   4.374   3.065 -0.2416  0.1967 -0.1318
  193MOL   C14638930   4.385   4.391   3.213 -0.0198  0.1993 -0.4359
  193MOL   H14738931   4.244   4.384   2.820 -1.3979  1.5352 -1.6409
  193MOL   H14838932   4.328   4.528   2.760  1.3858  1.2827  1.5160
  193MOL   H14938933   4.382   4.273   3.027  2.1513  0.2545 -0.0778
  193MOL   H15038934   4.474   4.333   3.235  0.4891  1.5703  1.2805
  193MOL   H15138935   4.409   4.493   3.245 -0.9317  0.3484 -0.1937
  193MOL   C15238936   4.265   4.341   3.286  0.2423 -0.0000 -0.3184
  193MOL   C15338937   4.302   4.328   3.432 -0.4214  0.9345 -0.4310
  193MOL  Cl15438938   4.421   4.208   3.454 -0.2227  0.4260  0.2175
  193MOL   C15538939   4.248   4.393   3.536  0.2790  0.2196  0.1252
  193MOL   C15638940   4.280   4.351   3.681 -0.1948  0.1906  0.0425
  193MOL   H15738941   4.179   4.408   3.289  0.8223  0.7167  0.7412
  193MOL   H15838942   4.228   4.246   3.249 -1.3864 -0.1632  1.6369
  193MOL   H15938943   4.170   4.467   3.532 -0.4912 -0.4391  2.1927
  193MOL   H16038944   4.345   4.430   3.718 -1.2153  0.0986  2.0841
  193MOL   H16138945   4.342   4.261   3.685  1.0087  1.0253  0.2038
  193MOL   C16238946   4.157   4.325   3.770 -0.9767  0.8913  0.1816
  193MOL   C16338947   4.191   4.271   3.905  0.7861 -0.2330 -0.4161
  193MOL  Cl16438948   4.190   4.396   4.024  0.4138  0.2521 -0.6396
  193MOL   C16538949   4.220   4.145   3.941  0.2786  0.2189 -0.3738
  193MOL   C16638950   4.245   4.102   4.080 -0.1737  0.4022 -0.3505
  193MOL   H16738951   4.108   4.422   3.784 -1.4151  0.8661 -1.1135
  193MOL   H16838952   4.099   4.252   3.714  0.4455 -0.5755  0.5823
  193MOL   H16938953   4.209   4.070   3.864 -1.2334 -0.2872  0.3127
  193MOL   H17038954   4.227   4.171   4.163 -0.3271  0.1142 -0.1423
  193MOL   H17138955   4.167   4.027   4.095  0.9106 -0.6498  0.1010
  193MOL   C17238956   4.373   4.032   4.097  0.5398  0.6312 -0.1531
  193MOL   C17338957   4.496   4.119   4.059 -0.2054  0.4729 -0.6778
  193MOL  Cl17438958   4.557   4.210   4.197  0.2847 -0.2624  0.2667
  193MOL   C17538959   4.561   4.112   3.943 -0.0489 -0.1049  0.4780
  193MOL   C17638960   4.697   4.181   3.919  0.5018 -0.5800  0.0249
  193MOL   H17738961   4.376   3.935   4.048 -2.5504  1.2556 -1.6546
  193MOL   H17838962   4.386   4.003   4.202  0.3319  0.3617 -0.2029
  193MOL   H17938963   4.521   4.058   3.859  2.4513  1.0350 -1.5230
  193MOL   H18038964   4.712   4.250   4.001  3.6442 -3.0165  1.6366
  193MOL   H18138965   4.693   4.236   3.825  2.8216 -0.3021  0.0609
  193MOL   C18238966   4.815   4.079   3.924 -0.3096  0.0434  0.2545
  193MOL   C18338967   4.950   4.138   3.907 -1.1041  0.3208 -0.4600
  193MOL  Cl18438968   5.066   4.013   3.952  0.2575 -0.0287  0.2337
  193MOL   C18538969   4.985   4.264   3.860 -0.0892 -0.0927 -0.2082
  193MOL   C18638970   5.131   4.322   3.834  0.1801 -0.3055  0.3997
  193MOL   H18738971   4.798   4.028   4.018  0.6520  0.2007  0.5185
  193MOL   H18838972   4.795   3.999   3.852 -1.7457  1.2751 -0.7576
  193MOL   H18938973   4.909   4.339   3.845  0.4694  0.4941 -0.1247
  193MOL   H19038974   5.156   4.403   3.902 -2.2937  0.2946  0.6111
  193MOL   H19138975   5.209   4.246   3.843  0.5827  0.2221  1.4932
  193MOL   C19238976   5.149   4.379   3.699  0.6571  0.0861  0.0063
  193MOL   C19338977   5.293   4.367   3.654 -1.0616 -0.1721 -0.1220
  193MOL  Cl19438978   5.373   4.515   3.684  0.5533 -0.3581 -0.1380
  193MOL   C19538979   5.359   4.254   3.615 -0.0047 -0.5750 -0.4294
  193MOL   C19638980   5.301   4.117   3.605  0.2213  0.0582 -0.0031
  193MOL   H19738981   5.118   4.483   3.684 -1.4769 -0.9470 -3.3754
  193MOL   H19838982   5.096   4.323   3.622  2.4998 -1.1842 -0.3356
  193MOL   H19938983   5.464   4.248   3.591 -0.2404 -1.2036 -1.2924
  193MOL   H20038984   5.311   4.065   3.701  2.3261 -0.4993 -0.5206
  193MOL   H20138985   5.359   4.062   3.532  1.5602  2.0803 -0.4995
  193MOL   H20238986   5.195   4.119   3.580  0.1662 -3.3995 -0.1698
  194MOL     C138987   6.643   5.844   7.401 -0.1388 -0.5017  0.2088
  194MOL     C238988   6.581   5.909   7.520  0.6221  0.4920  0.1490
  194MOL    Cl338989   6.540   5.793   7.639  0.2761  0.0250  0.4597
  194MOL     C438990   6.550   6.038   7.530  0.0072 -0.6377 -0.5961
  194MOL     C538991   6.578   6.155   7.431  0.2045  0.1002  0.4187
  194MOL     H638992   6.623   5.739   7.379  0.1599 -0.1733 -1.7149
  194MOL     H738993   6.748   5.869   7.393 -0.2033  0.1868  1.3536
  194MOL     H838994   6.492   6.064   7.617 -1.7693 -2.0768 -1.3093
  194MOL     H938995   6.584   6.115   7.330 -2.2779  0.1409  0.2201
  194MOL    H1038996   6.501   6.232   7.429 -1.8473 -1.9065  0.1337
  194MOL    H1138997   6.602   5.878   7.306 -0.0381 -0.1798  0.2824
  194MOL    C1238998   6.721   6.219   7.460 -0.1832 -0.6067 -0.0724
  194MOL    C1338999   6.745   6.364   7.418  0.6183  0.4001 -0.5758
  194MOL   Cl1439000   6.788   6.466   7.550 -0.2605 -0.0674 -0.0757
  194MOL    C1539001   6.746   6.409   7.290  0.3145  0.6593  0.4439
  194MOL    C1639002   6.718   6.323   7.158  0.3240  0.0850  1.0344
  194MOL    H1739003   6.739   6.214   7.567  0.3980 -3.8604 -0.2787
  194MOL    H1839004   6.800   6.156   7.417  0.1704  0.3767 -0.8763
  194MOL    H1939005   6.765   6.514   7.274  1.4724  1.2260  4.7223
  194MOL    H2039006   6.729   6.217   7.180 -0.3894 -0.5062 -1.4126
  194MOL    H2139007   6.618   6.330   7.116  0.9008 -1.3903 -0.6531
  194MOL    C2239008   6.813   6.375   7.042 -0.1468  0.4786  0.4242
  194MOL    C2339009   6.822   6.288   6.922 -0.0671  0.1631 -0.3084
  194MOL   Cl2439010   6.707   6.336   6.810  0.2664  0.3741 -0.2890
  194MOL    C2539011   6.923   6.197   6.908  0.3551 -0.5951  0.8213
  194MOL    C2639012   6.951   6.137   6.772 -0.0065  0.1002 -0.1262
  194MOL    H2739013   6.787   6.474   7.004  2.2312  0.1560 -2.2474
  194MOL    H2839014   6.916   6.379   7.077 -0.9991  0.7944  3.0096
  194MOL    H2939015   6.993   6.168   6.985 -0.9872  0.1216  2.3536
  194MOL    H3039016   6.914   6.034   6.770  4.6151 -1.7007  0.8561
  194MOL    H3139017   6.889   6.181   6.694 -0.5169 -0.7430 -0.2123
  194MOL    C3239018   7.096   6.122   6.734 -0.1716 -0.7837  0.2306
  194MOL    C3339019   7.169   5.998   6.787  0.0449 -1.0788 -0.1474
  194MOL   Cl3439020   7.204   6.024   6.954 -0.1710  0.3457  0.4924
  194MOL    C3539021   7.199   5.898   6.715  0.9331  0.4774  0.0925
  194MOL    C3639022   7.277   5.782   6.768 -0.0372  0.3569 -0.5916
  194MOL    H3739023   7.099   6.129   6.626  1.8970  3.7300  0.4918
  194MOL    H3839024   7.146   6.210   6.772  0.0446 -0.2183 -1.3535
  194MOL    H3939025   7.169   5.885   6.612  1.1718 -2.9674  0.3801
  194MOL    H4039026   7.311   5.783   6.872  1.8569 -1.2307 -1.1619
  194MOL    H4139027   7.216   5.696   6.744  1.6284 -0.8648 -0.5658
  194MOL    C4239028   7.415   5.753   6.696 -0.7518  0.3530 -0.2620
  194MOL    C4339029   7.473   5.621   6.752 -0.5967 -0.9316 -0.2264
  194MOL   Cl4439030   7.422   5.486   6.655  0.2511  0.3641  0.1023
  194MOL    C4539031   7.565   5.604   6.842  0.1793  0.7006 -0.2326
  194MOL    C4639032   7.621   5.713   6.931  1.1518  0.2615  0.0132
  194MOL    H4739033   7.404   5.733   6.590  0.0019  0.4145 -0.3555
  194MOL    H4839034   7.479   5.841   6.703  1.6903 -1.3449 -0.6206
  194MOL    H4939035   7.611   5.509   6.867 -1.2274  0.0345 -0.1401
  194MOL    H5039036   7.553   5.798   6.923 -0.6058 -1.0483  0.8999
  194MOL    H5139037   7.608   5.699   7.038 -2.2446  2.0587 -0.1147
  194MOL    C5239038   7.766   5.764   6.898 -0.0288 -0.1135  0.0573
  194MOL    C5339039   7.784   5.826   6.754  0.5317 -0.4470 -0.4112
  194MOL   Cl5439040   7.739   5.989   6.736 -0.0291  0.1077  0.1297
  194MOL    C5539041   7.837   5.756   6.650  0.3125  0.2587  0.6518
  194MOL    C5639042   7.851   5.809   6.511 -1.1544  0.2575 -0.7733
  194MOL    H5739043   7.796   5.851   6.956  1.2311  0.5833 -1.5798
  194MOL    H5839044   7.842   5.688   6.919 -0.0757 -0.3696 -0.6828
  194MOL    H5939045   7.878   5.656   6.646 -1.1289 -0.3191  0.0959
  194MOL    H6039046   7.847   5.918   6.516  0.7767  0.3043  0.6755
  194MOL    H6139047   7.955   5.785   6.488 -1.2404  0.3887 -1.3107
  194MOL    C6239048   7.763   5.736   6.408  0.2878  0.2639  0.4926
  194MOL    C6339049   7.814   5.765   6.268 -0.0227  0.4447 -0.3344
  194MOL   Cl6439050   7.928   5.648   6.216  0.4785  0.0748 -0.0086
  194MOL    C6539051   7.781   5.880   6.206 -0.1452  0.1292  1.1779
  194MOL    C6639052   7.837   5.920   6.070 -0.1208 -0.7112  0.1380
  194MOL    H6739053   7.762   5.629   6.430 -0.5568  0.1664 -0.0135
  194MOL    H6839054   7.657   5.763   6.411  0.0305 -0.7499  0.7466
  194MOL    H6939055   7.702   5.943   6.244  0.8721  1.4297  1.2008
  194MOL    H7039056   7.763   5.937   5.992  0.7180  2.4930 -0.0435
  194MOL    H7139057   7.908   5.844   6.036  0.5105  0.7094 -1.8192
  194MOL    C7239058   7.922   6.042   6.089 -0.3664 -0.4183 -0.0005
  194MOL    C7339059   8.042   6.009   6.178  0.0316  0.5551  0.2467
  194MOL   Cl7439060   8.032   6.073   6.332 -0.3506  0.0476 -0.3654
  194MOL    C7539061   8.151   5.935   6.139  0.3512 -0.1823  0.1152
  194MOL    C7639062   8.265   5.904   6.231 -0.2573  0.1055 -0.3680
  194MOL    H7739063   7.868   6.129   6.126 -2.6718 -1.0783 -1.6878
  194MOL    H7839064   7.937   6.079   5.987  1.8046 -1.5673 -0.1293
  194MOL    H7939065   8.157   5.903   6.036  0.6723 -2.2689  0.7571
  194MOL    H8039066   8.295   5.806   6.193 -1.6587 -0.8750  1.0206
  194MOL    H8139067   8.228   5.891   6.332 -1.3368 -4.0871 -1.2145
  194MOL    C8239068   8.376   6.013   6.237  0.3554 -0.4474  0.6360
  194MOL    C8339069   0.071   5.993   6.327 -0.5041 -0.1684 -0.0798
  194MOL   Cl8439070   0.031   5.919   6.485 -0.2371 -0.0991 -0.1359
  194MOL    C8539071   0.195   6.032   6.284  0.0502  0.2330 -0.1005
  194MOL    C8639072   0.317   6.019   6.375  0.0504  0.1661  0.0026
  194MOL    H8739073   8.323   6.092   6.289  3.6291  2.0430  0.3554
  194MOL    H8839074   8.406   6.036   6.135 -2.1835  0.0355 -0.0372
  194MOL    H8939075   0.213   6.080   6.189  1.4332 -0.4755 -0.1985
  194MOL    H9039076   0.354   6.118   6.401 -0.4126  0.2968  0.1656
  194MOL    H9139077   0.292   5.973   6.471  0.6206 -2.5299 -1.1087
  194MOL    C9239078   0.432   5.953   6.307 -0.0966 -0.1758  0.4474
  194MOL    C9339079   0.562   5.971   6.381 -0.4843  0.1065  0.1462
  194MOL   Cl9439080   0.608   5.842   6.481 -0.1282  0.2218  0.4245
  194MOL    C9539081   0.648   6.073   6.361  0.6576  0.0832  0.5113
  194MOL    C9639082   0.611   6.197   6.282  0.2193 -0.4350 -0.1652
  194MOL    H9739083   0.440   5.992   6.205 -2.6415 -1.2072 -0.1916
  194MOL    H9839084   0.410   5.847   6.294  1.7076 -0.2992 -1.8501
  194MOL    H9939085   0.744   6.069   6.412  0.7279  0.0075  0.3730
  194MOL   H10039086   0.504   6.218   6.276  0.0668 -1.2060 -0.1443
  194MOL   H10139087   0.649   6.275   6.348 -2.4281 -0.5210  1.5308
  194MOL   C10239088   0.679   6.211   6.146 -0.1693 -0.2205 -0.2005
  194MOL   C10339089   0.684   6.358   6.089  0.0353 -0.4340  0.1514
  194MOL  Cl10439090   0.528   6.399   6.027 -0.2016  0.6623  0.1940
  194MOL   C10539091   0.794   6.425   6.072  0.4793  0.4407  0.1012
  194MOL   C10639092   0.813   6.555   5.989 -0.2871  0.2190 -0.1233
  194MOL   H10739093   0.783   6.179   6.150 -0.3051 -0.5144  1.4778
  194MOL   H10839094   0.632   6.145   6.072 -1.5024  0.4389  0.0361
  194MOL   H10939095   0.883   6.384   6.117  0.0833  1.0358  1.4471
  194MOL   H11039096   0.718   6.577   5.940  0.3419  0.6414 -1.1771
  194MOL   H11139097   0.832   6.641   6.053  0.5346  0.9957 -1.3793
  194MOL   C11239098   0.917   6.543   5.877  0.9991 -0.1066  0.1266
  194MOL   C11339099   1.052   6.500   5.923  0.4320  0.3351  0.5175
  194MOL  Cl11439100   1.138   6.617   6.008 -0.1239  0.1972 -0.0692
  194MOL   C11539101   1.111   6.378   5.905 -0.2030  0.3060  0.8539
  194MOL   C11639102   1.053   6.264   5.827  0.8362 -0.4003 -0.1473
  194MOL   H11739103   0.883   6.487   5.790  1.0755  0.8614 -0.5399
  194MOL   H11839104   0.923   6.643   5.835 -1.9606  0.0855  0.0251
  194MOL   H11939105   1.212   6.360   5.940  0.3219 -0.3537 -0.9408
  194MOL   H12039106   1.133   6.227   5.762  0.2917 -1.5164 -0.1914
  194MOL   H12139107   0.982   6.294   5.751  0.5904 -0.1016  0.1965
  194MOL   C12239108   1.001   6.151   5.916  0.1816 -0.3573  0.3637
  194MOL   C12339109   0.904   6.058   5.847  0.3483  0.8810 -0.4563
  194MOL  Cl12439110   0.746   6.124   5.833  0.2934  0.3018  0.0388
  194MOL   C12539111   0.921   5.925   5.837 -0.1768  0.5227 -0.0863
  194MOL   C12639112   1.039   5.835   5.873 -0.0613 -0.5103  0.9712
  194MOL   H12739113   1.090   6.097   5.949  2.2639 -0.5128 -4.9799
  194MOL   H12839114   0.955   6.189   6.007  1.3913  0.3095  0.7144
  194MOL   H12939115   0.838   5.866   5.800 -0.1601 -0.4879  1.4625
  194MOL   H13039116   1.050   5.762   5.793 -1.3319 -2.4246  2.4762
  194MOL   H13139117   1.132   5.892   5.879  1.4244 -2.9317  1.7885
  194MOL   C13239118   1.014   5.753   6.005 -0.1391 -0.2690 -0.2935
  194MOL   C13339119   0.981   5.834   6.131  0.3223  0.3470  0.0975
  194MOL  Cl13439120   0.813   5.827   6.168  0.2354 -0.0494 -0.1146
  194MOL   C13539121   1.063   5.914   6.204  0.1304 -0.1588 -1.0027
  194MOL   C13639122   1.206   5.943   6.182  0.1716 -0.2299 -0.1384
  194MOL   H13739123   0.937   5.685   5.970  1.3504  0.1469 -4.6953
  194MOL   H13839124   1.108   5.698   6.005 -0.7215 -1.2671 -0.4161
  194MOL   H13939125   1.027   5.972   6.288  0.3296  0.0706 -1.0730
  194MOL   H14039126   1.236   5.899   6.087  0.9988 -0.3023  0.1495
  194MOL   H14139127   1.228   6.048   6.163 -0.0418 -0.5997 -2.6194
  194MOL   C14239128   1.292   5.884   6.289  0.1963  0.4332  0.2218
  194MOL   C14339129   1.420   5.957   6.313 -0.1889 -0.0382 -0.3779
  194MOL  Cl14439130   1.426   6.036   6.462 -0.2773 -0.4000 -0.1899
  194MOL   C14539131   1.528   5.970   6.231  0.3887  0.0110 -0.3021
  194MOL   C14639132   1.654   6.045   6.256 -0.1435 -0.1021  0.3516
  194MOL   H14739133   1.322   5.784   6.256  0.2094  0.7156 -0.6111
  194MOL   H14839134   1.242   5.851   6.381 -0.4216  4.0367  1.2344
  194MOL   H14939135   1.525   5.927   6.132 -0.2439 -1.6013  0.3972
  194MOL   H15039136   1.652   6.147   6.218  1.9073 -0.4387 -0.7739
  194MOL   H15139137   1.673   6.061   6.362 -0.1477  1.6713  0.1053
  194MOL   C15239138   1.783   5.972   6.218  0.0429 -0.7529  0.2375
  194MOL   C15339139   1.902   6.066   6.247 -0.4175 -0.0521 -0.0959
  194MOL  Cl15439140   1.968   6.044   6.403 -0.0435 -0.5503  0.5928
  194MOL   C15539141   1.959   6.140   6.152 -0.1173  0.5144  0.2336
  194MOL   C15639142   2.084   6.219   6.174  0.7431 -0.3664 -0.4435
  194MOL   H15739143   1.789   5.883   6.281 -0.0279  0.2398  1.6690
  194MOL   H15839144   1.791   5.944   6.113  0.8955  2.7240 -0.6761
  194MOL   H15939145   1.925   6.140   6.050  1.6386  0.0489 -0.3622
  194MOL   H16039146   2.130   6.206   6.272 -2.9258  0.5120  1.4429
  194MOL   H16139147   2.065   6.325   6.159  1.0401 -0.1778  0.4793
  194MOL   C16239148   2.202   6.172   6.088 -0.9142 -0.2880  0.6587
  194MOL   C16339149   2.307   6.276   6.080  0.2672 -0.8978  0.2597
  194MOL  Cl16439150   2.420   6.235   5.959 -0.3816  0.2873  0.2497
  194MOL   C16539151   2.321   6.383   6.157  0.0631 -0.2862 -0.1098
  194MOL   C16639152   2.431   6.484   6.146 -0.8021  0.2244  0.4306
  194MOL   H16739153   2.248   6.083   6.130 -1.5875  0.1567  2.4012
  194MOL   H16839154   2.158   6.152   5.990 -0.4323 -0.8974  0.5665
  194MOL   H16939155   2.251   6.399   6.237 -0.7655  0.5834 -0.9816
  194MOL   H17039156   2.498   6.458   6.064  1.6424  1.7649  1.8880
  194MOL   H17139157   2.393   6.586   6.151  0.2663  0.5757  1.6701
  194MOL   C17239158   2.516   6.467   6.271 -0.0735  0.2437 -0.4972
  194MOL   C17339159   2.642   6.557   6.263 -0.7928  0.2402 -0.0710
  194MOL  Cl17439160   2.647   6.662   6.390 -0.3921 -0.2089 -0.1518
  194MOL   C17539161   2.732   6.552   6.166  0.6493  0.5710 -0.4914
  194MOL   C17639162   2.853   6.633   6.149  0.1376  0.1945  0.0371
  194MOL   H17739163   2.552   6.365   6.280 -2.0404 -0.5287 -1.1210
  194MOL   H17839164   2.448   6.496   6.351  0.9165 -0.1568  0.4935
  194MOL   H17939165   2.712   6.471   6.098 -0.6506 -0.7408  1.4437
  194MOL   H18039166   2.862   6.702   6.233  3.7196 -2.4184  1.9428
  194MOL   H18139167   2.834   6.681   6.053 -3.2939 -1.5328 -0.1920
  194MOL   C18239168   2.990   6.552   6.154 -0.3061  0.0156  0.7067
  194MOL   C18339169   3.111   6.630   6.128 -0.4625  0.5319 -0.0568
  194MOL  Cl18439170   3.157   6.735   6.255 -0.2473 -0.0524  0.2989
  194MOL   C18539171   3.172   6.633   6.005  0.5569 -0.3682  0.1346
  194MOL   C18639172   3.287   6.723   5.972  0.4167  0.7428 -0.1343
  194MOL   H18739173   3.003   6.509   6.253 -0.1984  1.6112  1.4013
  194MOL   H18839174   2.983   6.467   6.086  0.2409  1.1890 -0.8460
  194MOL   H18939175   3.137   6.574   5.922  2.2718 -0.3132 -0.6330
  194MOL   H19039176   3.250   6.810   5.919 -1.3164  0.5643  0.7289
  194MOL   H19139177   3.324   6.774   6.062 -0.8358  2.5333 -0.6085
  194MOL   C19239178   3.396   6.653   5.883  0.8433  0.1371 -0.3299
  194MOL   C19339179   3.436   6.522   5.946  0.4458 -0.3571 -0.3798
  194MOL  Cl19439180   3.504   6.542   6.110 -0.2393 -0.1512  0.2791
  194MOL   C19539181   3.418   6.398   5.890  0.0699 -0.2222  0.0583
  194MOL   C19639182   3.353   6.365   5.759  0.3865 -0.0950  0.0152
  194MOL   H19739183   3.485   6.715   5.880 -1.3913  3.6277  1.1037
  194MOL   H19839184   3.360   6.646   5.780 -1.1093  0.5067  0.3050
  194MOL   H19939185   3.458   6.315   5.947  1.7114  0.5670  0.0761
  194MOL   H20039186   3.433   6.349   5.687  0.1159 -0.7501 -0.1382
  194MOL   H20139187   3.282   6.434   5.716 -0.5579 -0.8805  0.2952
  194MOL   H20239188   3.292   6.276   5.771 -0.0938  0.3470  0.8996
  195MOL     C139189   1.358   6.684   6.649  0.1757  0.8124 -0.1465
  195MOL     C239190   1.246   6.630   6.741  0.4657 -0.2640 -0.3420
  195MOL    Cl339191   1.277   6.673   6.906 -0.4040  0.0672 -0.0253
  195MOL     C439192   1.133   6.568   6.701  0.1082 -0.7232 -1.1527
  195MOL     C539193   1.100   6.519   6.564  0.3457  0.0303  0.5793
  195MOL     H639194   1.371   6.785   6.688  0.6538  1.0895 -1.0078
  195MOL     H739195   1.342   6.672   6.542 -0.8068 -1.1145  0.1899
  195MOL     H839196   1.056   6.558   6.777  1.4933  1.1047  0.5413
  195MOL     H939197   0.993   6.537   6.554  0.3312  1.2044  2.5546
  195MOL    H1039198   1.144   6.573   6.480  0.2159 -1.7695 -0.6627
  195MOL    H1139199   1.452   6.632   6.667 -0.7539 -0.3231  1.5218
  195MOL    C1239200   1.137   6.371   6.536 -0.4956  0.3192 -0.6261
  195MOL    C1339201   1.110   6.326   6.395 -1.0007  0.3585  0.3609
  195MOL   Cl1439202   0.944   6.270   6.381  0.3973 -0.2993 -0.2439
  195MOL    C1539203   1.200   6.333   6.293  0.1870  0.3192 -0.0342
  195MOL    C1639204   1.341   6.383   6.310 -0.1048  0.3766  0.6448
  195MOL    H1739205   1.242   6.352   6.559 -0.6568 -0.0176 -0.1499
  195MOL    H1839206   1.080   6.310   6.607 -1.1537  2.2166  0.5306
  195MOL    H1939207   1.171   6.299   6.195 -1.4316 -1.6882  1.0742
  195MOL    H2039208   1.357   6.438   6.403 -0.3431 -1.6765  1.9571
  195MOL    H2139209   1.411   6.299   6.307  0.7073  1.0258  1.2936
  195MOL    C2239210   1.379   6.482   6.197 -0.3242  0.2144 -0.5277
  195MOL    C2339211   1.522   6.530   6.205  0.2951  0.1387 -0.0478
  195MOL   Cl2439212   1.640   6.421   6.150  0.1980  0.4380  0.2655
  195MOL    C2539213   1.560   6.648   6.249  0.4442 -0.1628 -0.0848
  195MOL    C2639214   1.694   6.706   6.247 -0.8318 -0.2678  0.3638
  195MOL    H2739215   1.368   6.439   6.098  0.0963  2.1566 -1.4393
  195MOL    H2839216   1.314   6.569   6.207  0.9161  1.2117 -1.0114
  195MOL    H2939217   1.495   6.725   6.287 -1.1248 -1.9367  0.9048
  195MOL    H3039218   1.739   6.681   6.344  1.4461  0.1296 -0.5593
  195MOL    H3139219   1.756   6.651   6.176 -2.4111 -1.4954 -0.0982
  195MOL    C3239220   1.702   6.853   6.224  0.7943 -0.3808  0.2131
  195MOL    C3339221   1.846   6.902   6.218  0.2989 -0.3714  0.4005
  195MOL   Cl3439222   1.854   7.066   6.176  0.2218  0.3854 -0.0535
  195MOL    C3539223   1.957   6.825   6.233 -0.1340  0.3963  0.0311
  195MOL    C3639224   2.103   6.859   6.228 -0.1885  0.2761 -0.0179
  195MOL    H3739225   1.651   6.883   6.132 -0.2793 -0.1082  0.8921
  195MOL    H3839226   1.651   6.908   6.303  1.7214 -2.1067  2.0423
  195MOL    H3939227   1.938   6.726   6.272  2.4555 -0.3662 -0.5455
  195MOL    H4039228   2.130   6.964   6.218  0.3996  0.1481  0.2090
  195MOL    H4139229   2.154   6.820   6.316 -1.0055  2.6519  1.5386
  195MOL    C4239230   2.171   6.788   6.105  0.5199 -0.4001 -0.4925
  195MOL    C4339231   2.133   6.855   5.975 -0.6363 -1.1621  0.4526
  195MOL   Cl4439232   2.230   6.995   5.952 -0.2181 -0.4281  0.4488
  195MOL    C4539233   2.030   6.830   5.889 -0.3559 -0.1526 -0.9410
  195MOL    C4639234   1.933   6.714   5.886 -0.0243 -0.3294 -0.5404
  195MOL    H4739235   2.280   6.789   6.093  0.7220 -2.6074  1.0558
  195MOL    H4839236   2.143   6.684   6.120  2.3950 -0.7074  1.0091
  195MOL    H4939237   2.024   6.891   5.799 -0.9464  1.1307 -0.0566
  195MOL    H5039238   1.963   6.644   5.964  0.1638 -0.8392 -1.0641
  195MOL    H5139239   1.833   6.749   5.909  0.0467 -1.4379  1.6177
  195MOL    C5239240   1.930   6.635   5.755 -0.7395 -0.0052 -0.2794
  195MOL    C5339241   1.859   6.504   5.765  0.1093 -0.2740 -0.3437
  195MOL   Cl5439242   1.966   6.380   5.822  0.1925  0.1145  0.1899
  195MOL    C5539243   1.734   6.479   5.736 -0.1074 -0.9424  0.1046
  195MOL    C5639244   1.662   6.348   5.743  0.2719  0.4802  0.6652
  195MOL    H5739245   1.898   6.690   5.666 -0.3611 -0.8343 -0.9327
  195MOL    H5839246   2.032   6.600   5.736 -0.3238  0.8892  0.2727
  195MOL    H5939247   1.683   6.567   5.700  0.8133 -0.2812  0.3993
  195MOL    H6039248   1.679   6.305   5.644 -0.8034  2.8480 -0.5840
  195MOL    H6139249   1.720   6.281   5.806 -0.6099 -0.6754  0.2529
  195MOL    C6239250   1.510   6.365   5.776  0.0534 -0.3921  0.0394
  195MOL    C6339251   1.456   6.225   5.787 -0.2896 -0.5360  0.1822
  195MOL   Cl6439252   1.417   6.186   5.948 -0.4484 -0.3178  0.5279
  195MOL    C6539253   1.445   6.130   5.685  0.7051 -0.4064 -0.3167
  195MOL    C6639254   1.407   5.990   5.707 -0.4299  0.1522 -0.4285
  195MOL    H6739255   1.499   6.425   5.867  0.9512  1.4207 -1.0063
  195MOL    H6839256   1.445   6.410   5.700 -0.6004 -1.7447 -0.2149
  195MOL    H6939257   1.469   6.154   5.583 -0.2440 -4.0231 -1.4726
  195MOL    H7039258   1.343   5.986   5.795 -0.4736  0.9476 -0.4218
  195MOL    H7139259   1.501   5.943   5.737 -0.5460 -0.7933 -1.4977
  195MOL    C7239260   1.365   5.927   5.570  0.0154 -0.7107  0.4399
  195MOL    C7339261   1.397   5.780   5.561  0.1011  0.2473 -0.3951
  195MOL   Cl7439262   1.560   5.747   5.532  0.0932 -0.0200 -0.1257
  195MOL    C7539263   1.296   5.690   5.577  0.0619  0.1922  0.0654
  195MOL    C7639264   1.319   5.537   5.566 -0.7952 -0.0351  0.6788
  195MOL    H7739265   1.412   5.985   5.491  0.5321  0.6407  1.7198
  195MOL    H7839266   1.257   5.936   5.557  0.3100 -0.4219 -1.9155
  195MOL    H7939267   1.195   5.713   5.610  0.4939  0.9636  0.8661
  195MOL    H8039268   1.413   5.504   5.611 -0.1485  0.5462 -0.2105
  195MOL    H8139269   1.323   5.508   5.461  1.6763 -3.5722  1.6563
  195MOL    C8239270   1.196   5.459   5.624  0.5531 -0.0006  0.3486
  195MOL    C8339271   1.198   5.323   5.553  0.5429  0.2914 -0.1799
  195MOL   Cl8439272   1.084   5.305   5.422 -0.3747  0.2754 -0.3542
  195MOL    C8539273   1.292   5.235   5.594 -0.2730  0.5657 -0.4124
  195MOL    C8639274   1.300   5.098   5.528  0.5425 -0.3025  0.1494
  195MOL    H8739275   1.100   5.506   5.602  0.5747 -0.5006 -0.8710
  195MOL    H8839276   1.200   5.441   5.731 -1.9005  1.0345  0.6454
  195MOL    H8939277   1.358   5.258   5.677 -0.2766  0.0722 -0.2693
  195MOL    H9039278   1.207   5.076   5.476  0.8151 -1.0010 -0.0527
  195MOL    H9139279   1.377   5.116   5.453  1.0620 -2.4235  0.1525
  195MOL    C9239280   1.361   4.995   5.628 -0.7827 -0.4683  0.0099
  195MOL    C9339281   1.394   4.871   5.547 -0.2069  0.2322  0.0290
  195MOL   Cl9439282   1.567   4.841   5.521 -0.2568 -0.0155 -0.2748
  195MOL    C9539283   1.298   4.795   5.490 -0.0659 -0.2141 -0.1286
  195MOL    C9639284   1.151   4.805   5.518 -1.0198  0.1423  0.6878
  195MOL    H9739285   1.287   4.981   5.706  1.7769  0.8550  2.7499
  195MOL    H9839286   1.454   5.029   5.674 -0.8558  0.6216 -0.6415
  195MOL    H9939287   1.330   4.715   5.424  0.0991  1.6567 -2.3792
  195MOL   H10039288   1.130   4.886   5.588 -0.6674  0.5097  0.3719
  195MOL   H10139289   1.112   4.829   5.420 -0.1675  1.8867  0.7469
  195MOL   C10239290   1.096   4.674   5.567  0.1819 -0.1279  0.5416
  195MOL   C10339291   0.943   4.682   5.566  0.3911 -0.1926  1.0085
  195MOL  Cl10439292   0.887   4.700   5.724 -0.0226 -0.4103  0.3705
  195MOL   C10539293   0.870   4.673   5.455 -0.3511 -0.7509  0.2756
  195MOL   C10639294   0.717   4.665   5.445 -0.4134 -0.6523  0.5737
  195MOL   H10739295   1.129   4.584   5.515  0.9258 -0.3982  1.4673
  195MOL   H10839296   1.121   4.660   5.672 -0.9642 -1.2578  0.6706
  195MOL   H10939297   0.932   4.673   5.366 -0.2935  1.2867  0.2945
  195MOL   H11039298   0.689   4.618   5.539  0.9516 -0.0336  1.3119
  195MOL   H11139299   0.681   4.768   5.440 -0.9160 -0.9075 -1.1516
  195MOL   C11239300   0.656   4.600   5.324  0.2819  0.1346  0.2195
  195MOL   C11339301   0.510   4.630   5.309 -0.4338  0.3584 -0.0428
  195MOL  Cl11439302   0.404   4.528   5.397  0.0612 -0.2391  0.0023
  195MOL   C11539303   0.461   4.724   5.227  0.3259  0.5576 -0.3142
  195MOL   C11639304   0.543   4.828   5.154  0.4123  0.2260  0.0441
  195MOL   H11739305   0.713   4.617   5.233 -1.7737 -0.5957 -1.2419
  195MOL   H11839306   0.668   4.492   5.323  2.6414  0.3850 -0.1307
  195MOL   H11939307   0.355   4.734   5.211  0.4884  0.9818 -1.1701
  195MOL   H12039308   0.643   4.788   5.136  0.1229 -0.5802  0.2028
  195MOL   H12139309   0.556   4.921   5.210  0.1841 -0.9466  2.0928
  195MOL   C12239310   0.482   4.871   5.025 -0.5310  0.0182 -0.0613
  195MOL   C12339311   0.572   4.969   4.950 -0.3052  0.3550 -0.2059
  195MOL  Cl12439312   0.664   4.889   4.834 -0.3003 -0.4284 -0.3198
  195MOL   C12539313   0.557   5.101   4.958  0.0800 -0.4875  0.1118
  195MOL   C12639314   0.450   5.166   5.047 -0.1611 -0.5238  0.1618
  195MOL   H12739315   0.473   4.784   4.959  0.8204 -0.3424  0.2094
  195MOL   H12839316   0.379   4.905   5.042 -0.4600 -0.3647  1.2002
  195MOL   H12939317   0.599   5.170   4.887 -3.3148  2.0096  0.4268
  195MOL   H13039318   0.354   5.166   4.994 -0.1031 -1.0263  0.0544
  195MOL   H13139319   0.444   5.107   5.138  1.3348 -0.5772  0.2246
  195MOL   C13239320   0.490   5.311   5.084  0.1380  0.0693 -0.0925
  195MOL   C13339321   0.382   5.374   5.170  0.7698 -0.1884  0.0110
  195MOL  Cl13439322   0.440   5.409   5.329  0.0145 -0.1869 -0.0307
  195MOL   C13539323   0.253   5.396   5.140  0.9729 -0.1122 -0.1720
  195MOL   C13639324   0.189   5.385   5.007 -0.4371  0.5361 -0.2575
  195MOL   H13739325   0.589   5.316   5.128  1.2224 -1.1851 -2.2715
  195MOL   H13839326   0.497   5.362   4.988 -1.7768 -0.2504 -0.4283
  195MOL   H13939327   0.182   5.441   5.208  1.2856 -0.0466  0.1157
  195MOL   H14039328   0.254   5.332   4.938 -1.2011 -0.7592 -0.0048
  195MOL   H14139329   0.095   5.336   5.034  0.2774 -0.1575  1.0467
  195MOL   C14239330   0.152   5.524   4.947 -0.8743  0.3459 -0.3367
  195MOL   C14339331   0.089   5.491   4.819 -0.0611  0.0483  0.9442
  195MOL  Cl14439332   0.191   5.527   4.688 -0.0286  0.4245 -0.0087
  195MOL   C14539333   8.377   5.457   4.806  0.1497 -0.2351  0.1264
  195MOL   C14639334   8.318   5.431   4.669 -0.8640 -0.1122  0.5742
  195MOL   H14739335   0.242   5.583   4.932  1.1023 -2.2992  0.7407
  195MOL   H14839336   0.087   5.574   5.019  2.7205 -0.0718  3.3812
  195MOL   H14939337   8.314   5.429   4.889  0.9566 -0.6055  0.6149
  195MOL   H15039338   8.375   5.471   4.585 -0.2414 -0.8096  0.6676
  195MOL   H15139339   8.317   5.323   4.653 -3.9632 -0.0516 -0.0498
  195MOL   C15239340   8.176   5.486   4.667 -0.1414  0.5539  0.4635
  195MOL   C15339341   8.100   5.464   4.545  0.8293 -1.0143  0.2987
  195MOL  Cl15439342   8.061   5.292   4.509 -0.3213 -0.0307  0.1909
  195MOL   C15539343   8.052   5.558   4.460  0.0351 -0.1453  0.1157
  195MOL   C15639344   7.949   5.544   4.349  0.1906  0.1281 -0.0835
  195MOL   H15739345   8.130   5.450   4.759  2.7219  1.5685  2.3725
  195MOL   H15839346   8.195   5.592   4.683 -1.8349  0.9465 -0.0941
  195MOL   H15939347   8.090   5.656   4.484 -1.3257  1.3884 -3.6963
  195MOL   H16039348   7.911   5.443   4.334  0.4661  0.2572 -1.7583
  195MOL   H16139349   7.997   5.567   4.253  1.1436  1.0608  0.6067
  195MOL   C16239350   7.830   5.634   4.352 -0.0282  0.2456  0.2336
  195MOL   C16339351   7.749   5.614   4.225  0.0870  0.4703  0.3054
  195MOL  Cl16439352   7.734   5.757   4.119 -0.5296  0.2809 -0.2055
  195MOL   C16539353   7.698   5.497   4.182  0.7980 -0.0012  0.4981
  195MOL   C16639354   7.617   5.478   4.060 -0.8707 -0.4369  0.0743
  195MOL   H16739355   7.760   5.618   4.434 -0.0914 -1.0589 -0.0621
  195MOL   H16839356   7.850   5.741   4.360  1.2623 -0.0085  0.4222
  195MOL   H16939357   7.714   5.408   4.240  1.2439 -0.9440 -1.0298
  195MOL   H17039358   7.622   5.563   3.992  0.5440 -0.6396 -0.1026
  195MOL   H17139359   7.689   5.414   4.008  3.2745  3.0793  1.1764
  195MOL   C17239360   7.474   5.423   4.090  0.5049 -0.2022 -0.5501
  195MOL   C17339361   7.388   5.395   3.968  0.1857  0.4730 -0.1790
  195MOL  Cl17439362   7.228   5.379   4.026 -0.2228 -0.1781 -0.0323
  195MOL   C17539363   7.420   5.384   3.838  0.3764 -0.1571  0.3402
  195MOL   C17639364   7.315   5.382   3.727  0.4943 -0.4576 -0.7750
  195MOL   H17739365   7.423   5.505   4.141 -0.4246 -1.7137  1.0081
  195MOL   H17839366   7.455   5.335   4.151  0.3339  0.1087 -0.1527
  195MOL   H17939367   7.525   5.391   3.814  0.5017  1.3877  1.2669
  195MOL   H18039368   7.279   5.485   3.722 -0.1531 -0.6871 -0.9212
  195MOL   H18139369   7.239   5.316   3.771  2.4203 -0.1750  3.1587
  195MOL   C18239370   7.377   5.339   3.599  0.4097 -0.0034 -0.4632
  195MOL   C18339371   7.267   5.342   3.493  0.0686 -0.4665  0.2787
  195MOL  Cl18439372   7.293   5.467   3.378  0.0960  0.4239  0.1845
  195MOL   C18539373   7.164   5.251   3.488  0.1639  0.7342  0.7434
  195MOL   C18639374   7.041   5.261   3.397  0.2340 -0.0453 -0.6658
  195MOL   H18739375   7.460   5.405   3.575  0.5516  0.5248  1.4197
  195MOL   H18839376   7.431   5.245   3.610  2.5417  1.1627 -0.7503
  195MOL   H18939377   7.159   5.171   3.560 -0.0433  0.5937  0.5743
  195MOL   H19039378   6.959   5.265   3.469  1.1832  0.3476  0.4237
  195MOL   H19139379   7.051   5.355   3.343 -1.5302  0.7487  0.3544
  195MOL   C19239380   7.024   5.143   3.312 -0.3001  0.4689 -0.1791
  195MOL   C19339381   6.890   5.134   3.246 -0.4367  0.2820  0.2510
  195MOL  Cl19439382   6.783   5.028   3.330  0.2324 -0.0656 -0.2159
  195MOL   C19539383   6.847   5.189   3.133 -0.6123  0.0009 -0.5330
  195MOL   C19639384   6.931   5.287   3.051 -0.3495 -0.0468  0.1679
  195MOL   H19739385   7.036   5.051   3.368 -2.8631 -0.7918 -1.6264
  195MOL   H19839386   7.108   5.134   3.243  1.0480 -1.3774  1.6289
  195MOL   H19939387   6.749   5.174   3.092 -0.9137  0.5474 -0.0256
  195MOL   H20039388   7.039   5.294   3.061 -0.3769  0.5069  0.0689
  195MOL   H20139389   6.881   5.384   3.042 -1.3093 -0.6574 -1.3186
  195MOL   H20239390   6.930   5.253   2.947  0.5335  0.8105 -0.1328
  196MOL     C139391   5.938   2.841   8.150  0.2205 -0.1991  1.3148
  196MOL     C239392   6.009   2.805   8.275  0.3772 -0.1820 -0.1213
  196MOL    Cl339393   6.171   2.764   8.242 -0.0602  0.2658  0.0389
  196MOL     C439394   5.946   2.800   8.394  0.2674 -0.8735 -0.0422
  196MOL     C539395   5.801   2.833   8.417  0.1005 -0.0125  0.2606
  196MOL     H639396   5.994   2.788   8.072 -0.1365 -0.0373  0.9453
  196MOL     H739397   5.937   2.948   8.134  1.3635 -0.3852 -0.1958
  196MOL     H839398   6.004   2.771   0.059  0.6345  1.3057  0.4616
  196MOL     H939399   5.795   2.908   0.076  1.4659  2.4411 -1.8493
  196MOL    H1039400   5.763   2.882   8.327 -1.3838  0.4691  1.1261
  196MOL    H1139401   5.839   2.796   8.149 -0.6957  1.8183  0.7870
  196MOL    C1239402   5.723   2.705   0.028  0.1462  1.0513 -0.7167
  196MOL    C1339403   5.582   2.735   0.079 -0.0127 -0.4790  0.1429
  196MOL   Cl1439404   5.571   2.702   0.251 -0.1474 -0.2047  0.2999
  196MOL    C1539405   5.479   2.786   0.008 -0.3863 -0.3492  0.0496
  196MOL    C1639406   5.460   2.808   8.282 -0.1250 -1.0611  0.5788
  196MOL    H1739407   5.729   2.638   8.364 -0.9466  2.3693 -1.8706
  196MOL    H1839408   5.778   2.655   0.108  1.6751 -0.4042 -2.6296
  196MOL    H1939409   5.390   2.815   0.063  1.1814 -1.4615  3.2994
  196MOL    H2039410   5.549   2.789   8.223  0.5840 -3.7099  2.4043
  196MOL    H2139411   5.391   2.727   8.257  0.6153 -1.6850  0.5498
  196MOL    C2239412   5.391   2.940   8.255 -0.6272  0.9141 -0.0649
  196MOL    C2339413   5.500   3.045   8.246  0.2751 -0.7859  0.4947
  196MOL   Cl2439414   5.588   3.036   8.098  0.3748  0.2157  0.1548
  196MOL    C2539415   5.536   3.127   8.344  0.7465 -0.0949  0.5611
  196MOL    C2639416   5.641   3.236   8.351  0.3139 -0.5785  0.4844
  196MOL    H2739417   5.338   2.916   8.163  1.9009 -2.3596 -0.7424
  196MOL    H2839418   5.312   2.965   8.326 -1.0984 -1.2247  0.1841
  196MOL    H2939419   5.473   3.128   0.011  0.5543  2.6709  0.4385
  196MOL    H3039420   5.686   3.262   8.255 -0.9508 -0.5642 -0.1143
  196MOL    H3139421   5.583   3.321   8.386 -1.0626 -0.5100 -1.8687
  196MOL    C3239422   5.756   3.220   0.027 -0.4267 -0.4244 -0.5468
  196MOL    C3339423   5.802   3.360   0.078 -0.1447  0.4259 -0.1205
  196MOL   Cl3439424   5.926   3.436   8.413 -0.1171  0.0712 -0.1165
  196MOL    C3539425   5.752   3.423   0.185  0.8440 -0.0993 -0.3545
  196MOL    C3639426   5.799   3.564   0.230 -0.0184 -0.0324 -0.6432
  196MOL    H3739427   5.716   3.164   0.112  1.7468 -0.9362  0.1657
  196MOL    H3839428   5.829   3.158   8.397 -2.0641 -1.1768 -2.0429
  196MOL    H3939429   5.670   3.375   0.235  0.9409  0.6964  0.5931
  196MOL    H4039430   5.873   3.603   0.160 -0.1593 -0.4875 -1.0447
  196MOL    H4139431   5.707   3.622   0.231 -0.5291 -0.7508  3.2657
  196MOL    C4239432   5.863   3.575   0.375  0.2855 -0.4907  0.7435
  196MOL    C4339433   5.782   3.510   0.484 -0.2292  0.2774 -0.2002
  196MOL   Cl4439434   5.631   3.594   0.521  0.0646  0.5183 -0.0667
  196MOL    C4539435   5.803   3.389   0.542 -0.8592  0.6287  0.6407
  196MOL    C4639436   5.924   3.309   0.507  0.0196  0.0215  0.2440
  196MOL    H4739437   5.961   3.526   0.372  0.0651 -0.8778 -0.4883
  196MOL    H4839438   5.892   3.680   0.385 -0.4834 -0.3586  1.6591
  196MOL    H4939439   5.724   3.361   0.609 -1.9548 -2.7534 -1.9517
  196MOL    H5039440   5.943   3.317   0.400  2.5496 -0.4557  0.6195
  196MOL    H5139441   6.008   3.365   0.550  1.0877 -1.5598  0.2452
  196MOL    C5239442   5.921   3.167   0.556 -0.0235 -0.7888 -0.2555
  196MOL    C5339443   5.979   3.072   0.457  0.0001 -1.0789  0.2063
  196MOL   Cl5439444   5.877   3.058   0.316  0.1914 -0.0273 -0.3107
  196MOL    C5539445   6.089   3.001   0.472  0.5297  0.2337 -0.2585
  196MOL    C5639446   6.147   2.898   0.371 -0.2236  0.7922 -0.9229
  196MOL    H5739447   5.985   3.165   0.645 -0.3261  3.8625  0.1977
  196MOL    H5839448   5.819   3.146   0.586 -0.2441  1.7058  0.8597
  196MOL    H5939449   6.145   3.010   0.564 -0.0303 -2.2592  0.3632
  196MOL    H6039450   6.139   2.804   0.427 -3.0128  2.7954  2.2474
  196MOL    H6139451   6.077   2.885   0.289 -1.9840 -0.5809  0.7450
  196MOL    C6239452   6.289   2.935   0.321 -0.1598  0.5524 -0.4525
  196MOL    C6339453   6.363   2.813   0.282  0.2086 -0.0746  0.4894
  196MOL   Cl6439454   6.436   2.731   0.414  0.0747  0.2484 -0.0698
  196MOL    C6539455   6.378   2.780   0.154 -0.2232 -0.2889  0.0994
  196MOL    C6639456   6.454   2.655   0.109  0.6341  0.2986  0.3124
  196MOL    H6739457   6.287   3.008   0.240 -0.2685 -0.4053 -1.3268
  196MOL    H6839458   6.346   2.976   0.404 -0.3912  1.3235 -0.6620
  196MOL    H6939459   6.328   2.851   0.089 -2.3103 -2.1251 -0.3628
  196MOL    H7039460   6.386   2.610   0.037 -1.1892 -1.0065  2.7890
  196MOL    H7139461   6.466   2.596   0.200 -0.8807  2.0809  1.6989
  196MOL    C7239462   6.586   2.691   0.041 -0.3959 -0.4114  0.4491
  196MOL    C7339463   6.663   2.569   8.407 -0.2679 -0.1474 -0.5221
  196MOL   Cl7439464   6.758   2.502   0.111 -0.4606  0.6109  0.2326
  196MOL    C7539465   6.678   2.532   8.278  0.0778  0.3090  0.4944
  196MOL    C7639466   6.779   2.433   8.227  0.7901  0.0498  0.3811
  196MOL    H7739467   6.644   2.743   0.117 -2.2884  2.3799  0.0765
  196MOL    H7839468   6.561   2.753   8.375  2.1590 -1.6714 -1.2617
  196MOL    H7939469   6.612   2.581   8.207  2.1943  1.3445 -0.8352
  196MOL    H8039470   6.735   2.335   8.211 -0.3227  0.4126  1.1586
  196MOL    H8139471   6.867   2.436   8.291  1.3921 -0.6991 -0.4002
  196MOL    C8239472   6.820   2.471   8.085  0.1872 -0.3090  0.3636
  196MOL    C8339473   6.900   2.371   8.005  0.0244 -0.3430  0.1003
  196MOL   Cl8439474   6.895   2.419   7.831 -0.1104 -0.4351 -0.0464
  196MOL    C8539475   6.966   2.261   8.055 -0.5242  0.2555 -0.5310
  196MOL    C8639476   7.033   2.154   7.969 -0.5640 -0.3978  0.1995
  196MOL    H8739477   6.870   2.566   8.070  1.0783 -1.1146 -2.0644
  196MOL    H8839478   6.724   2.476   8.033  1.2371 -0.8995 -1.6957
  196MOL    H8939479   6.970   2.248   8.162 -0.7138 -2.0280 -0.7723
  196MOL    H9039480   6.979   2.140   7.876 -1.2233 -0.2665  0.5606
  196MOL    H9139481   7.139   2.169   7.945 -0.3345 -1.8014  0.2736
  196MOL    C9239482   7.030   2.015   8.040  0.0137  0.7248  0.5115
  196MOL    C9339483   7.128   1.914   7.982 -0.8228 -0.1243  0.2233
  196MOL   Cl9439484   7.051   1.819   7.854 -0.2393  0.0915  0.0454
  196MOL    C9539485   7.253   1.888   8.023 -0.6425  0.1974  0.0486
  196MOL    C9639486   7.316   1.966   8.138  0.6095  0.3219  0.2760
  196MOL    H9739487   6.935   1.961   8.035 -0.6260  2.0556 -3.3631
  196MOL    H9839488   7.037   2.010   8.149 -0.9303 -0.8904  0.5126
  196MOL    H9939489   7.319   1.813   7.981 -0.7147  0.6513 -0.8941
  196MOL   H10039490   7.279   2.068   8.136  1.2373  0.5443 -3.4379
  196MOL   H10139491   7.278   1.929   8.233 -0.5891  2.8433  0.8091
  196MOL   C10239492   7.468   1.957   8.132  0.2977  0.1988  0.1269
  196MOL   C10339493   7.530   2.036   8.246 -0.5367  0.1008  0.2354
  196MOL  Cl10439494   7.587   1.933   8.371  0.1222  0.0130  0.2675
  196MOL   C10539495   7.547   2.168   8.241 -0.3629 -0.2986 -0.1431
  196MOL   C10639496   7.626   2.243   8.342 -0.3377  0.7912  0.2662
  196MOL   H10739497   7.500   1.853   8.127  1.2325  0.3200  2.6068
  196MOL   H10839498   7.491   2.006   8.038  1.3703  1.1500  0.8723
  196MOL   H10939499   7.510   2.224   8.156 -0.5211  1.9585  1.3501
  196MOL   H11039500   7.615   2.196   0.019 -2.1202  1.3675  0.3716
  196MOL   H11139501   7.724   2.237   8.295 -0.9503  0.4638 -0.9887
  196MOL   C11239502   7.595   2.393   8.349 -0.0021  0.4963  0.1878
  196MOL   C11339503   7.653   2.473   0.045 -0.5653 -0.1965 -0.2877
  196MOL  Cl11439504   7.536   2.514   0.167  0.0870  0.4131 -0.1110
  196MOL   C11539505   7.779   2.510   0.071  0.5104 -0.2082 -0.1720
  196MOL   C11639506   7.882   2.497   8.391 -0.8458  0.3534  0.0277
  196MOL   H11739507   7.631   2.434   8.255  1.5877  2.2225  1.5177
  196MOL   H11839508   7.486   2.399   8.350 -0.0112  0.2979  0.3889
  196MOL   H11939509   7.798   2.558   0.166  0.6375 -1.0952  0.2582
  196MOL   H12039510   7.847   2.496   8.288 -1.1685  2.0361  0.1171
  196MOL   H12139511   7.927   2.398   8.401 -0.9951  0.1695 -1.1136
  196MOL   C12239512   7.991   2.600   8.408 -0.5509  0.0460 -0.1139
  196MOL   C12339513   8.101   2.603   8.300  0.4589  1.2052  0.1882
  196MOL  Cl12439514   8.046   2.692   8.162 -0.2574 -0.2861  0.0033
  196MOL   C12539515   8.215   2.540   8.309  0.2161 -0.1832 -0.0448
  196MOL   C12639516   8.267   2.455   0.003  0.7616 -0.3197 -0.1796
  196MOL   H12739517   7.946   2.699   8.413 -1.4767 -0.3632 -0.3360
  196MOL   H12839518   8.043   2.583   0.082 -1.8078 -0.9714  0.4147
  196MOL   H12939519   8.282   2.547   8.225 -1.6847  0.6733 -1.5191
  196MOL   H13039520   8.299   2.519   0.085 -2.7675 -2.3972  3.0159
  196MOL   H13139521   8.180   2.398   0.037  0.0511  1.4793  1.1187
  196MOL   C13239522   8.377   2.361   8.378 -0.1060 -0.4835 -0.5815
  196MOL   C13339523   0.003   2.279   0.073 -0.6066 -0.2555  0.2343
  196MOL  Cl13439524   8.371   2.111   0.064  0.4132 -0.1785 -0.3251
  196MOL   C13539525   0.080   2.325   0.172 -0.1060 -0.1540  1.1125
  196MOL   C13639526   0.145   2.459   0.184 -0.1365  0.1197  0.2290
  196MOL   H13739527   8.339   2.303   8.294 -1.0937 -0.5620 -0.0771
  196MOL   H13839528   0.042   2.420   8.344  1.3675 -1.6594  0.9852
  196MOL   H13939529   0.098   2.251   0.248  0.2958 -0.6371  0.5549
  196MOL   H14039530   0.133   2.524   0.098  0.4629 -0.7510 -0.5189
  196MOL   H14139531   0.098   2.509   0.269  1.1376  2.6108 -0.4826
  196MOL   C14239532   0.288   2.433   0.194  0.6139  0.0606  0.5751
  196MOL   C14339533   0.369   2.539   0.272  0.4952 -0.7276 -0.1736
  196MOL  Cl14439534   0.292   2.571   0.426  0.4395 -0.1183 -0.5167
  196MOL   C14539535   0.476   2.601   0.224 -0.6372 -0.2102 -0.0679
  196MOL   C14639536   0.553   2.712   0.287  0.1690  0.7598  0.5224
  196MOL   H14739537   0.333   2.426   0.094  2.1286  1.5530  1.1213
  196MOL   H14839538   0.301   2.340   0.248  0.7901 -0.7637 -0.8491
  196MOL   H14939539   0.511   2.578   0.125 -1.9049  1.0095 -0.8233
  196MOL   H15039540   0.507   2.740   0.382 -1.1289 -0.4279  0.2615
  196MOL   H15139541   0.660   2.691   0.288  0.2034  0.7998 -1.2414
  196MOL   C15239542   0.563   2.841   0.194  0.6143  0.2515 -0.2720
  196MOL   C15339543   0.640   2.953   0.266 -0.1519 -0.1627 -0.6653
  196MOL  Cl15439544   0.789   3.004   0.176  0.2866 -0.0407  0.3539
  196MOL   C15539545   0.600   3.015   0.373 -0.4037  0.2699  0.1451
  196MOL   C15639546   0.670   3.128   0.449  0.0600  0.3278  0.5464
  196MOL   H15739547   0.614   2.814   0.101 -1.4367  2.0579 -1.9935
  196MOL   H15839548   0.466   2.883   0.164  0.3605 -0.5931 -0.6423
  196MOL   H15939549   0.515   2.981   0.429  0.0822 -0.5348  0.4104
  196MOL   H16039550   0.732   3.180   0.376  0.6872 -1.9751 -0.6037
  196MOL   H16139551   0.733   3.083   0.526  0.5626  1.5102  0.8372
  196MOL   C16239552   0.574   3.222   0.529 -0.0825 -0.1010 -0.1194
  196MOL   C16339553   0.648   3.313   0.620 -0.2156  0.1309  0.3946
  196MOL  Cl16439554   0.706   3.454   0.541 -0.4418  0.1305  0.1385
  196MOL   C16539555   0.672   3.288   0.745  0.2453  0.2130 -0.5948
  196MOL   C16639556   0.758   3.375   0.840  0.2988 -0.1970  0.1250
  196MOL   H16739557   0.509   3.276   0.460  1.3755  1.3420 -0.3906
  196MOL   H16839558   0.508   3.164   0.593  2.5614 -1.4812  1.4675
  196MOL   H16939559   0.630   3.198   0.788 -0.2474 -0.3785 -2.2884
  196MOL   H17039560   0.786   3.465   0.785 -2.4571  0.0201 -1.0226
  196MOL   H17139561   0.705   3.425   0.922  1.5664  1.1175  0.1514
  196MOL   C17239562   0.874   3.278   0.890  0.2007 -0.8717  0.2258
  196MOL   C17339563   0.981   3.357   0.963  0.4068 -0.5555  0.2961
  196MOL  Cl17439564   1.121   3.365   0.869 -0.5498 -0.3015 -0.3263
  196MOL   C17539565   0.974   3.423   1.083  0.2838  0.5433 -0.4439
  196MOL   C17639566   1.093   3.497   1.149  0.0102  0.0876 -0.1727
  196MOL   H17739567   0.909   3.230   0.799 -2.4256  1.5960 -2.1927
  196MOL   H17839568   0.843   3.189   0.944  0.5790 -0.3383  1.3357
  196MOL   H17939569   0.880   3.424   1.136 -0.3520 -0.1949 -1.5294
  196MOL   H18039570   1.099   3.600   1.112 -2.5125  0.8835  1.4829
  196MOL   H18139571   1.185   3.446   1.122  0.2877  1.1715 -1.3459
  196MOL   C18239572   1.082   3.500   1.295 -0.2341  0.4315 -0.2689
  196MOL   C18339573   1.210   3.527   1.373 -0.0387 -0.0697  0.4042
  196MOL  Cl18439574   1.296   3.671   1.320 -0.3605 -0.0050 -0.0648
  196MOL   C18539575   1.258   3.450   1.468  0.2091  0.2679 -1.0309
  196MOL   C18639576   1.382   3.476   1.547  0.2096 -0.2113 -0.3291
  196MOL   H18739577   0.993   3.561   1.311 -1.2794 -1.5373  1.8909
  196MOL   H18839578   1.052   3.398   1.318 -0.4516  0.8045  1.1949
  196MOL   H18939579   1.199   3.365   1.498  2.0778 -0.0296  1.9924
  196MOL   H19039580   1.436   3.560   1.503  0.2687 -0.6833 -1.1745
  196MOL   H19139581   1.344   3.500   1.646 -1.5868  0.6252 -1.2044
  196MOL   C19239582   1.470   3.352   1.551 -0.1017 -0.0757  0.8473
  196MOL   C19339583   1.583   3.364   1.649  0.1424 -0.3384 -0.2150
  196MOL  Cl19439584   1.523   3.354   1.804 -0.1326  0.1983 -0.1160
  196MOL   C19539585   1.716   3.365   1.621  0.2945 -0.3164 -0.2523
  196MOL   C19639586   1.779   3.365   1.477 -0.4746  0.2662 -0.3390
  196MOL   H19739587   1.508   3.344   1.449 -1.0876 -1.1525  0.5478
  196MOL   H19839588   1.422   3.257   1.576 -2.2997  0.5897 -0.7289
  196MOL   H19939589   1.788   3.362   1.702 -1.7931  2.0125  1.7718
  196MOL   H20039590   1.873   3.310   1.478  0.1281  1.2899 -0.1601
  196MOL   H20139591   1.802   3.469   1.459 -1.8055  0.3095 -1.8921
  196MOL   H20239592   1.712   3.336   1.396 -2.4479  3.0079  0.2521
  197MOL     C139593   7.267   2.442   1.861 -0.1062 -1.2803 -0.1682
  197MOL     C239594   7.339   2.399   1.744  0.3130  0.0666  0.5093
  197MOL    Cl339595   7.302   2.239   1.695 -0.7531 -0.4860  0.1989
  197MOL     C439596   7.435   2.464   1.677  0.2636 -0.4029 -0.0627
  197MOL     C539597   7.483   2.610   1.703  0.5821  0.0484 -0.1679
  197MOL     H639598   7.247   2.363   1.933 -1.2624  0.8326  1.9254
  197MOL     H739599   7.168   2.466   1.821  0.1853  0.3844  0.0549
  197MOL     H839600   7.487   2.409   1.600 -0.3101  0.3977 -1.0279
  197MOL     H939601   7.521   2.650   1.609 -0.1142 -1.3136 -1.0378
  197MOL    H1039602   7.387   2.657   1.728  0.4742 -0.2524 -0.0167
  197MOL    H1139603   7.301   2.530   1.915  1.0262 -1.6773 -0.2334
  197MOL    C1239604   7.579   2.617   1.821  0.5544 -0.6774 -0.4327
  197MOL    C1339605   7.570   2.759   1.883  0.3672  0.0029 -0.5207
  197MOL   Cl1439606   7.499   2.754   2.039 -0.3995  0.3782 -0.3135
  197MOL    C1539607   7.623   2.876   1.833  0.2245 -0.2845 -0.4301
  197MOL    C1639608   7.685   2.907   1.702  0.1781 -0.2950  0.6362
  197MOL    H1739609   7.556   2.537   1.892 -3.1695  1.2365  0.6569
  197MOL    H1839610   7.679   2.612   1.777  0.2806 -2.1363 -0.9119
  197MOL    H1939611   7.620   2.958   1.904 -0.3630 -0.1601 -0.5943
  197MOL    H2039612   7.662   2.832   1.627 -0.5615  0.8146 -0.2554
  197MOL    H2139613   7.625   2.996   1.685  0.6215  0.0054  0.6280
  197MOL    C2239614   7.834   2.934   1.713 -0.0661  0.2760  0.7904
  197MOL    C2339615   7.910   2.954   1.583 -0.0689  0.1001 -0.0186
  197MOL   Cl2439616   8.082   2.905   1.598 -0.0782 -0.2361  0.0063
  197MOL    C2539617   7.861   3.006   1.472  0.3727 -0.1375 -0.3156
  197MOL    C2639618   7.936   3.036   1.342 -0.6805 -0.1689 -1.0516
  197MOL    H2739619   7.846   3.025   1.771 -1.1382  0.6584  0.4157
  197MOL    H2839620   7.892   2.858   1.766  1.1110  1.2735  0.9293
  197MOL    H2939621   7.759   3.041   1.471  0.2240 -0.5960 -1.6674
  197MOL    H3039622   8.035   2.995   1.364 -0.8900  0.5061  1.3381
  197MOL    H3139623   7.900   2.978   1.257 -1.0063 -0.2466 -0.8614
  197MOL    C3239624   7.954   3.182   1.319  0.3214  0.6322  0.3757
  197MOL    C3339625   8.052   3.226   1.205  0.4869  0.4665  0.3319
  197MOL   Cl3439626   8.105   3.389   1.220  0.1577  0.0858 -0.1885
  197MOL    C3539627   8.094   3.138   1.112 -0.3103  0.3964 -0.1336
  197MOL    C3639628   8.202   3.172   1.000  0.2933  0.6387 -0.2657
  197MOL    H3739629   7.858   3.230   1.299  0.2420  0.6216  0.7238
  197MOL    H3839630   7.984   3.231   1.411  0.3076  1.1876  0.0879
  197MOL    H3939631   8.071   3.033   1.110  0.2259  0.2750 -0.1148
  197MOL    H4039632   8.240   3.274   0.997  0.6988  0.4731 -0.8776
  197MOL    H4139633   8.289   3.109   1.020 -1.6423 -1.0782  3.2952
  197MOL    C4239634   8.139   3.147   0.859 -0.7557 -0.3146 -0.7227
  197MOL    C4339635   8.247   3.160   0.752  0.0337 -0.3688 -0.1599
  197MOL   Cl4439636   8.229   3.315   0.675  0.0550 -0.1148  0.1129
  197MOL    C4539637   8.332   3.061   0.712 -0.6638 -0.1287  0.7038
  197MOL    C4639638   8.332   2.924   0.774  0.1482  0.0431 -0.1065
  197MOL    H4739639   8.091   3.049   0.861 -0.5203 -0.4131  0.7521
  197MOL    H4839640   8.065   3.223   0.835 -0.8288 -0.1385  0.0346
  197MOL    H4939641   8.397   3.079   0.629 -0.4323 -0.0015  0.9112
  197MOL    H5039642   0.015   2.892   0.781  0.5192  1.0577 -0.9798
  197MOL    H5139643   8.291   2.923   0.875  1.0471 -4.0792  0.3315
  197MOL    C5239644   8.256   2.834   0.676  0.1645  0.1529 -0.4650
  197MOL    C5339645   8.269   2.693   0.725  0.0501  0.1501 -0.5170
  197MOL   Cl5439646   0.009   2.645   0.682 -0.3454 -0.1117 -0.1093
  197MOL    C5539647   8.183   2.617   0.799 -0.5434 -0.3366  0.8144
  197MOL    C5639648   8.211   2.478   0.846 -0.2908  0.2797  0.4750
  197MOL    H5739649   8.149   2.858   0.679  0.1026 -0.1247 -0.4153
  197MOL    H5839650   8.296   2.840   0.575  1.4573 -0.8067 -0.0239
  197MOL    H5939651   8.084   2.657   0.812 -0.1914  0.4762  1.0286
  197MOL    H6039652   8.319   2.463   0.846 -0.1964  0.9399 -0.3552
  197MOL    H6139653   8.172   2.471   0.948 -2.2625 -0.5087 -0.2892
  197MOL    C6239654   8.139   2.376   0.752 -0.5416  0.1654  0.0517
  197MOL    C6339655   8.076   2.259   0.835  0.2614  0.9740  0.0357
  197MOL   Cl6439656   7.943   2.195   0.751  0.0472 -0.2250 -0.3150
  197MOL    C6539657   8.122   2.195   0.941  0.1459 -0.3599 -0.4279
  197MOL    C6639658   8.068   2.071   1.012 -0.3794  0.2713 -0.3571
  197MOL    H6739659   8.061   2.427   0.696 -1.2411 -2.3349 -1.3634
  197MOL    H6839660   8.186   2.327   0.667  1.1081  0.6736  0.6440
  197MOL    H6939661   8.212   2.228   0.991  0.3863 -0.3506 -0.8722
  197MOL    H7039662   8.117   1.996   0.949  0.6758 -1.6355  2.6350
  197MOL    H7139663   7.961   2.060   0.994 -0.4694  2.2852 -1.2028
  197MOL    C7239664   8.096   2.057   1.158 -0.1784  1.0053 -0.5125
  197MOL    C7339665   8.032   1.938   1.222  0.3964  0.4849 -0.0530
  197MOL   Cl7439666   8.099   1.788   1.168 -0.1950 -0.1107 -0.3002
  197MOL    C7539667   7.920   1.943   1.308 -0.6370  0.9957 -0.0815
  197MOL    C7639668   7.840   1.827   1.354 -0.0293 -0.2288 -0.1762
  197MOL    H7739669   8.054   2.147   1.205  2.9411  1.0009  2.4733
  197MOL    H7839670   8.201   2.055   1.187 -0.3462  0.1865  0.0521
  197MOL    H7939671   7.898   2.046   1.330 -0.0409  0.6631  2.2369
  197MOL    H8039672   7.844   1.829   1.463 -0.8046 -1.1498 -0.1198
  197MOL    H8139673   7.902   1.738   1.344  1.1618  0.5965 -0.1685
  197MOL    C8239674   7.698   1.812   1.300  0.0947 -0.4458 -0.1291
  197MOL    C8339675   7.688   1.765   1.157  0.9595  0.0652 -0.0472
  197MOL   Cl8439676   7.588   1.621   1.147  0.2136  0.7873 -0.0060
  197MOL    C8539677   7.757   1.806   1.047  0.2296  0.5893  0.4037
  197MOL    C8639678   7.756   1.730   0.909 -0.2222  1.0072  0.2839
  197MOL    H8739679   7.642   1.906   1.299  1.0003  0.1013 -1.3224
  197MOL    H8839680   7.652   1.742   1.369 -0.2296  1.2218  1.4069
  197MOL    H8939681   7.816   1.896   1.056  0.0155  1.0566 -2.3796
  197MOL    H9039682   7.858   1.690   0.912  0.6020  3.0485  0.4500
  197MOL    H9139683   7.680   1.653   0.908 -0.9112  1.6781 -0.9087
  197MOL    C9239684   7.731   1.829   0.796 -0.5682  0.1005 -0.8500
  197MOL    C9339685   7.800   1.780   0.670 -0.1665 -0.5163  0.1854
  197MOL   Cl9439686   7.947   1.871   0.639 -0.1586 -0.0154 -0.0679
  197MOL    C9539687   7.766   1.679   0.585  0.0360  0.6550 -0.2615
  197MOL    C9639688   7.640   1.599   0.595  0.1052 -0.4363  0.2454
  197MOL    H9739689   7.783   1.922   0.819 -0.9983  0.9588 -3.1781
  197MOL    H9839690   7.624   1.851   0.788 -0.7551 -0.3186  0.4614
  197MOL    H9939691   7.828   1.659   0.500 -0.1301 -0.0679 -0.2134
  197MOL   H10039692   7.658   1.511   0.657  3.0482 -2.6360 -3.5137
  197MOL   H10139693   7.559   1.650   0.648  1.5616  2.0213  0.1407
  197MOL   C10239694   7.579   1.554   0.454 -0.7928  0.3175  0.5303
  197MOL   C10339695   7.449   1.479   0.468 -0.1826  0.2257 -0.0070
  197MOL  Cl10439696   7.453   1.330   0.562 -0.0418 -0.4315  0.2776
  197MOL   C10539697   7.329   1.519   0.416 -0.0570  0.3055  0.2707
  197MOL   C10639698   7.200   1.454   0.427  0.0969 -0.4138 -0.1887
  197MOL   H10739699   7.561   1.647   0.400 -1.1816 -0.5811 -0.8967
  197MOL   H10839700   7.651   1.502   0.391 -1.7702 -0.7585  0.2955
  197MOL   H10939701   7.325   1.608   0.356 -0.6241  0.0194 -0.1156
  197MOL   H11039702   7.183   1.407   0.523 -1.6291  0.0335 -0.2654
  197MOL   H11139703   7.119   1.526   0.415 -0.5628 -1.1644 -0.2857
  197MOL   C11239704   7.172   1.341   0.326  0.4071  0.0296 -0.4067
  197MOL   C11339705   7.154   1.381   0.181 -0.2785 -0.1829 -0.0418
  197MOL  Cl11439706   6.993   1.446   0.148  0.0762  0.2154  0.0361
  197MOL   C11539707   7.245   1.356   0.085 -0.4155  0.3328 -0.1511
  197MOL   C11639708   7.380   1.292   0.104  0.0663 -0.4391 -0.5718
  197MOL   H11739709   7.246   1.262   0.340  0.3501 -0.6772 -3.7466
  197MOL   H11839710   7.075   1.299   0.350  0.6198 -0.8147 -1.0058
  197MOL   H11939711   7.230   1.380   8.401 -0.2014  0.7911 -0.0744
  197MOL   H12039712   7.367   1.187   0.079 -3.9489  0.4406 -2.4829
  197MOL   H12139713   7.411   1.295   0.209 -0.7259  0.5066 -0.3653
  197MOL   C12239714   7.487   1.330   0.007  1.0667  0.8850 -0.5282
  197MOL   C12339715   7.607   1.236   0.015 -0.0140 -0.0459 -0.7180
  197MOL  Cl12439716   7.657   1.207   0.177  0.5656  0.1916 -0.1517
  197MOL   C12539717   7.668   1.161   8.345  0.5275 -0.6456  1.3427
  197MOL   C12639718   7.652   1.151   8.196  0.5087  0.1088  0.5918
  197MOL   H12739719   7.448   1.320   8.327 -1.4805 -4.0433  0.7862
  197MOL   H12839720   7.526   1.431   0.019 -2.4432  2.1315  1.0342
  197MOL   H12939721   7.745   1.098   8.387  0.4383 -0.1104  2.3327
  197MOL   H13039722   7.635   1.045   8.179  0.7536  0.3643 -1.3320
  197MOL   H13139723   7.567   1.210   8.161  0.4039 -0.6640 -0.4694
  197MOL   C13239724   7.780   1.205   8.117 -0.7613  0.5828  0.2048
  197MOL   C13339725   7.735   1.225   7.967  0.0022  0.2189  0.1142
  197MOL  Cl13439726   7.677   1.385   7.947 -0.1237 -0.4021  0.3698
  197MOL   C13539727   7.759   1.149   7.859 -0.1792 -0.4021 -0.1217
  197MOL   C13639728   7.831   1.021   7.855  0.4165  0.5219  0.7528
  197MOL   H13739729   7.799   1.302   8.162 -1.7191  1.0580 -0.4007
  197MOL   H13839730   7.861   1.132   8.122 -0.9028  0.2908 -1.5861
  197MOL   H13939731   7.723   1.179   7.762  1.3361  0.4420 -0.4397
  197MOL   H14039732   7.932   1.037   7.817 -0.6633 -0.8977 -2.9882
  197MOL   H14139733   7.823   0.978   7.955 -1.9486 -2.2952 -0.5574
  197MOL   C14239734   7.765   0.922   7.759  0.4793 -0.5781 -0.2063
  197MOL   C14339735   7.859   0.797   7.751  0.4543 -0.3457  0.1657
  197MOL  Cl14439736   7.920   0.769   7.596  0.0021 -0.1220 -0.1391
  197MOL   C14539737   7.870   0.709   7.853  0.1112 -0.7703 -0.6667
  197MOL   C14639738   7.955   0.582   7.858 -0.0409  0.3004  0.7528
  197MOL   H14739739   7.757   0.960   7.657 -0.7915  0.4993  0.2946
  197MOL   H14839740   7.667   0.891   7.794  1.5517 -2.5058  1.2179
  197MOL   H14939741   7.807   0.730   7.938  0.2334 -3.5959  0.1878
  197MOL   H15039742   7.904   0.493   7.819 -1.0566  0.5137  1.5900
  197MOL   H15139743   8.041   0.580   7.791 -0.2137 -0.5280  0.5476
  197MOL   C15239744   8.010   0.564   7.992 -0.3977  0.1202  0.8008
  197MOL   C15339745   8.097   0.448   7.990 -0.1508 -0.5217 -0.4597
  197MOL  Cl15439746   7.994   0.307   7.993 -0.2841 -0.0575  0.4172
  197MOL   C15539747   8.231   0.452   7.989  0.0080  0.0130  0.2730
  197MOL   C15639748   8.333   0.334   7.989  0.0757  0.3595  0.1803
  197MOL   H15739749   8.064   0.656   8.016  0.5748 -0.3620  0.4900
  197MOL   H15839750   7.927   0.550   8.061  0.4582 -0.5640  1.7006
  197MOL   H15939751   8.283   0.547   7.988  0.4028 -0.1763  1.5848
  197MOL   H16039752   8.287   0.235   7.984  2.5779 -0.8301  0.0295
  197MOL   H16139753   8.381   0.339   8.087 -0.1790  0.2054  0.3143
  197MOL   C16239754   0.024   0.347   7.885  0.6122 -0.0710  0.5094
  197MOL   C16339755   0.142   0.247   7.914 -1.2582 -0.2904  0.6623
  197MOL  Cl16439756   0.293   0.312   7.863  0.2552  0.1735  0.2062
  197MOL   C16539757   0.130   0.131   7.976  0.0720 -0.4557  0.4984
  197MOL   C16639758   0.250   0.036   8.008  0.1169 -0.5826  0.1730
  197MOL   H16739759   8.411   0.343   7.782  0.6401  0.7992  0.4691
  197MOL   H16839760   0.062   0.449   7.885 -1.6638  0.7918  0.5286
  197MOL   H16939761   0.028   0.102   8.000  0.4074 -2.5015 -0.5535
  197MOL   H17039762   0.240   8.368   7.946  2.2257  0.4934 -1.8086
  197MOL   H17139763   0.339   0.090   7.973 -0.8816  1.0480  0.1128
  197MOL   C17239764   0.255   8.409   8.156 -0.2373 -0.1425 -0.2918
  197MOL   C17339765   0.347   8.290   8.181 -0.4955  0.1518 -0.3898
  197MOL  Cl17439766   0.267   8.139   8.138 -0.1873  0.4536 -0.2047
  197MOL   C17539767   0.472   8.299   8.229  0.0274  0.6892  0.0941
  197MOL   C17639768   0.554   8.175   8.256 -0.8310 -0.5283 -0.1279
  197MOL   H17739769   0.165   8.370   8.203 -1.1937 -0.7589 -2.5802
  197MOL   H17839770   0.292   0.069   8.219  1.2287 -1.0150 -0.0098
  197MOL   H17939771   0.513   8.397   8.247 -1.2350  1.0260  1.2683
  197MOL   H18039772   0.614   8.150   8.168 -0.7388 -0.4009 -0.1004
  197MOL   H18139773   0.489   8.095   8.291 -2.2796  0.4003 -0.6386
  197MOL   C18239774   0.652   8.197   8.368 -0.2988 -0.3757 -0.1592
  197MOL   C18339775   0.706   8.071   0.016 -0.5429  0.1858  0.1460
  197MOL  Cl18439776   0.822   8.108   0.142  0.1546 -0.2639  0.1120
  197MOL   C18539777   0.674   7.945   8.399  0.0136  0.0305  0.0774
  197MOL   C18639778   0.735   7.820   0.041  0.4239 -0.0591 -0.6490
  197MOL   H18739779   0.737   8.259   8.338  1.1984 -1.5862  1.4611
  197MOL   H18839780   0.596   8.242   0.029  0.7345  0.1422  0.2847
  197MOL   H18939781   0.606   7.927   8.317  0.2111  0.0436 -0.0866
  197MOL   H19039782   0.775   7.752   8.386 -1.1616  2.4012 -3.8313
  197MOL   H19139783   0.823   7.849   0.099  0.3577  1.1419 -1.1224
  197MOL   C19239784   0.637   7.739   0.118  0.2132  0.4486 -0.7153
  197MOL   C19339785   0.693   7.642   0.223 -0.3915  0.2472 -0.0331
  197MOL  Cl19439786   0.795   7.730   0.338 -0.1792 -0.2124 -0.0360
  197MOL   C19539787   0.679   7.508   0.223 -0.2405 -0.3772  0.5170
  197MOL   C19639788   0.587   7.424   0.126  0.3304  0.6580 -0.3002
  197MOL   H19739789   0.581   7.685   0.041  1.4658 -1.2585 -0.4425
  197MOL   H19839790   0.558   7.803   0.159  0.2419  0.0269  0.0037
  197MOL   H19939791   0.740   7.458   0.297  0.2679  0.6093  0.7760
  197MOL   H20039792   0.575   7.478   0.032  0.2919 -0.8156 -1.1642
  197MOL   H20139793   0.488   7.404   0.167 -0.0668  3.1030 -0.0043
  197MOL   H20239794   0.631   7.327   0.102  0.2911  0.2933  1.0497
  198MOL     C139795   0.132   6.905   1.035 -0.6128 -0.3219 -0.2518
  198MOL     C239796   0.065   7.012   1.112 -0.4363  0.4874 -0.3417
  198MOL    Cl339797   8.343   6.948   1.177 -0.0686 -0.0985  0.1246
  198MOL     C439798   0.113   7.132   1.151  0.4695 -0.9029  0.5918
  198MOL     C539799   0.241   7.206   1.096  0.0443 -0.7252  0.7514
  198MOL     H639800   0.197   6.952   0.962 -2.0428  1.0663 -0.6543
  198MOL     H739801   0.064   6.842   0.977  1.6429 -3.5168  0.4129
  198MOL     H839802   0.056   7.185   1.226 -0.7329 -2.5710  0.9024
  198MOL     H939803   0.305   7.135   1.044  0.5762 -0.5548  1.1655
  198MOL    H1039804   0.221   7.284   1.023 -0.3781 -1.3935  0.1586
  198MOL    H1139805   0.189   6.847   1.107 -2.4571 -0.0805  1.4546
  198MOL    C1239806   0.325   7.271   1.200  0.1831  0.0484 -0.9595
  198MOL    C1339807   0.374   7.162   1.292  0.0975  1.1524 -0.3979
  198MOL   Cl1439808   0.300   7.171   1.444  0.0255  0.3965  0.0604
  198MOL    C1539809   0.471   7.075   1.277  0.5856  0.3398  0.0855
  198MOL    C1639810   0.560   7.055   1.156  1.2568 -0.4172 -0.6333
  198MOL    H1739811   0.413   7.321   1.160  0.2276 -0.6741 -1.7900
  198MOL    H1839812   0.266   7.350   1.246 -0.8448 -1.4208  0.2776
  198MOL    H1939813   0.485   6.996   1.350 -0.9333 -3.6489 -3.7224
  198MOL    H2039814   0.493   7.032   1.073  0.5707  1.6209 -0.6729
  198MOL    H2139815   0.609   7.148   1.127  0.0911  0.1980 -0.6465
  198MOL    C2239816   0.665   6.945   1.171  0.1805 -0.1863  0.1529
  198MOL    C2339817   0.717   6.913   1.030 -0.6356 -0.3179 -0.6782
  198MOL   Cl2439818   0.859   7.001   0.984  0.0010  0.3859 -0.0318
  198MOL    C2539819   0.661   6.820   0.949  0.4700  0.2020 -0.0941
  198MOL    C2639820   0.714   6.772   0.813  0.1456 -0.2191  0.7536
  198MOL    H2739821   0.745   6.983   1.235  0.3994 -1.2897  0.5464
  198MOL    H2839822   0.620   6.860   1.223  0.1823 -0.4277 -0.2402
  198MOL    H2939823   0.570   6.775   0.986  0.7272  1.9281  2.8105
  198MOL    H3039824   0.653   6.807   0.729  0.3954 -2.4443 -0.3978
  198MOL    H3139825   0.810   6.812   0.783 -0.7633  1.0054 -0.5652
  198MOL    C3239826   0.716   6.619   0.808 -0.2115  0.4200  0.0101
  198MOL    C3339827   0.738   6.564   0.673 -0.3661 -0.7558  0.5974
  198MOL   Cl3439828   0.618   6.443   0.634 -0.1677  0.3423  0.7402
  198MOL    C3539829   0.845   6.592   0.601 -0.6174  0.5143  0.3518
  198MOL    C3639830   0.885   6.532   0.467  0.0181 -0.2719  0.4660
  198MOL    H3739831   0.786   6.568   0.874 -1.0102 -0.0411  0.5148
  198MOL    H3839832   0.618   6.583   0.841 -0.7287  0.0081 -1.9233
  198MOL    H3939833   0.910   6.672   0.632  0.8571 -1.0683  1.4146
  198MOL    H4039834   0.798   6.502   0.408 -0.7454  2.7386 -0.0281
  198MOL    H4139835   0.933   6.608   0.406  0.6271 -0.8833  0.1850
  198MOL    C4239836   0.987   6.418   0.469  0.1472  0.1651  0.1245
  198MOL    C4339837   0.924   6.285   0.515  0.4909 -0.2429 -0.8012
  198MOL   Cl4439838   0.968   6.235   0.677  0.0475 -0.0246 -0.0260
  198MOL    C4539839   0.851   6.199   0.442  0.1863  0.1198 -0.4227
  198MOL    C4639840   0.826   6.215   0.293 -0.2643 -0.2026 -0.3958
  198MOL    H4739841   1.026   6.399   0.369  1.0253  0.6551  0.3711
  198MOL    H4839842   1.066   6.443   0.540  0.9940 -1.6485 -0.1630
  198MOL    H4939843   0.823   6.108   0.492  1.9119  1.3937  3.0434
  198MOL    H5039844   0.722   6.189   0.271 -0.3904  0.4961 -0.6387
  198MOL    H5139845   0.844   6.316   0.257 -0.3036 -0.4531 -1.1160
  198MOL    C5239846   0.917   6.118   0.219  0.1933  0.3285 -0.1909
  198MOL    C5339847   0.884   6.108   0.076 -0.6517  0.5269  0.2187
  198MOL   Cl5439848   0.971   6.230   8.399 -0.3044  0.1567 -0.3906
  198MOL    C5539849   0.790   6.022   0.030 -0.0227 -0.7767 -0.3594
  198MOL    C5639850   0.733   6.000   8.310 -0.2089  0.1204  0.3081
  198MOL    H5739851   1.022   6.141   0.238 -0.0972  2.1148 -0.6862
  198MOL    H5839852   0.902   6.022   0.268  1.4063 -0.1167 -0.6625
  198MOL    H5939853   0.749   5.965   0.113 -0.5796 -0.1562 -0.1991
  198MOL    H6039854   0.807   6.036   8.238  1.4269  1.3506  2.5242
  198MOL    H6139855   0.729   5.892   8.297 -0.5514  0.0416  1.0712
  198MOL    C6239856   0.600   6.066   8.294  0.3406 -0.6034 -0.0178
  198MOL    C6339857   0.530   6.038   8.160  0.6938  0.0511  0.3439
  198MOL   Cl6439858   0.394   5.934   8.189 -0.0158  0.1458 -0.4929
  198MOL    C6539859   0.555   6.087   8.043  0.3101 -0.4248  0.6167
  198MOL    C6639860   0.490   6.067   7.912  0.0050  0.0369 -0.2047
  198MOL    H6739861   0.533   6.047   8.378  0.0977  1.0236  0.1827
  198MOL    H6839862   0.618   6.173   8.304 -1.1024 -0.3426  0.0218
  198MOL    H6939863   0.635   6.159   8.032  0.6992 -1.2763 -2.4528
  198MOL    H7039864   0.434   6.155   7.878 -0.4909 -0.6355 -1.1400
  198MOL    H7139865   0.408   5.997   7.924 -0.4417  0.5858 -0.0158
  198MOL    C7239866   0.591   6.016   7.812  0.2421 -0.0359  0.2452
  198MOL    C7339867   0.648   5.879   7.847 -0.5356 -0.2488  0.7298
  198MOL   Cl7439868   0.584   5.759   7.741  0.0729 -0.2270 -0.1863
  198MOL    C7539869   0.759   5.856   7.919  0.6020 -0.2759  0.4663
  198MOL    C7639870   0.829   5.732   7.949  0.1523 -0.0796 -1.0415
  198MOL    H7739871   0.678   6.079   7.795  1.3133 -1.8173 -1.0077
  198MOL    H7839872   0.552   6.014   7.710  2.0942 -0.8060 -0.4681
  198MOL    H7939873   0.803   5.944   7.965 -2.1629  0.8250  1.0777
  198MOL    H8039874   0.934   5.753   7.928 -0.5420  0.7184 -3.9215
  198MOL    H8139875   0.805   5.646   7.887  2.2729  0.2449 -2.3574
  198MOL    C8239876   0.811   5.702   8.098 -0.6021  0.0020 -0.3398
  198MOL    C8339877   0.672   5.645   8.138  0.2646 -0.0380 -0.4513
  198MOL   Cl8439878   0.642   5.635   8.310  0.1624  0.1418  0.5124
  198MOL    C8539879   0.578   5.602   8.049  0.5169  0.0321 -0.0462
  198MOL    C8639880   0.435   5.543   8.069  0.0105  0.4676 -0.5598
  198MOL    H8739881   0.822   5.793   8.156  0.2845 -0.8888  0.8957
  198MOL    H8839882   0.888   5.632   8.130  0.3258  0.4506 -1.5753
  198MOL    H8939883   0.604   5.611   7.945 -1.0601  0.7475 -0.3899
  198MOL    H9039884   0.435   5.435   8.054 -0.2472  0.5654 -1.2914
  198MOL    H9139885   0.404   5.549   8.173  0.7462 -2.4384 -0.1257
  198MOL    C9239886   0.321   5.609   7.979  0.6227 -0.5435 -1.1979
  198MOL    C9339887   0.178   5.572   8.015  0.1428  0.9112  0.4970
  198MOL   Cl9439888   0.148   5.407   8.046  0.0388  0.3635 -0.4673
  198MOL    C9539889   0.075   5.656   8.003 -0.2003  0.3878  0.1414
  198MOL    C9639890   0.063   5.808   7.973  0.0857 -0.3003 -0.2983
  198MOL    H9739891   0.331   5.588   7.872  0.4053  1.2069 -1.5696
  198MOL    H9839892   0.335   5.716   7.988 -2.1228 -0.1746 -0.6930
  198MOL    H9939893   8.401   5.606   8.018  0.3823 -1.1942 -1.2150
  198MOL   H10039894   0.155   5.855   8.006 -0.9914  2.6974 -1.3381
  198MOL   H10139895   0.060   5.813   7.864  1.4170 -2.5799 -0.4718
  198MOL   C10239896   8.361   5.875   8.030 -0.2904  0.5961  0.4665
  198MOL   C10339897   8.361   6.027   8.027  0.2384 -0.1366 -0.5564
  198MOL  Cl10439898   8.229   6.095   8.123 -0.1319  0.2983  0.3082
  198MOL   C10539899   0.035   6.103   7.978  0.2036  0.1605  0.2165
  198MOL   C10639900   0.040   6.252   7.997  0.0305  0.0969 -0.2185
  198MOL   H10739901   8.286   5.861   7.953 -0.6461  0.3540  0.8603
  198MOL   H10839902   8.315   5.829   8.117 -0.2394 -0.3508 -0.0043
  198MOL   H10939903   0.111   6.059   7.915  0.0197  0.1862 -0.0241
  198MOL   H11039904   8.415   6.299   7.910 -1.4021  0.8040  0.8939
  198MOL   H11139905   8.395   6.292   8.074 -1.8223  0.0959 -1.7337
  198MOL   C11239906   0.185   6.306   8.002  0.4446  0.0433  0.5937
  198MOL   C11339907   0.201   6.457   7.998 -0.7269  0.5302 -0.5281
  198MOL  Cl11439908   0.050   6.542   8.002 -0.1389  0.1084  0.4219
  198MOL   C11539909   0.323   6.519   7.987 -0.3298 -0.5346  0.5537
  198MOL   C11639910   0.454   6.448   7.957 -0.3981  0.1244 -0.7797
  198MOL   H11739911   0.222   6.276   8.100 -0.2263 -1.7613  0.3230
  198MOL   H11839912   0.240   6.264   7.918  1.0153  0.1331  0.9190
  198MOL   H11939913   0.327   6.626   7.996  0.7423 -0.6887  1.9944
  198MOL   H12039914   0.431   6.342   7.969 -0.3039  0.1946  0.0480
  198MOL   H12139915   0.524   6.470   8.038 -1.2381 -0.9301  0.2554
  198MOL   C12239916   0.514   6.481   7.819  0.4548 -0.0586 -0.1597
  198MOL   C12339917   0.644   6.400   7.786  0.1425  0.2115  0.0236
  198MOL  Cl12439918   0.760   6.391   7.913 -0.2354  0.1209  0.2580
  198MOL   C12539919   0.672   6.327   7.681  0.2606  0.6282 -0.1365
  198MOL   C12639920   0.573   6.302   7.566 -0.9699  0.0880  0.0245
  198MOL   H12739921   0.442   6.470   7.738 -0.2551 -1.7874  0.6709
  198MOL   H12839922   0.553   6.583   7.823 -1.3794  0.6128  1.2765
  198MOL   H12939923   0.766   6.274   7.673 -1.3653 -2.2324 -1.1039
  198MOL   H13039924   0.512   6.216   7.596 -1.1685  0.1778 -0.1207
  198MOL   H13139925   0.515   6.393   7.551 -0.0740  0.5864 -0.4121
  198MOL   C13239926   0.655   6.274   7.435 -0.1340  0.6381  0.1684
  198MOL   C13339927   0.571   6.203   7.330  0.7493 -0.3482  0.4713
  198MOL  Cl13439928   0.491   6.318   7.215  0.2399  0.0110  0.0047
  198MOL   C13539929   0.568   6.066   7.326  0.6253  0.3397 -0.2890
  198MOL   C13639930   0.651   5.967   7.416  0.0271  0.3104  0.1253
  198MOL   H13739931   0.695   6.372   7.406 -1.0455  0.9125 -0.1800
  198MOL   H13839932   0.738   6.208   7.462  0.8222  2.0252  0.6988
  198MOL   H13939933   0.509   6.017   7.250  1.2493  1.4466 -1.4941
  198MOL   H14039934   0.684   6.007   7.511  0.7193  0.0857 -0.0150
  198MOL   H14139935   0.573   5.898   7.447 -0.4345  0.5272 -0.5324
  198MOL   C14239936   0.771   5.911   7.341  0.0969  0.4662 -0.2477
  198MOL   C14339937   0.879   5.853   7.439 -0.3528 -0.1300 -0.4306
  198MOL  Cl14439938   1.020   5.951   7.459 -0.1546  0.0650 -0.1147
  198MOL   C14539939   0.858   5.739   7.509  0.1472 -0.1311 -0.2081
  198MOL   C14639940   0.950   5.665   7.609 -0.9213 -0.7469 -0.1709
  198MOL   H14739941   0.829   5.983   7.283 -1.1539  0.1899 -1.8620
  198MOL   H14839942   0.742   5.841   7.263 -1.2523  1.5554 -0.7287
  198MOL   H14939943   0.768   5.681   7.497 -1.0413  1.8034 -0.7561
  198MOL   H15039944   1.002   5.737   7.673 -1.1043  0.4278 -1.3165
  198MOL   H15139945   0.879   5.612   7.673 -0.4829 -0.3927  0.6234
  198MOL   C15239946   1.041   5.564   7.538 -0.0032  0.5110  0.4393
  198MOL   C15339947   1.154   5.495   7.616 -0.4624 -0.3020  0.4310
  198MOL  Cl15439948   1.250   5.411   7.505  0.0939  0.4073  0.2148
  198MOL   C15539949   1.168   5.490   7.752  0.6244  0.3072  0.2025
  198MOL   C15639950   1.279   5.426   7.829 -0.3708  0.1273  1.0408
  198MOL   H15739951   0.972   5.491   7.495  1.3911 -0.1397 -0.7385
  198MOL   H15839952   1.088   5.615   7.453 -2.2331 -0.9456 -1.7449
  198MOL   H15939953   1.102   5.543   7.819 -1.3443 -3.3851  1.2843
  198MOL   H16039954   1.345   5.502   7.870 -1.1703 -0.0468  2.6629
  198MOL   H16139955   1.332   5.367   7.754  3.9340  3.0320  1.6325
  198MOL   C16239956   1.231   5.337   7.945 -0.1519 -0.1596  0.5363
  198MOL   C16339957   1.162   5.402   8.060 -0.6514 -0.1831 -0.4423
  198MOL  Cl16439958   1.214   5.564   8.108  0.1132 -0.6730 -0.0118
  198MOL   C16539959   1.096   5.323   8.147  0.1633 -0.0663  0.1641
  198MOL   C16639960   1.038   5.345   8.285 -0.0508 -0.0074 -0.1821
  198MOL   H16739961   1.166   5.261   7.903 -1.5255  1.6449 -0.6862
  198MOL   H16839962   1.320   5.281   7.973  0.3430 -1.1490 -2.7347
  198MOL   H16939963   1.080   5.222   8.112 -1.7378  0.7296 -1.3391
  198MOL   H17039964   1.090   5.279   8.355 -1.2117 -0.3039  0.4128
  198MOL   H17139965   1.067   5.444   8.322 -1.6132  0.3149  0.2500
  198MOL   C17239966   0.886   5.333   8.277  0.7733 -0.7309 -0.5589
  198MOL   C17339967   0.813   5.340   8.416  0.1531 -0.4320 -0.3214
  198MOL  Cl17439968   0.677   5.229   0.006  0.2207  0.3499 -0.4078
  198MOL   C17539969   0.860   5.410   0.102  0.0263  0.3371 -0.2393
  198MOL   C17639970   0.809   5.423   0.242 -0.5274 -0.2741  0.5184
  198MOL   H17739971   0.862   5.238   8.231  0.0258 -1.4879  1.3314
  198MOL   H17839972   0.844   5.416   8.220 -2.3147 -0.9499  1.2469
  198MOL   H17939973   0.955   5.459   0.090  2.0000 -2.7184  2.0194
  198MOL   H18039974   0.888   5.402   0.314  1.0211  0.9314 -0.8003
  198MOL   H18139975   0.734   5.347   0.265 -2.7262  2.4891  2.8232
  198MOL   C18239976   0.755   5.562   0.271 -0.2778 -0.4237  0.1535
  198MOL   C18339977   0.705   5.563   0.419  0.3414 -0.4546 -0.3550
  198MOL  Cl18439978   0.795   5.678   0.515  0.0114  0.1025  0.1626
  198MOL   C18539979   0.612   5.479   0.472 -0.7587  0.4006  0.4830
  198MOL   C18639980   0.572   5.476   0.621 -0.3627 -0.2540  0.0891
  198MOL   H18739981   0.817   5.651   0.257 -0.4584  0.0190  1.9327
  198MOL   H18839982   0.678   5.579   0.196  1.3036  1.3470 -1.1212
  198MOL   H18939983   0.567   5.406   0.406 -0.7976  1.3797 -0.5848
  198MOL   H19039984   0.597   5.572   0.665  1.6139 -0.2968 -0.8685
  198MOL   H19139985   0.463   5.467   0.624 -0.7240  3.4447 -0.2315
  198MOL   C19239986   0.629   5.364   0.705 -0.1367  0.3510  0.1483
  198MOL   C19339987   0.591   5.355   0.845  0.2369 -0.1300 -0.5078
  198MOL  Cl19439988   0.460   5.242   0.874 -0.3198  0.0820 -0.1410
  198MOL   C19539989   0.661   5.410   0.953  0.1414  0.6149  0.3997
  198MOL   C19639990   0.788   5.494   0.947  0.6962  0.1600 -0.5934
  198MOL   H19739991   0.736   5.364   0.685  0.1614  3.8824  1.4201
  198MOL   H19839992   0.604   5.270   0.655  0.6518 -0.7545  1.7988
  198MOL   H19939993   0.618   5.395   1.051 -1.3183 -0.7256 -0.4164
  198MOL   H20039994   0.856   5.438   1.011  0.0942  0.1543  0.0531
  198MOL   H20139995   0.772   5.590   0.995  2.9311  1.1518 -1.7573
  198MOL   H20239996   0.828   5.496   0.846  1.4310 -2.2578 -0.3717
  199MOL     C139997   8.418   0.757   7.063 -0.4844  0.2959 -0.5225
  199MOL     C239998   0.097   0.768   7.173 -0.8389 -0.7214 -0.2178
  199MOL    Cl339999   0.100   0.623   7.258  0.2920 -0.1266  0.4394
  199MOL     C440000   0.183   0.867   7.207  0.2022  0.2210  0.6781
  199MOL     C540001   0.191   0.998   7.136 -0.0562 -0.8302  0.1995
  199MOL     H640002   8.374   0.657   7.063 -1.4601  0.6969  1.9553
  199MOL     H740003   0.054   0.778   6.972 -0.6300 -2.7998 -1.3919
  199MOL     H840004   0.260   0.856   7.281  0.1764  2.6786  1.1072
  199MOL     H940005   0.130   1.002   7.046 -0.2173  0.8929  0.3774
  199MOL    H1040006   0.146   1.073   7.200  1.9179 -0.5362  1.2654
  199MOL    H1140007   8.336   0.827   7.073  1.1436  2.0206  1.2308
  199MOL    C1240008   0.333   1.049   7.114  0.3855  0.6522 -0.3414
  199MOL    C1340009   0.334   1.188   7.054  0.0484 -0.7345  0.7464
  199MOL   Cl1440010   0.300   1.191   6.883  0.0331  0.2526  0.2298
  199MOL    C1540011   0.333   1.302   7.116  0.7129 -0.3115 -0.0856
  199MOL    C1640012   0.337   1.319   7.271  0.5925  0.4263 -0.7702
  199MOL    H1740013   0.386   1.063   7.208  1.3664 -2.3225 -0.3796
  199MOL    H1840014   0.390   0.972   7.062  1.6476  0.7478  0.8520
  199MOL    H1940015   0.336   1.387   7.048  0.9346  0.9061  1.4177
  199MOL    H2040016   0.302   1.234   7.329 -0.9333  1.0004 -0.8256
  199MOL    H2140017   0.442   1.347   7.284  1.1196 -2.2503  1.2313
  199MOL    C2240018   0.246   1.437   7.307 -0.2606 -0.0957 -0.2206
  199MOL    C2340019   0.269   1.493   7.444 -0.4352 -0.4995 -0.2340
  199MOL   Cl2440020   0.297   1.666   7.445  0.1492  0.1351  0.0842
  199MOL    C2540021   0.258   1.423   7.560 -0.1851 -0.7297  0.7539
  199MOL    C2640022   0.259   1.464   7.705 -0.3119  0.0998  0.7115
  199MOL    H2740023   0.246   1.514   7.230  0.8976 -1.3444 -1.4934
  199MOL    H2840024   0.146   1.395   7.301 -1.4503  2.6311 -0.1943
  199MOL    H2940025   0.239   1.317   7.547 -2.1825 -0.1994 -1.0487
  199MOL    H3040026   0.348   1.418   7.749 -0.4612 -1.4203 -0.5305
  199MOL    H3140027   0.287   1.568   7.722  0.2050 -0.0731  0.9117
  199MOL    C3240028   0.138   1.436   7.792  0.0244  0.1815 -0.2544
  199MOL    C3340029   0.181   1.431   7.942 -0.3655  0.5626 -0.3911
  199MOL   Cl3440030   0.208   1.263   7.980 -0.3494 -0.0430  0.2947
  199MOL    C3540031   0.179   1.535   8.028 -0.3989  0.1900 -1.1032
  199MOL    C3640032   0.204   1.529   8.177  0.1371  0.1692 -0.4978
  199MOL    H3740033   0.052   1.502   7.781 -1.6180 -1.9717 -0.8126
  199MOL    H3840034   0.108   1.334   7.769 -1.3308  0.8175 -1.3863
  199MOL    H3940035   0.145   1.633   7.998 -0.7436  0.1569 -0.8306
  199MOL    H4040036   0.106   1.549   8.222 -0.0153  0.4079 -0.9278
  199MOL    H4140037   0.230   1.430   8.215 -0.1652  0.0809 -0.5186
  199MOL    C4240038   0.312   1.635   8.215 -0.5200 -0.1824  0.5541
  199MOL    C4340039   0.321   1.647   8.374  0.4068 -0.4377 -0.1568
  199MOL   Cl4440040   0.244   1.789   0.012  0.3933  0.1626 -0.2190
  199MOL    C4540041   0.386   1.571   0.032  0.3540 -0.0531 -0.2273
  199MOL    C4640042   0.471   1.450   0.002  0.3544  0.6096 -0.2672
  199MOL    H4740043   0.405   1.592   8.178 -2.0107 -2.3202 -0.8507
  199MOL    H4840044   0.311   1.735   8.171  0.7839 -0.4128 -0.0343
  199MOL    H4940045   0.376   1.589   0.138 -0.2157 -1.7660  0.0275
  199MOL    H5040046   0.434   1.380   0.077  0.6794  2.0188  1.2240
  199MOL    H5140047   0.463   1.418   8.319  0.1323 -1.2230  0.2962
  199MOL    C5240048   0.620   1.473   0.038  0.1354  0.2628 -0.1483
  199MOL    C5340049   0.720   1.361   8.412  0.2209  0.5750 -0.1641
  199MOL   Cl5440050   0.784   1.403   8.257 -0.1485  0.1373  0.2297
  199MOL    C5540051   0.753   1.251   0.059 -0.0714  0.4431  0.3234
  199MOL    C5640052   0.835   1.135   0.007 -0.7311  0.0259 -0.4274
  199MOL    H5740053   0.649   1.569   8.416 -1.0477  0.6204 -0.1538
  199MOL    H5840054   0.622   1.497   0.144 -1.2706  1.5965 -0.4182
  199MOL    H5940055   0.714   1.233   0.158  1.7299  0.9531  1.1441
  199MOL    H6040056   0.764   1.053   8.415  0.3670 -1.1915  1.1582
  199MOL    H6140057   0.891   1.164   8.339 -0.8819 -0.9073 -0.8338
  199MOL    C6240058   0.945   1.097   0.112 -0.2790 -0.1852 -0.2117
  199MOL    C6340059   1.048   1.199   0.163  0.1012 -0.7440  0.2578
  199MOL   Cl6440060   1.063   1.198   0.334  0.1264 -0.0741  0.2808
  199MOL    C6540061   1.101   1.290   0.079  0.8116 -0.3054 -0.2691
  199MOL    C6640062   1.190   1.403   0.114 -0.1883 -0.5207 -0.4349
  199MOL    H6740063   0.884   1.068   0.198  0.0807 -0.4436 -0.0450
  199MOL    H6840064   0.988   1.001   0.082 -1.5952 -0.5099 -1.1255
  199MOL    H6940065   1.060   1.293   8.400  0.6556 -1.4672 -0.2479
  199MOL    H7040066   1.268   1.371   0.184 -0.7838  0.8322  0.8746
  199MOL    H7140067   1.145   1.496   0.150 -0.6007 -0.0565 -2.1149
  199MOL    C7240068   1.275   1.433   8.415  0.6074  0.3023  0.5517
  199MOL    C7340069   1.370   1.539   0.037 -0.5833 -0.4570  0.1530
  199MOL   Cl7440070   1.302   1.698   0.032  0.1722  0.0702  0.0400
  199MOL    C7540071   1.501   1.526   0.056 -0.2907  0.1773 -0.5568
  199MOL    C7640072   1.610   1.626   0.093  0.0107 -0.0056  0.2253
  199MOL    H7740073   1.213   1.466   8.331  0.8323 -1.0956 -0.1830
  199MOL    H7840074   1.324   1.345   8.373 -0.9392 -0.7054  0.8289
  199MOL    H7940075   1.540   1.425   0.052  1.5514  0.8605 -0.5223
  199MOL    H8040076   1.663   1.605   0.186  3.1053  0.0912 -1.4618
  199MOL    H8140077   1.566   1.725   0.110 -1.5615  0.1096 -3.8103
  199MOL    C8240078   1.728   1.613   8.414 -0.4363 -0.5806 -0.6149
  199MOL    C8340079   1.829   1.722   0.006  0.7598 -0.2463  0.2402
  199MOL   Cl8440080   1.978   1.656   0.075 -0.0060  0.2898 -0.1375
  199MOL    C8540081   1.823   1.839   8.365 -0.0825 -0.2575 -0.2591
  199MOL    C8640082   1.924   1.947   8.371  0.7404 -0.2384  0.1709
  199MOL    H8740083   1.701   1.610   8.308 -0.0255  0.6162 -0.7596
  199MOL    H8840084   1.768   1.513   0.007 -1.5191 -0.8434  0.6958
  199MOL    H8940085   1.736   1.858   8.304 -0.5495  1.7320  0.9780
  199MOL    H9040086   2.018   1.913   8.413  0.9459  1.1781  0.8657
  199MOL    H9140087   1.948   1.974   8.268  0.0859  0.0198  0.0802
  199MOL    C9240088   1.875   2.076   0.025  0.3508  0.6466  0.1619
  199MOL    C9340089   1.967   2.197   0.016 -0.7131  0.1540 -0.1574
  199MOL   Cl9440090   2.138   2.164   0.028 -0.0201 -0.6594 -0.0321
  199MOL    C9540091   1.939   2.327   0.009  0.0426 -0.3163  0.6081
  199MOL    C9640092   1.805   2.397   0.002  0.0815  0.5588  0.4984
  199MOL    H9740093   1.873   2.051   0.131  0.9361 -0.2548 -0.0342
  199MOL    H9840094   1.771   2.100   0.004  0.2532 -0.7904 -1.0733
  199MOL    H9940095   2.016   2.403   0.007  0.1817 -0.4166  1.6407
  199MOL   H10040096   1.800   2.454   8.330  2.4318 -2.7570 -1.8001
  199MOL   H10140097   1.722   2.326   0.001 -1.4553  2.3300 -0.1866
  199MOL   C10240098   1.783   2.482   0.124 -0.8323  0.0950  0.1122
  199MOL   C10340099   1.644   2.538   0.127  0.2228 -0.0774  0.2705
  199MOL  Cl10440100   1.546   2.431   0.218 -0.1289  0.3151  0.1715
  199MOL   C10540101   1.611   2.660   0.090 -0.2035 -0.0100  0.1709
  199MOL   C10640102   1.471   2.721   0.111  0.2559 -0.4209  0.5435
  199MOL   H10740103   1.800   2.420   0.212  0.4812  2.2192  1.3885
  199MOL   H10840104   1.851   2.567   0.129 -0.0746 -0.3882 -1.6704
  199MOL   H10940105   1.688   2.715   0.038 -0.1430 -0.8841 -0.6870
  199MOL   H11040106   1.440   2.780   0.025 -0.2390 -0.5439  0.6335
  199MOL   H11140107   1.398   2.641   0.127  0.0493 -0.5146 -0.8208
  199MOL   C11240108   1.471   2.819   0.231 -0.0467 -0.0453 -0.2999
  199MOL   C11340109   1.336   2.872   0.264  0.3782 -0.4732  0.5844
  199MOL  Cl11440110   1.284   3.015   0.171 -0.1457  0.1091  0.2652
  199MOL   C11540111   1.251   2.811   0.346  0.0270 -0.3336  0.1447
  199MOL   C11640112   1.286   2.691   0.442 -0.1463  0.5546 -0.1079
  199MOL   H11740113   1.518   2.776   0.320  2.0184  2.0094 -0.3589
  199MOL   H11840114   1.541   2.901   0.220  2.7369 -2.2516  0.2438
  199MOL   H11940115   1.149   2.846   0.340  0.2682  0.6345  1.3727
  199MOL   H12040116   1.328   2.750   0.523  1.2373  0.5153 -0.7674
  199MOL   H12140117   1.363   2.628   0.396 -0.0392  0.3857  0.3020
  199MOL   C12240118   1.167   2.600   0.481  0.0056 -0.3786  0.3462
  199MOL   C12340119   1.112   2.531   0.361  0.0756 -0.4760  0.7356
  199MOL  Cl12440120   0.987   2.635   0.294 -0.1407 -0.0237  0.0223
  199MOL   C12540121   1.146   2.411   0.305 -0.0753  0.0418 -0.6044
  199MOL   C12640122   1.254   2.318   0.356 -0.4313  0.5055 -0.2389
  199MOL   H12740123   1.201   2.519   0.546  0.0911 -0.6452 -0.0298
  199MOL   H12840124   1.094   2.656   0.539 -0.3980  1.1289 -1.5595
  199MOL   H12940125   1.094   2.367   0.221  0.2620  3.1531 -2.5671
  199MOL   H13040126   1.324   2.302   0.274 -0.8154 -1.1591 -0.2705
  199MOL   H13140127   1.322   2.368   0.424 -2.3298  0.3590  1.8225
  199MOL   C13240128   1.177   2.192   0.399 -0.4484  0.3052  0.0006
  199MOL   C13340129   1.270   2.088   0.456 -0.0531  0.6192  0.4584
  199MOL  Cl13440130   1.215   2.043   0.615  0.1957 -0.3209  0.1972
  199MOL   C13540131   1.370   2.020   0.407 -0.6006  0.7333 -0.0217
  199MOL   C13640132   1.441   2.033   0.268 -0.8848 -0.7906  0.3687
  199MOL   H13740133   1.107   2.213   0.480 -0.1634 -1.0473  0.6216
  199MOL   H13840134   1.124   2.148   0.315  2.1408 -0.9066 -1.0509
  199MOL   H13940135   1.411   1.948   0.476 -0.7341  0.9016  0.2341
  199MOL   H14040136   1.434   1.932   0.227 -2.5535 -0.2489 -0.7101
  199MOL   H14140137   1.382   2.099   0.205 -1.2332 -0.2292  1.2817
  199MOL   C14240138   1.585   2.071   0.292 -0.4691  0.9670 -0.2645
  199MOL   C14340139   1.656   1.993   0.401  1.5506  0.8695 -0.5370
  199MOL  Cl14440140   1.718   1.842   0.338 -0.1190 -0.0031  0.6158
  199MOL   C14540141   1.668   2.033   0.528  0.1784 -0.5878 -0.5065
  199MOL   C14640142   1.747   1.949   0.635 -0.4457 -0.2256  0.4261
  199MOL   H14740143   1.599   2.177   0.314  1.7039  0.6002  0.1998
  199MOL   H14840144   1.635   2.073   0.195 -0.0316 -1.2188 -0.1043
  199MOL   H14940145   1.624   2.127   0.556  2.3995  0.6260 -0.9996
  199MOL   H15040146   1.706   1.848   0.633 -0.1241 -0.3366 -0.9832
  199MOL   H15140147   1.848   1.956   0.597 -1.2730 -1.1954 -2.0421
  199MOL   C15240148   1.732   2.015   0.774 -0.9000  0.2706 -0.0337
  199MOL   C15340149   1.820   1.955   0.887 -0.4897 -1.1011 -0.9197
  199MOL  Cl15440150   1.773   1.800   0.939 -0.1999  0.2534 -0.3470
  199MOL   C15540151   1.911   2.034   0.950  0.6555  0.0229  0.6039
  199MOL   C15640152   1.988   1.983   1.073  0.4321 -0.1611 -0.3039
  199MOL   H15740153   1.764   2.119   0.763  2.5959 -0.7891 -0.7353
  199MOL   H15840154   1.627   2.023   0.801 -1.0247 -0.1457 -0.3936
  199MOL   H15940155   1.925   2.136   0.918 -1.1330 -0.2393 -1.1073
  199MOL   H16040156   2.095   1.996   1.055  0.4876  0.2510  0.3132
  199MOL   H16140157   1.966   1.876   1.076 -2.1196  0.3286 -0.6388
  199MOL   C16240158   1.955   2.063   1.198  0.4333  0.0190 -0.5080
  199MOL   C16340159   2.037   2.027   1.324 -0.5288 -0.1289  0.1966
  199MOL  Cl16440160   1.949   2.072   1.467  0.4145  0.3053 -0.2960
  199MOL   C16540161   2.161   1.969   1.322 -0.5028  0.4750 -0.0679
  199MOL   C16640162   2.245   1.933   1.442  0.5335  0.2736  0.1444
  199MOL   H16740163   1.975   2.169   1.178  1.4720  0.6226  3.2577
  199MOL   H16840164   1.852   2.042   1.227  0.3640 -0.1504 -0.8821
  199MOL   H16940165   2.203   1.947   1.225 -0.0099  3.2584 -0.5207
  199MOL   H17040166   2.336   1.993   1.452  1.3453 -0.4474 -2.5587
  199MOL   H17140167   2.193   1.966   1.532  1.1914 -0.0291  0.6384
  199MOL   C17240168   2.284   1.782   1.431  0.7199 -0.9583  0.2205
  199MOL   C17340169   2.171   1.678   1.413  0.1854 -0.1361 -0.1719
  199MOL  Cl17440170   2.117   1.626   1.577  0.4952 -0.1345 -0.4898
  199MOL   C17540171   2.132   1.624   1.302 -0.4308  0.7683  0.8474
  199MOL   C17640172   2.030   1.514   1.297  0.6587 -0.2621 -0.6583
  199MOL   H17740173   2.358   1.764   1.509  1.8441  3.5382  0.3350
  199MOL   H17840174   2.350   1.761   1.346  0.4244  1.5503 -0.6731
  199MOL   H17940175   2.179   1.656   1.211  1.7101 -0.8315  1.3508
  199MOL   H18040176   1.948   1.547   1.361  1.1242 -0.9487  0.2953
  199MOL   H18140177   2.067   1.417   1.331 -0.4104 -0.1089  0.9636
  199MOL   C18240178   1.980   1.493   1.150 -0.2515  0.1516 -0.3637
  199MOL   C18340179   1.860   1.402   1.138  0.1967 -0.4497  0.5869
  199MOL  Cl18440180   1.893   1.260   1.051 -0.2046 -0.1526  0.0749
  199MOL   C18540181   1.741   1.434   1.187  0.4037 -0.3973  0.1795
  199MOL   C18640182   1.612   1.345   1.191 -0.3582 -0.1039 -0.3033
  199MOL   H18740183   1.973   1.593   1.107 -3.7748  1.1669  2.3657
  199MOL   H18840184   2.064   1.446   1.097 -0.4514 -2.0140  1.1557
  199MOL   H18940185   1.729   1.531   1.233 -0.6632 -0.7108  0.5798
  199MOL   H19040186   1.626   1.262   1.121  3.3257 -2.2536  2.7971
  199MOL   H19140187   1.593   1.310   1.293  0.6894  0.6986  0.1705
  199MOL   C19240188   1.483   1.426   1.162  0.4809 -0.0718  0.6925
  199MOL   C19340189   1.358   1.350   1.188 -0.5053  0.2184 -0.4248
  199MOL  Cl19440190   1.270   1.415   1.319 -0.0096 -0.2215  0.5478
  199MOL   C19540191   1.311   1.249   1.113 -0.2661 -0.2822 -0.3097
  199MOL   C19640192   1.388   1.173   1.007  0.2254 -0.2849  0.0068
  199MOL   H19740193   1.470   1.443   1.055 -2.7214 -1.2802  0.8508
  199MOL   H19840194   1.490   1.530   1.195  3.0366  0.1325 -0.3740
  199MOL   H19940195   1.212   1.215   1.143 -0.8471  1.3443 -0.3254
  199MOL   H20040196   1.450   1.245   0.954 -0.9904 -0.0157 -1.0818
  199MOL   H20140197   1.320   1.129   0.934  0.2493  0.9358 -0.7688
  199MOL   H20240198   1.440   1.082   1.036  2.2976  0.5497 -0.9407
  200MOL     C140199   4.479   7.314   1.806 -0.5029 -0.1507  0.6394
  200MOL     C240200   4.337   7.379   1.828  0.5988  0.1869 -0.4626
  200MOL    Cl340201   4.214   7.273   1.791  0.1959  0.2438 -0.2745
  200MOL     C440202   4.311   7.489   1.895  0.4653 -0.5341 -0.0573
  200MOL     C540203   4.420   7.579   1.946  0.3099 -0.4020 -0.5933
  200MOL     H640204   4.532   7.387   1.745  1.5982 -1.8694  0.3146
  200MOL     H740205   4.483   7.219   1.751  0.5232 -1.0982  2.3076
  200MOL     H840206   4.210   7.519   1.922  0.6055 -0.5539  0.4997
  200MOL     H940207   4.515   7.557   1.897  0.3228  1.6189 -1.5210
  200MOL    H1040208   4.396   7.679   1.910  0.2587  0.3013  1.3283
  200MOL    H1140209   4.537   7.305   1.898  0.0567 -0.1883  0.2811
  200MOL    C1240210   4.436   7.587   2.099 -0.4938 -1.0684  0.3148
  200MOL    C1340211   4.579   7.637   2.127  0.0132 -0.4633 -0.9014
  200MOL   Cl1440212   4.581   7.811   2.127 -0.0274  0.1051 -0.0284
  200MOL    C1540213   4.692   7.570   2.145 -0.5159  0.5354 -0.9031
  200MOL    C1640214   4.719   7.424   2.153 -0.2998 -0.6895  0.2660
  200MOL    H1740215   4.364   7.655   2.145  0.3976  0.1802 -0.1023
  200MOL    H1840216   4.418   7.490   2.145 -2.3806  0.3549  2.7206
  200MOL    H1940217   4.776   7.637   2.157 -1.1903  1.1108  0.8586
  200MOL    H2040218   4.746   7.402   2.256 -1.3947 -0.5440  0.5848
  200MOL    H2140219   4.634   7.360   2.130 -0.3560 -0.0295 -1.4446
  200MOL    C2240220   4.838   7.379   2.061 -0.2055 -0.3687 -0.6419
  200MOL    C2340221   4.872   7.234   2.082 -1.0493  0.0308 -0.4551
  200MOL   Cl2440222   4.733   7.135   2.035 -0.2537  0.1355 -0.1069
  200MOL    C2540223   4.993   7.190   2.127  0.3977  0.3438  0.0561
  200MOL    C2640224   5.017   7.035   2.146  0.0334 -0.1209  0.9212
  200MOL    H2740225   4.807   7.388   1.956  0.3974 -0.0316 -0.7922
  200MOL    H2840226   4.931   7.433   2.080 -0.1237 -1.2472  1.5570
  200MOL    H2940227   5.077   7.249   2.159 -1.3546  2.7988  0.2453
  200MOL    H3040228   4.949   6.990   2.218  0.1215 -0.2399  0.9283
  200MOL    H3140229   5.008   6.982   2.051  3.9582  0.9095 -0.1063
  200MOL    C3240230   5.160   7.005   2.197  0.2094 -0.1779  0.2988
  200MOL    C3340231   5.209   6.864   2.172 -0.0490 -0.4589  0.1745
  200MOL   Cl3440232   5.293   6.847   2.021  0.0435  0.4589 -0.4175
  200MOL    C3540233   5.189   6.765   2.266  0.2453 -0.0467  0.2007
  200MOL    C3640234   5.243   6.622   2.255 -0.4673  0.7765  0.1734
  200MOL    H3740235   5.237   7.073   2.162 -0.3993  0.8521  0.9409
  200MOL    H3840236   5.149   7.028   2.303  0.1127  0.0515  0.2383
  200MOL    H3940237   5.132   6.798   2.351  1.4007  0.4241  0.8012
  200MOL    H4040238   5.170   6.547   2.283  0.1026  0.8974  2.1338
  200MOL    H4140239   5.259   6.594   2.151  0.3978 -0.4107  0.6156
  200MOL    C4240240   5.379   6.610   2.325 -0.7288  0.2212  0.0757
  200MOL    C4340241   5.446   6.470   2.343  0.4276  0.7243 -0.4299
  200MOL   Cl4440242   5.557   6.439   2.209  0.0474 -0.0334  0.1995
  200MOL    C4540243   5.419   6.389   2.448  0.0767 -0.5738  0.1843
  200MOL    C4640244   5.317   6.422   2.558 -0.0285 -0.1016 -0.1459
  200MOL    H4740245   5.445   6.675   2.267 -0.3247  1.4687  1.9013
  200MOL    H4840246   5.359   6.648   2.425 -1.3882  1.3787 -0.4835
  200MOL    H4940247   5.467   6.293   2.454 -0.0618 -0.6296  0.4082
  200MOL    H5040248   5.366   6.484   2.633 -0.7407  0.2278  0.0500
  200MOL    H5140249   5.237   6.488   2.523  0.4200  0.2022 -0.5998
  200MOL    C5240250   5.268   6.287   2.617  0.3646  0.0948 -0.1427
  200MOL    C5340251   5.173   6.305   2.737  0.5031 -0.6525  0.7126
  200MOL   Cl5440252   5.207   6.199   2.867  0.1322  0.1007 -0.1716
  200MOL    C5540253   5.072   6.387   2.752 -0.4313 -0.0666 -0.2360
  200MOL    C5640254   4.988   6.405   2.883 -0.3134  0.0418 -0.2318
  200MOL    H5740255   5.219   6.229   2.539  0.7592 -1.0504  0.4471
  200MOL    H5840256   5.352   6.230   2.656  0.8286  1.7878  1.4152
  200MOL    H5940257   5.048   6.457   2.673  1.0763  0.3342 -0.3680
  200MOL    H6040258   4.885   6.396   2.850  0.3439 -0.4297 -2.2204
  200MOL    H6140259   5.007   6.325   2.955  0.8973 -0.9050 -1.5521
  200MOL    C6240260   5.023   6.533   2.950 -0.0206  0.7443  0.1423
  200MOL    C6340261   4.915   6.572   3.050 -0.0287  0.6484 -0.5606
  200MOL   Cl6440262   4.958   6.508   3.203  0.2645 -0.0188 -0.0070
  200MOL    C6540263   4.807   6.651   3.022  0.1382 -0.3402 -0.4894
  200MOL    C6640264   4.712   6.700   3.131  0.4223 -0.0622 -0.3173
  200MOL    H6740265   5.123   6.532   2.994  1.0863  1.9027 -2.2307
  200MOL    H6840266   5.039   6.613   2.877  2.2204 -0.1457 -0.3909
  200MOL    H6940267   4.789   6.679   2.919  0.5776 -0.4219 -0.5916
  200MOL    H7040268   4.732   6.641   3.220 -0.8897  0.6694  0.4817
  200MOL    H7140269   4.609   6.677   3.104  0.2062 -0.7430  1.0950
  200MOL    C7240270   4.723   6.852   3.145  0.8742  0.4619  0.1983
  200MOL    C7340271   4.650   6.900   3.271 -0.3244 -0.0203  0.5301
  200MOL   Cl7440272   4.746   6.984   3.378  0.2003  0.0452 -0.0790
  200MOL    C7540273   4.522   6.880   3.285  0.2771  0.7233  0.5183
  200MOL    C7640274   4.420   6.933   3.390  0.9717 -0.6363  0.7106
  200MOL    H7740275   4.684   6.895   3.053  3.3913  0.1957 -1.0514
  200MOL    H7840276   4.830   6.873   3.149  1.0898 -0.4902 -0.3880
  200MOL    H7940277   4.487   6.808   3.213  3.0615  0.2422 -0.4405
  200MOL    H8040278   4.462   6.925   3.491  2.2716 -2.1211  0.0743
  200MOL    H8140279   4.331   6.871   3.385  1.6493 -1.7958  2.4018
  200MOL    C8240280   4.380   7.071   3.370 -0.1054  0.2742 -0.1461
  200MOL    C8340281   4.277   7.120   3.481  0.5144 -0.3832  0.2268
  200MOL   Cl8440282   4.186   7.269   3.435  0.1003  0.2463  0.1429
  200MOL    C8540283   4.271   7.073   3.604  0.0682  0.2962 -0.1438
  200MOL    C8640284   4.182   7.118   3.713  0.0735 -0.0456  0.2843
  200MOL    H8740285   4.340   7.093   3.271  1.1340 -0.0575 -0.7304
  200MOL    H8840286   4.471   7.132   3.375  0.0242  0.0419  0.3810
  200MOL    H8940287   4.332   6.993   3.644  3.3322  2.2372 -1.0420
  200MOL    H9040288   4.248   7.136   3.797  0.2091 -2.2288  0.6731
  200MOL    H9140289   4.119   7.204   3.690  0.1568 -0.1080 -0.1792
  200MOL    C9240290   4.089   7.013   3.772 -0.4026 -0.1262  0.4886
  200MOL    C9340291   4.026   7.060   3.902 -0.0641  0.4863 -0.0268
  200MOL   Cl9440292   3.869   7.122   3.878 -0.2365 -0.3402 -0.0870
  200MOL    C9540293   4.091   7.077   4.015  0.0602  0.3620  0.2590
  200MOL    C9640294   4.234   7.039   4.040 -0.8577  0.7263 -0.6420
  200MOL    H9740295   4.135   6.920   3.804  0.5947  0.2365  0.1075
  200MOL    H9840296   4.011   6.985   3.700 -0.0895  1.0790 -0.3387
  200MOL    H9940297   4.045   7.121   4.102  1.1258  1.0613  0.4763
  200MOL   H10040298   4.296   7.018   3.952 -0.8903 -0.7790 -0.3313
  200MOL   H10140299   4.283   7.118   4.097 -0.6191  0.9583 -1.1645
  200MOL   C10240300   4.240   6.900   4.121  0.0885 -0.2074 -0.7014
  200MOL   C10340301   4.369   6.882   4.203 -0.2223 -0.1610 -0.3970
  200MOL  Cl10440302   4.486   6.789   4.129  0.2357  0.0461  0.0991
  200MOL   C10540303   4.386   6.938   4.324 -0.1396 -0.5550 -0.0090
  200MOL   C10640304   4.506   6.908   4.409 -0.5107  0.5317  0.5213
  200MOL   H10740305   4.160   6.906   4.195  0.5239 -1.4368 -0.1108
  200MOL   H10840306   4.230   6.809   4.062 -0.0915 -1.7653  1.6699
  200MOL   H10940307   4.319   7.012   4.365  1.6801  1.8857 -1.3194
  200MOL   H11040308   4.582   6.848   4.360 -1.7486  0.3206 -1.1550
  200MOL   H11140309   4.563   6.998   4.432  2.0761 -0.8657 -0.2297
  200MOL   C11240310   4.476   6.847   4.545  0.0287 -0.2753  0.3276
  200MOL   C11340311   4.599   6.831   4.629 -0.6489 -0.7954  1.1685
  200MOL  Cl11440312   4.602   6.951   4.753  0.1900 -0.5631 -0.2427
  200MOL   C11540313   4.689   6.731   4.615  0.4209 -0.4868  0.1561
  200MOL   C11640314   4.688   6.617   4.515  1.0180 -0.2798 -0.5675
  200MOL   H11740315   4.412   6.917   4.599 -0.6801  0.3495 -1.2764
  200MOL   H11840316   4.419   6.754   4.537  0.1986 -0.3151 -0.5229
  200MOL   H11940317   4.778   6.734   4.677 -1.1048 -1.2974  2.4542
  200MOL   H12040318   4.774   6.646   4.455  1.7161  1.6131  1.3034
  200MOL   H12140319   4.608   6.609   4.442  1.6911  2.3480 -1.6531
  200MOL   C12240320   4.717   6.479   4.573 -0.0551  0.0112  0.3440
  200MOL   C12340321   4.712   6.373   4.468  0.2523 -0.7837 -0.2832
  200MOL  Cl12440322   4.555   6.307   4.434 -0.0701  0.0843 -0.3099
  200MOL   C12540323   4.826   6.324   4.410 -0.2386 -0.0855 -0.0032
  200MOL   C12640324   4.969   6.365   4.435 -0.1413 -0.3758 -0.1830
  200MOL   H12740325   4.812   6.492   4.624 -1.5923  0.1417  3.3261
  200MOL   H12840326   4.641   6.461   4.649  0.2841 -0.2088  0.6342
  200MOL   H12940327   4.816   6.247   4.335 -1.9576 -1.3789  1.5039
  200MOL   H13040328   5.010   6.422   4.352  0.0175 -0.7389 -0.3538
  200MOL   H13140329   4.976   6.433   4.521 -0.4644  1.0064 -1.2249
  200MOL   C13240330   5.062   6.248   4.478  0.0001  0.1915 -0.0864
  200MOL   C13340331   5.202   6.297   4.526  0.7587 -0.0125  0.0348
  200MOL  Cl13440332   5.221   6.325   4.696  0.5050  0.0053 -0.3638
  200MOL   C13540333   5.300   6.337   4.445 -0.4876  0.3140  0.1944
  200MOL   C13640334   5.295   6.336   4.290 -0.3978  0.5819  0.6101
  200MOL   H13740335   5.027   6.182   4.557  2.0236  0.2383  0.8884
  200MOL   H13840336   5.069   6.183   4.391  1.9519  1.9570 -1.3118
  200MOL   H13940337   5.394   6.368   4.489  0.2349 -1.4319 -0.0810
  200MOL   H14040338   5.348   6.245   4.262  0.7866  2.5345 -3.8851
  200MOL   H14140339   5.192   6.330   4.254  0.0522  0.5477 -0.7043
  200MOL   C14240340   5.358   6.466   4.228  0.0683  0.9127 -0.1818
  200MOL   C14340341   5.410   6.453   4.084 -0.1622 -0.3149 -0.7207
  200MOL  Cl14440342   5.581   6.463   4.084 -0.3201  0.2112 -0.3085
  200MOL   C14540343   5.335   6.425   3.976 -0.4718 -0.1871  0.5440
  200MOL   C14640344   5.385   6.411   3.839 -0.3875  0.2574  0.7364
  200MOL   H14740345   5.448   6.492   4.284  1.1988 -0.6355 -1.2680
  200MOL   H14840346   5.287   6.548   4.243 -1.3673 -0.7531  2.4951
  200MOL   H14940347   5.229   6.418   3.993 -0.6524  1.0463  0.0219
  200MOL   H15040348   5.491   6.388   3.851 -0.4171  0.4528  1.3783
  200MOL   H15140349   5.345   6.322   3.791 -3.0138  1.4127  0.6805
  200MOL   C15240350   5.376   6.537   3.750  0.0225 -0.1513 -0.7059
  200MOL   C15340351   5.413   6.535   3.603 -0.2675  0.6003 -0.0045
  200MOL  Cl15440352   5.464   6.696   3.555  0.3676 -0.1307 -0.4409
  200MOL   C15540353   5.404   6.434   3.515 -0.7473 -0.0336  0.3828
  200MOL   C15640354   5.425   6.425   3.363 -0.9513  0.3071 -0.3420
  200MOL   H15740355   5.276   6.578   3.768  0.4887 -0.1008  1.9333
  200MOL   H15840356   5.434   6.611   3.804  0.7118 -2.2069  1.4410
  200MOL   H15940357   5.365   6.339   3.548 -0.6331 -0.0213  0.5571
  200MOL   H16040358   5.460   6.514   3.311 -3.2617  0.8607 -1.0374
  200MOL   H16140359   5.320   6.421   3.332 -1.0231 -1.4921  0.0520
  200MOL   C16240360   5.483   6.292   3.330  0.0189 -0.0350  0.9691
  200MOL   C16340361   5.547   6.292   3.189  0.2593  0.5330 -0.4588
  200MOL  Cl16440362   5.719   6.247   3.188 -0.0919 -0.1597  0.4653
  200MOL   C16540363   5.476   6.313   3.078 -0.0953 -0.7302 -0.0986
  200MOL   C16640364   5.540   6.314   2.942 -0.1080  0.4229  0.9185
  200MOL   H16740365   5.566   6.264   3.394 -1.8757 -0.9496  3.1075
  200MOL   H16840366   5.404   6.216   3.330  1.6350 -1.7553  2.3155
  200MOL   H16940367   5.370   6.330   3.087  0.2575  1.5071  0.0223
  200MOL   H17040368   5.612   6.234   2.924 -0.6817  0.3033 -0.9410
  200MOL   H17140369   5.462   6.267   2.883  0.5676  1.4883 -0.8542
  200MOL   C17240370   5.564   6.463   2.891  0.1323  0.2801  0.1132
  200MOL   C17340371   5.633   6.485   2.759  0.5943 -0.0155  0.3525
  200MOL  Cl17440372   5.585   6.637   2.684  0.0350 -0.1299 -0.3337
  200MOL   C17540373   5.734   6.405   2.716 -0.6892  0.2097  0.2100
  200MOL   C17640374   5.817   6.425   2.590 -0.1457 -0.3590 -0.3133
  200MOL   H17740375   5.633   6.499   2.967  1.0556  2.8136 -1.8552
  200MOL   H17840376   5.474   6.520   2.909 -1.4760 -2.2452  0.3906
  200MOL   H17940377   5.774   6.323   2.774 -1.9507 -0.9282 -0.5047
  200MOL   H18040378   5.871   6.519   2.589  0.0388 -0.4651 -0.3823
  200MOL   H18140379   5.751   6.423   2.503 -0.2519  0.7117 -0.2625
  200MOL   C18240380   5.921   6.310   2.567 -0.0730  0.3877 -0.4888
  200MOL   C18340381   5.984   6.317   2.437 -0.2897 -0.2194 -0.2102
  200MOL  Cl18440382   6.100   6.448   2.431  0.0938  0.6734  0.2247
  200MOL   C18540383   5.956   6.239   2.332 -0.1725 -0.1206 -0.1101
  200MOL   C18640384   6.010   6.242   2.195  0.7120 -0.5517  0.6011
  200MOL   H18740385   5.998   6.319   2.644  0.2245 -1.6823 -0.5151
  200MOL   H18840386   5.865   6.218   2.580  1.8979 -0.8317 -0.5022
  200MOL   H18940387   5.887   6.158   2.349  1.2937 -1.1410  1.1646
  200MOL   H19040388   5.954   6.322   2.147  0.9034 -0.4875  0.4910
  200MOL   H19140389   6.110   6.283   2.204 -0.4004  2.6999 -1.0830
  200MOL   C19240390   6.012   6.106   2.129 -0.2626  0.3570  0.3075
  200MOL   C19340391   5.990   6.109   1.977  0.1520 -0.0713 -0.8257
  200MOL  Cl19440392   5.836   6.040   1.932 -0.1432  0.4167 -0.3282
  200MOL   C19540393   6.079   6.157   1.889  0.9353 -0.3122 -0.4908
  200MOL   C19640394   6.208   6.224   1.937 -0.1500 -0.9807  0.2074
  200MOL   H19740395   5.941   6.035   2.171  2.1709 -2.0000  0.5967
  200MOL   H19840396   6.110   6.067   2.158  0.8843  1.0533 -2.4154
  200MOL   H19940397   6.046   6.147   1.787 -0.7159 -1.2822  0.1233
  200MOL   H20040398   6.258   6.163   2.013  0.7429 -2.8859 -1.8431
  200MOL   H20140399   6.175   6.319   1.979  4.2235  0.8686 -0.2793
  200MOL   H20240400   6.280   6.245   1.858 -2.0010  4.8874 -0.1014
  201MOL     C140401   3.378   0.448   0.018  0.0311 -0.8496 -0.9504
  201MOL     C240402   3.242   0.484   0.069  0.3711  0.4093 -0.0669
  201MOL    Cl340403   3.249   0.633   0.153  0.5326 -0.1993  0.1951
  201MOL     C440404   3.122   0.417   0.053 -0.4636 -0.6634 -0.5197
  201MOL     C540405   3.114   0.285   8.399 -0.4428 -0.6988 -0.1767
  201MOL     H640406   3.457   0.497   0.075  0.0235 -0.1047 -1.5858
  201MOL     H740407   3.370   0.490   8.339  0.5586 -0.0928 -0.6759
  201MOL     H840408   3.030   0.456   0.094 -0.7466 -3.3477  1.5043
  201MOL     H940409   3.114   0.303   8.292  0.1368  1.5712  0.1768
  201MOL    H1040410   3.193   0.212   8.412  1.5736  1.5424  0.5983
  201MOL    H1140411   3.418   0.347   0.009  3.5272  0.4474 -0.8469
  201MOL    C1240412   2.978   0.209   0.002 -0.3508 -0.8798 -0.5716
  201MOL    C1340413   2.976   0.132   0.136  0.0482 -0.9845  0.3564
  201MOL   Cl1440414   2.893   0.223   0.257  0.2294 -0.3292 -0.4558
  201MOL    C1540415   3.022   0.007   0.161 -0.2504 -0.3336  0.6451
  201MOL    C1640416   3.084   8.332   0.064  0.1803  0.0628  0.6533
  201MOL    H1740417   2.891   0.274   0.008 -0.9618 -1.6720 -0.7236
  201MOL    H1840418   2.972   0.145   8.334  0.3217 -1.3865 -0.2590
  201MOL    H1940419   3.001   8.384   0.257 -0.0120 -2.5363 -0.2822
  201MOL    H2040420   3.159   8.387   0.007  2.7274 -1.9371  1.9851
  201MOL    H2140421   3.132   8.251   0.119  1.4712  0.7648  0.5836
  201MOL    C2240422   2.987   8.259   8.390 -0.3556 -0.2951 -0.3476
  201MOL    C2340423   3.062   8.203   8.270  0.1309  0.2389  0.1721
  201MOL   Cl2440424   3.119   8.043   8.302 -0.2170 -0.1888 -0.2859
  201MOL    C2540425   3.077   8.266   8.151  0.0914  0.1117  0.2823
  201MOL    C2640426   3.125   8.208   8.022  0.4811 -0.5113  0.3654
  201MOL    H2740427   2.948   8.179   0.032  1.5367 -0.4343  0.6908
  201MOL    H2840428   2.909   8.325   8.353  0.1095  1.7942  2.2953
  201MOL    H2940429   3.044   8.367   8.133 -1.5465 -0.2664  1.1260
  201MOL    H3040430   3.232   8.223   8.006 -0.2649  1.7706 -3.1444
  201MOL    H3140431   3.112   8.100   8.016  2.2924 -0.7192 -0.0734
  201MOL    C3240432   3.048   8.287   7.909  0.2791 -0.4408 -0.6133
  201MOL    C3340433   2.899   8.289   7.927  0.4883  0.0828 -0.1377
  201MOL   Cl3440434   2.833   0.028   7.921 -0.0116  0.1491  0.0773
  201MOL    C3540435   2.833   8.173   7.939  0.0422 -0.4384  0.1592
  201MOL    C3640436   2.683   8.148   7.944 -0.4705 -0.5528 -0.6081
  201MOL    H3740437   3.078   8.391   7.900 -0.3828 -0.2372 -0.5669
  201MOL    H3840438   3.067   8.239   7.813 -0.5086 -1.7802 -0.1085
  201MOL    H3940439   2.903   8.090   7.943 -0.0901 -0.4950  5.2921
  201MOL    H4040440   2.652   8.085   8.028 -3.0471  1.7553  0.2462
  201MOL    H4140441   2.650   8.248   7.971 -3.7336 -1.6017 -0.5311
  201MOL    C4240442   2.616   8.112   7.810  0.0644  0.1308  0.2256
  201MOL    C4340443   2.469   8.128   7.799  0.4966  0.0600  0.5094
  201MOL   Cl4440444   2.388   8.208   7.928 -0.0136 -0.3932  0.2572
  201MOL    C4540445   2.385   8.069   7.712  0.9253 -0.7666  0.4414
  201MOL    C4640446   2.417   7.978   7.592 -0.2713  0.2487 -0.5941
  201MOL    H4740447   2.670   8.166   7.732 -0.4815 -1.1124 -1.0317
  201MOL    H4840448   2.640   8.007   7.791  2.5554  0.6928  0.1046
  201MOL    H4940449   2.280   8.090   7.722  0.8824 -0.3376 -0.7688
  201MOL    H5040450   2.514   7.931   7.605 -0.2834  0.5007  0.4522
  201MOL    H5140451   2.347   7.898   7.619 -0.1929  1.6539  4.2813
  201MOL    C5240452   2.414   8.028   7.451  0.4809  0.4583 -1.1684
  201MOL    C5340453   2.433   7.912   7.354 -0.4124  0.1676  0.3844
  201MOL   Cl5440454   2.304   7.794   7.367  0.4059  0.6893 -0.1221
  201MOL    C5540455   2.529   7.906   7.262 -0.5094  0.4553 -0.3557
  201MOL    C5640456   2.544   7.794   7.156 -0.2570 -0.0280 -0.3614
  201MOL    H5740457   2.317   8.075   7.439  0.0497  0.2047  1.1145
  201MOL    H5840458   2.501   8.094   7.446  0.2083  1.0389  1.4314
  201MOL    H5940459   2.601   7.986   7.264  1.0791 -0.9558  0.4520
  201MOL    H6040460   2.455   7.732   7.156  0.8188 -1.5937 -0.1861
  201MOL    H6140461   2.549   7.847   7.061  2.3573  2.9707  1.3468
  201MOL    C6240462   2.673   7.717   7.165 -0.2492 -0.3572 -0.3839
  201MOL    C6340463   2.668   7.589   7.089 -0.4169 -0.6251  0.2124
  201MOL   Cl6440464   2.677   7.625   6.930  0.1813 -0.2507 -0.1457
  201MOL    C6540465   2.665   7.461   7.139 -0.1089 -0.7050 -0.0005
  201MOL    C6640466   2.666   7.331   7.063 -0.0916 -0.1923  0.6600
  201MOL    H6740467   2.749   7.787   7.129 -0.5355 -0.0561 -0.4073
  201MOL    H6840468   2.699   7.685   7.265 -1.4994 -0.3924 -0.0557
  201MOL    H6940469   2.671   7.454   7.246 -3.1581  0.6715  0.2917
  201MOL    H7040470   2.639   7.341   6.959 -0.8884 -0.0898  0.8767
  201MOL    H7140471   2.582   7.277   7.107  1.6259 -0.9209  3.2280
  201MOL    C7240472   2.808   7.263   7.074  0.3341 -0.4384 -0.1625
  201MOL    C7340473   2.819   7.125   7.013 -0.0824 -0.4124  0.4735
  201MOL   Cl7440474   2.712   7.023   7.092 -0.2416 -0.1294  0.2472
  201MOL    C7540475   2.909   7.082   6.925  0.2730  1.1089 -0.1974
  201MOL    C7640476   2.925   6.934   6.874 -0.1644 -0.2423 -0.0041
  201MOL    H7740477   2.829   7.266   7.181  0.8275 -0.0993 -0.2669
  201MOL    H7840478   2.880   7.327   7.022  1.5583 -1.9619 -0.3871
  201MOL    H7940479   2.981   7.150   6.880  1.7865 -0.4508 -0.1781
  201MOL    H8040480   2.850   6.865   6.912  0.8387 -0.9883  0.6566
  201MOL    H8140481   3.021   6.904   6.919 -1.6262 -4.0870  0.7425
  201MOL    C8240482   2.933   6.922   6.720  0.2613 -0.3887  0.2650
  201MOL    C8340483   3.001   6.796   6.678 -0.6103  0.2320 -0.6423
  201MOL   Cl8440484   2.894   6.657   6.676 -0.4656 -0.0314  0.1289
  201MOL    C8540485   3.136   6.779   6.657 -0.5801  0.5063 -0.8090
  201MOL    C8640486   3.208   6.647   6.639  0.1560 -0.1164  0.1051
  201MOL    H8740487   2.961   7.014   6.669  1.0632  0.6027  2.4105
  201MOL    H8840488   2.831   6.914   6.682  0.9245 -2.3231 -1.1286
  201MOL    H8940489   3.201   6.865   6.651 -2.5222  1.7792 -5.0289
  201MOL    H9040490   3.150   6.555   6.647  2.0462 -1.2910  0.5594
  201MOL    H9140491   3.252   6.654   6.540  0.2533  1.6960  0.2567
  201MOL    C9240492   3.330   6.616   6.727  0.1545 -0.6828 -0.0897
  201MOL    C9340493   3.404   6.485   6.699  0.2062 -0.9310 -0.4870
  201MOL   Cl9440494   3.324   6.352   6.777  0.2136  0.0926 -0.2492
  201MOL    C9540495   3.518   6.476   6.632  0.0040  0.0879 -0.2388
  201MOL    C9640496   3.592   6.583   6.553 -0.0297 -0.6906 -0.1576
  201MOL    H9740497   3.291   6.597   6.827  0.3314 -3.0147 -0.4273
  201MOL    H9840498   3.395   6.701   6.749 -0.5162 -0.3452  0.6347
  201MOL    H9940499   3.563   6.378   6.626  1.4359  0.7717 -0.7876
  201MOL   H10040500   3.596   6.541   6.452 -3.3824 -0.4874 -0.4299
  201MOL   H10140501   3.539   6.678   6.558 -0.2819 -0.9495  2.8901
  201MOL   C10240502   3.742   6.596   6.605  0.3586 -0.4569 -0.2416
  201MOL   C10340503   3.832   6.682   6.515  0.2835  0.1037 -0.6176
  201MOL  Cl10440504   3.920   6.594   6.395  0.0699 -0.3622 -0.0783
  201MOL   C10540505   3.860   6.811   6.546  0.0757  0.3558  0.5704
  201MOL   C10640506   3.960   6.897   6.475  0.2601 -0.4317 -0.0759
  201MOL   H10740507   3.738   6.629   6.709  0.3004 -2.3397  0.3635
  201MOL   H10840508   3.782   6.495   6.610  2.0739  0.2616  0.7918
  201MOL   H10940509   3.807   6.854   6.630 -1.4544 -0.5341  0.0880
  201MOL   H11040510   4.015   6.948   6.554 -2.2369  1.2500  0.6555
  201MOL   H11140511   4.020   6.840   6.404  1.4375  2.6772 -1.6787
  201MOL   C11240512   3.902   7.005   6.391 -0.0540 -0.0821  0.1217
  201MOL   C11340513   4.002   7.107   6.334  0.2384 -0.3941  0.1043
  201MOL  Cl11440514   4.032   7.235   6.451  0.0207 -0.0663 -0.0487
  201MOL   C11540515   4.071   7.099   6.215 -0.0284  0.7541 -0.3049
  201MOL   C11640516   4.077   6.992   6.108 -0.0014  0.3561  0.2098
  201MOL   H11740517   3.835   6.962   6.317  1.6233 -2.3681 -0.1493
  201MOL   H11840518   3.832   7.071   6.442 -0.8941 -0.2284 -0.8276
  201MOL   H11940519   4.139   7.180   6.190 -1.2005  1.6167 -0.7263
  201MOL   H12040520   4.057   7.039   6.012  1.3186 -0.1193 -0.3053
  201MOL   H12140521   4.002   6.919   6.140 -0.7634  0.7275 -0.6889
  201MOL   C12240522   4.215   6.933   6.085 -1.3248 -0.3135  0.1731
  201MOL   C12340523   4.224   6.844   5.972 -0.3083  0.1906 -0.1737
  201MOL  Cl12440524   4.266   6.935   5.834 -0.0866  0.2278 -0.1424
  201MOL   C12540525   4.199   6.711   5.968  0.1003 -0.6728 -0.5378
  201MOL   C12640526   4.154   6.634   6.090 -0.3457 -0.2858  0.2210
  201MOL   H12740527   4.278   7.021   6.077 -1.8340 -0.0464 -0.8250
  201MOL   H12840528   4.243   6.879   6.176  0.0123  0.2401  0.1006
  201MOL   H12940529   4.206   6.656   5.875 -1.7898 -1.3002 -0.3377
  201MOL   H13040530   4.239   6.625   6.158 -0.5086 -0.2110  0.4336
  201MOL   H13140531   4.078   6.697   6.136 -1.3747 -0.3759 -1.2997
  201MOL   C13240532   4.080   6.499   6.060  0.1037  0.7773  0.4829
  201MOL   C13340533   4.180   6.383   6.052 -0.6179 -0.2808  0.0608
  201MOL  Cl13440534   4.212   6.333   5.895 -0.2254  0.3404  0.0578
  201MOL   C13540535   4.224   6.311   6.157 -0.0737 -0.2914  0.1140
  201MOL   C13640536   4.217   6.339   6.306 -0.0006 -0.4918 -0.5727
  201MOL   H13740537   4.006   6.474   6.136 -0.6998 -1.8919 -1.1455
  201MOL   H13840538   4.013   6.494   5.974 -0.6162 -1.8741  1.1466
  201MOL   H13940539   4.282   6.222   6.141  0.8160  0.0724  1.2549
  201MOL   H14040540   4.163   6.433   6.315  0.5758 -0.1928 -0.2347
  201MOL   H14140541   4.154   6.266   6.356  0.4790 -0.4852  0.0393
  201MOL   C14240542   4.352   6.346   6.369 -0.2083  0.4957 -0.0274
  201MOL   C14340543   4.352   6.367   6.518 -0.0476 -0.3521 -0.7873
  201MOL  Cl14440544   4.510   6.318   6.582  0.0777  0.2047  0.2818
  201MOL   C14540545   4.253   6.426   6.597 -0.8830  0.6246  0.8142
  201MOL   C14640546   4.258   6.461   6.741  0.4695 -0.0130 -1.0587
  201MOL   H14740547   4.430   6.405   6.324 -0.2979 -0.4288 -1.4194
  201MOL   H14840548   4.401   6.249   6.356  0.0239  0.6132 -0.0060
  201MOL   H14940549   4.167   6.446   6.536 -0.6223  0.2000  0.2986
  201MOL   H15040550   4.204   6.376   6.783 -0.4744  1.0776 -0.0004
  201MOL   H15140551   4.352   6.448   6.795 -0.5942 -0.6151  0.7120
  201MOL   C15240552   4.186   6.594   6.770 -0.3777 -0.0857  0.4894
  201MOL   C15340553   4.148   6.623   6.910 -0.2536 -0.1264 -0.2607
  201MOL  Cl15440554   4.271   6.715   6.992  0.1966 -0.1921 -0.0584
  201MOL   C15540555   4.042   6.576   6.974  0.0840  0.3354 -1.2319
  201MOL   C15640556   4.014   6.583   7.126  0.7793  0.9197 -0.5996
  201MOL   H15740557   4.234   6.687   6.739 -1.7542  0.1878 -0.8327
  201MOL   H15840558   4.085   6.590   6.730 -0.0945 -1.6780 -0.1191
  201MOL   H15940559   3.965   6.521   6.922 -0.7265  2.0317 -1.8721
  201MOL   H16040560   3.925   6.643   7.142  0.6059  0.8594 -1.3212
  201MOL   H16140561   4.088   6.641   7.181 -0.0669  0.8961  0.5653
  201MOL   C16240562   3.999   6.445   7.188 -0.2828 -0.1004  0.5413
  201MOL   C16340563   4.123   6.358   7.167  0.7381  0.8963  0.5030
  201MOL  Cl16440564   4.230   6.382   7.298  0.0940  0.0880  0.1728
  201MOL   C16540565   4.130   6.270   7.070 -0.3727  0.2669 -0.3406
  201MOL   C16640566   4.250   6.177   7.054  0.6496 -0.6329  0.3023
  201MOL   H16740567   3.971   6.438   7.293  0.4532 -1.3864  0.6628
  201MOL   H16840568   3.912   6.400   7.140  0.8473 -0.9699 -0.7361
  201MOL   H16940569   4.052   6.260   6.997 -1.6818 -1.3307  1.2440
  201MOL   H17040570   4.294   6.216   6.963 -1.8482 -0.0634 -0.7221
  201MOL   H17140571   4.328   6.191   7.129  0.9525  0.3935 -0.2021
  201MOL   C17240572   4.213   6.028   7.027 -0.6690  0.5665 -0.5992
  201MOL   C17340573   4.325   5.947   6.960  0.1476 -0.1911 -0.3419
  201MOL  Cl17440574   4.394   5.828   7.064  0.2890  0.0774 -0.1408
  201MOL   C17540575   4.377   5.975   6.841 -0.1840 -0.1308  0.1419
  201MOL   C17640576   4.498   5.916   6.773  0.6211  0.3177  0.5297
  201MOL   H17740577   4.127   6.024   6.960 -0.6415 -0.1800 -0.5872
  201MOL   H17840578   4.179   5.980   7.119 -0.5828  0.5359 -0.5834
  201MOL   H17940579   4.336   6.047   6.772  1.8940  0.0878 -0.9059
  201MOL   H18040580   4.511   5.818   6.818  0.7322  0.4388  0.7588
  201MOL   H18140581   4.579   5.987   6.791  1.5717 -0.3101 -1.1578
  201MOL   C18240582   4.489   5.900   6.625 -0.2949  0.0188  0.3886
  201MOL   C18340583   4.620   5.861   6.564  0.2002  0.4334 -0.1414
  201MOL  Cl18440584   4.590   5.734   6.462 -0.5078 -0.1640  0.0745
  201MOL   C18540585   4.740   5.921   6.575 -0.5534 -0.1175  0.1959
  201MOL   C18640586   4.862   5.863   6.503  0.4109  0.0075 -0.8291
  201MOL   H18740587   4.408   5.829   6.610 -1.5756  2.2026 -3.8047
  201MOL   H18840588   4.468   5.998   6.582 -1.8586  0.0159  1.1260
  201MOL   H18940589   4.759   6.006   6.638  1.1364  1.1921 -2.0479
  201MOL   H19040590   4.911   5.793   6.570  0.3707  0.2191 -0.5778
  201MOL   H19140591   4.831   5.794   6.425  2.3469 -1.1323 -0.6293
  201MOL   C19240592   4.969   5.966   6.458  0.3926  0.2476 -0.7377
  201MOL   C19340593   5.006   6.054   6.570  0.5069 -0.1398  0.1223
  201MOL  Cl19440594   5.118   5.969   6.681  0.2871 -0.3096 -0.3294
  201MOL   C19540595   4.973   6.185   6.586  0.7457 -0.6430  0.1236
  201MOL   C19640596   4.890   6.272   6.500  0.0270 -0.5655  0.2876
  201MOL   H19740597   4.946   6.033   6.374  1.9371  0.4001 -1.0562
  201MOL   H19840598   5.058   5.911   6.427  1.6882  2.3680 -0.8798
  201MOL   H19940599   5.011   6.234   6.674  1.4189 -0.4951 -0.2518
  201MOL   H20040600   4.822   6.218   6.435 -0.2877  1.0827 -0.7880
  201MOL   H20140601   4.959   6.341   6.451 -0.0292 -0.5807  0.1895
  201MOL   H20240602   4.828   6.337   6.561  0.3169  0.1538 -0.1684
  202MOL     C140603   2.585   2.737   7.850 -0.1904 -0.3052  0.3017
  202MOL     C240604   2.649   2.599   7.853  0.6737  0.3504 -0.5896
  202MOL    Cl340605   2.765   2.586   7.726 -0.1755 -0.2822  0.1578
  202MOL     C440606   2.628   2.495   7.937  0.0768  0.1795 -0.2838
  202MOL     C540607   2.539   2.497   8.056  0.1453 -0.0329 -0.4621
  202MOL     H640608   2.629   2.799   7.928  0.0725 -0.4868  0.2984
  202MOL     H740609   2.481   2.737   7.881 -0.4876  0.5945 -0.6613
  202MOL     H840610   2.684   2.404   7.921 -0.7775 -0.4602  0.3494
  202MOL     H940611   2.588   2.512   8.152  0.6214  0.5159 -0.7864
  202MOL    H1040612   2.468   2.581   8.058 -1.9473 -1.7673  0.2720
  202MOL    H1140613   2.579   2.786   7.752 -1.0142 -1.6813 -0.3522
  202MOL    C1240614   2.453   2.375   8.066  1.2204  0.3618  0.1689
  202MOL    C1340615   2.364   2.372   8.189  0.0693  0.4802 -0.8487
  202MOL   Cl1440616   2.207   2.443   8.152  0.0036  0.4937 -0.0983
  202MOL    C1540617   2.395   2.322   8.307  0.1995  0.8176  0.1221
  202MOL    C1640618   2.526   2.262   8.358 -0.8309 -0.4348 -0.1861
  202MOL    H1740619   2.386   2.386   7.980 -0.1603  0.6849  1.2734
  202MOL    H1840620   2.511   2.283   8.064  0.5511 -0.0762  0.6755
  202MOL    H1940621   2.319   2.321   8.384  0.8013  0.2122  0.7133
  202MOL    H2040622   2.522   2.154   8.364 -0.4957 -0.4853 -0.7942
  202MOL    H2140623   2.603   2.276   8.281 -1.3922  0.4082 -0.6067
  202MOL    C2240624   2.577   2.320   0.070  0.8290 -0.3322  0.0129
  202MOL    C2340625   2.725   2.304   0.091 -0.1100 -0.0301  1.1614
  202MOL   Cl2440626   2.768   2.140   0.057 -0.3638 -0.2279 -0.2018
  202MOL    C2540627   2.812   2.401   0.136 -0.0759  0.1672 -0.6784
  202MOL    C2640628   2.960   2.396   0.156 -0.1649  0.2550 -0.3726
  202MOL    H2740629   2.547   2.424   0.086  1.4098  0.0638 -1.3641
  202MOL    H2840630   2.532   2.260   0.149  0.9306  0.8433  0.9850
  202MOL    H2940631   2.778   2.502   0.156  1.9957  1.2644 -2.3695
  202MOL    H3040632   2.998   2.419   0.256  1.1380  0.0312 -0.8095
  202MOL    H3140633   2.990   2.292   0.143 -2.1338 -0.3247 -0.4344
  202MOL    C3240634   3.045   2.480   0.061  0.6721 -0.2917  0.5522
  202MOL    C3340635   3.049   2.619   0.110  0.0249  0.2813 -0.2687
  202MOL   Cl3440636   2.939   2.710   0.011 -0.0892 -0.1930 -0.1165
  202MOL    C3540637   3.119   2.672   0.215  0.3038  0.2030  0.4001
  202MOL    C3640638   3.125   2.814   0.260 -0.1185 -0.4961 -0.7556
  202MOL    H3740639   3.144   2.437   0.047 -0.1162 -1.7773 -0.6312
  202MOL    H3840640   2.998   2.469   8.384  2.7056 -0.3620 -0.4306
  202MOL    H3940641   3.184   2.612   0.277  0.0461  0.5484  1.0052
  202MOL    H4040642   3.232   2.836   0.259  0.1854 -1.7119  1.1266
  202MOL    H4140643   3.070   2.881   0.194  0.0040 -0.4364 -0.7964
  202MOL    C4240644   3.067   2.835   0.408 -0.0603 -0.3919 -0.1422
  202MOL    C4340645   3.039   2.979   0.442  0.0987  0.0889 -0.2755
  202MOL   Cl4440646   3.183   3.058   0.511  0.5805 -0.2377  0.0438
  202MOL    C4540647   2.925   3.046   0.411  0.0169 -0.0673 -0.3110
  202MOL    C4640648   2.804   2.993   0.343  0.6577 -0.1685 -0.2699
  202MOL    H4740649   2.974   2.780   0.416  0.5896 -1.5943 -0.6822
  202MOL    H4840650   3.135   2.780   0.473  0.0361  0.5934  0.6094
  202MOL    H4940651   2.927   3.152   0.433 -0.3678  0.0173 -0.6929
  202MOL    H5040652   2.813   2.896   0.295 -0.3789 -0.9969  1.1304
  202MOL    H5140653   2.738   2.978   0.429  1.9103 -0.5754  0.6300
  202MOL    C5240654   2.739   3.098   0.250 -0.2004 -0.1773  1.0324
  202MOL    C5340655   2.615   3.033   0.184 -0.2770  0.0462 -0.2305
  202MOL   Cl5440656   2.466   3.060   0.269  0.2540 -0.3795 -0.3577
  202MOL    C5540657   2.627   2.971   0.069 -0.3339 -0.0198  0.5603
  202MOL    C5640658   2.515   2.896   8.415 -0.1974  0.6271 -0.0770
  202MOL    H5740659   2.726   3.193   0.302  1.9556  2.7509 -3.4117
  202MOL    H5840660   2.804   3.145   0.176  0.7350  0.0287  1.9616
  202MOL    H5940661   2.725   2.968   0.023 -0.0746  1.1854  1.0068
  202MOL    H6040662   2.418   2.931   0.027 -0.1861  1.4572 -0.9059
  202MOL    H6140663   2.528   2.905   8.307  2.0393 -0.0632  0.1042
  202MOL    C6240664   2.523   2.743   0.013 -0.1398  0.2552  0.1235
  202MOL    C6340665   2.463   2.684   0.145 -0.2601 -0.1890 -0.1942
  202MOL   Cl6440666   2.571   2.696   0.283  0.0961  0.0583 -0.1233
  202MOL    C6540667   2.341   2.630   0.163 -0.4660  0.0645 -0.1510
  202MOL    C6640668   2.281   2.569   0.289  0.4738 -0.3691  0.0637
  202MOL    H6740669   2.468   2.694   8.353  0.4337  0.4204 -0.3723
  202MOL    H6840670   2.626   2.708   0.003 -0.0192  0.4384  0.7157
  202MOL    H6940671   2.287   2.631   0.070 -0.1795  2.9295 -0.3231
  202MOL    H7040672   2.196   2.623   0.332 -0.0361 -1.3484  0.2978
  202MOL    H7140673   2.357   2.569   0.367  1.8190 -0.3623 -1.2282
  202MOL    C7240674   2.227   2.426   0.244 -0.2066  0.5095 -0.6868
  202MOL    C7340675   2.156   2.350   0.359 -0.2884  0.8693 -0.5856
  202MOL   Cl7440676   2.248   2.222   0.412 -0.1449 -0.4846 -0.0865
  202MOL    C7540677   2.031   2.377   0.407 -0.3955  0.0464  1.1562
  202MOL    C7640678   1.963   2.283   0.515 -0.0574  0.2260 -0.3941
  202MOL    H7740679   2.313   2.381   0.194  0.9288  1.6433  0.1854
  202MOL    H7840680   2.151   2.451   0.170 -0.6734 -0.9883 -0.7300
  202MOL    H7940681   1.992   2.466   0.360  1.6072 -0.7390 -2.2059
  202MOL    H8040682   2.004   2.182   0.523  1.0616  0.7394  0.4531
  202MOL    H8140683   1.857   2.270   0.495 -0.3883 -0.8971  1.9346
  202MOL    C8240684   1.975   2.352   0.655  0.3435 -0.0267  0.9286
  202MOL    C8340685   2.120   2.358   0.707 -0.3660  0.5782  0.0492
  202MOL   Cl8440686   2.164   2.215   0.797 -0.4556  0.2207 -0.0230
  202MOL    C8540687   2.198   2.466   0.697 -0.7288 -0.0699  0.2297
  202MOL    C8640688   2.346   2.478   0.744 -0.6723  0.2229  0.3750
  202MOL    H8740689   1.904   2.312   0.727 -1.3476 -0.4221 -0.9202
  202MOL    H8840690   1.935   2.452   0.640 -1.0583 -1.0234 -2.3614
  202MOL    H8940691   2.152   2.555   0.656 -0.6187  1.0711  2.4678
  202MOL    H9040692   2.356   2.577   0.790  1.5780 -0.2385  0.9542
  202MOL    H9140693   2.369   2.420   0.833 -0.2912  0.7258  0.6094
  202MOL    C9240694   2.454   2.473   0.639 -0.4218 -0.6539 -0.0861
  202MOL    C9340695   2.593   2.477   0.704  0.8309  0.2995  0.9139
  202MOL   Cl9440696   2.609   2.331   0.805  0.1038  0.2498  0.2029
  202MOL    C9540697   2.683   2.580   0.711  0.4234 -0.1546  0.7356
  202MOL    C9640698   2.675   2.723   0.652 -0.0009  0.3874  0.3931
  202MOL    H9740699   2.450   2.563   0.576  0.4473 -1.6059 -1.5389
  202MOL    H9840700   2.460   2.385   0.575  1.0378  0.4756 -1.5714
  202MOL    H9940701   2.773   2.564   0.769 -1.4194 -2.2834  3.1199
  202MOL   H10040702   2.776   2.744   0.616  0.8838 -1.3218  1.8138
  202MOL   H10140703   2.598   2.741   0.577  0.3038 -3.3196 -0.8806
  202MOL   C10240704   2.650   2.827   0.765 -0.1726 -0.2054 -0.6946
  202MOL   C10340705   2.656   2.968   0.720 -0.4159 -0.4893 -0.4371
  202MOL  Cl10440706   2.520   2.999   0.616 -0.0774 -0.4116 -0.2157
  202MOL   C10540707   2.751   3.059   0.734 -0.5005  0.0784  0.4102
  202MOL   C10640708   2.758   3.195   0.674 -0.2413  0.3569  0.4438
  202MOL   H10740709   2.548   2.815   0.801  0.0050  0.9991  0.2542
  202MOL   H10840710   2.719   2.806   0.847 -0.1904  2.5329  0.0730
  202MOL   H10940711   2.841   3.032   0.788 -0.0048  2.4462  0.8332
  202MOL   H11040712   2.835   3.209   0.599  0.4564  2.6988  1.5424
  202MOL   H11140713   2.674   3.225   0.610  0.4771  0.7629 -0.3184
  202MOL   C11240714   2.771   3.295   0.791 -0.7915 -0.3606 -0.0634
  202MOL   C11340715   2.650   3.283   0.892  0.4488  0.2034 -0.0913
  202MOL  Cl11440716   2.674   3.182   1.030  0.1663 -0.3164 -0.2110
  202MOL   C11540717   2.537   3.359   0.886  0.0723  0.3117  0.4054
  202MOL   C11640718   2.503   3.459   0.779 -0.0067 -0.2213  0.4061
  202MOL   H11740719   2.864   3.271   0.844 -0.4847  2.3523  0.7220
  202MOL   H11840720   2.789   3.396   0.755  1.1313 -1.0858 -1.2467
  202MOL   H11940721   2.477   3.333   0.972  0.3186 -0.4137  0.3631
  202MOL   H12040722   2.591   3.456   0.714  0.7067  0.4219  1.3338
  202MOL   H12140723   2.482   3.563   0.804 -2.7156 -0.1782 -1.7051
  202MOL   C12240724   2.394   3.406   0.681  0.4658  0.0304 -0.7359
  202MOL   C12340725   2.411   3.474   0.543  0.1702  0.2767 -0.3559
  202MOL  Cl12440726   2.552   3.415   0.451 -0.2462 -0.0014  0.2491
  202MOL   C12540727   2.325   3.556   0.480 -0.2688 -0.3794  0.5466
  202MOL   C12640728   2.194   3.615   0.526 -0.1236  0.0011 -0.0136
  202MOL   H12740729   2.399   3.301   0.653 -0.5719  0.0262 -0.9165
  202MOL   H12840730   2.291   3.417   0.714  0.3339 -1.8399 -0.5060
  202MOL   H12940731   2.359   3.592   0.384 -0.3149 -1.5497  0.0828
  202MOL   H13040732   2.121   3.569   0.460 -0.0843 -0.6809  0.4056
  202MOL   H13140733   2.173   3.591   0.630  0.8715 -2.9358 -0.4244
  202MOL   C13240734   2.184   3.767   0.512 -0.2384 -0.3969 -0.8384
  202MOL   C13340735   2.034   3.811   0.510  0.2577 -0.1484  0.4743
  202MOL  Cl13440736   1.994   3.862   0.353  0.2935 -0.0937 -0.0682
  202MOL   C13540737   1.947   3.812   0.614  0.0260 -0.1787 -0.8870
  202MOL   C13640738   1.977   3.772   0.758  0.0123  0.4115  0.2522
  202MOL   H13740739   2.241   3.820   0.589 -1.4461 -1.9598  1.1908
  202MOL   H13840740   2.222   3.812   0.420  1.7509 -0.4997 -0.0921
  202MOL   H13940741   1.851   3.857   0.593 -1.1095 -2.9501 -1.7363
  202MOL   H14040742   2.079   3.735   0.765  0.7078  2.0361 -1.0713
  202MOL   H14140743   1.960   3.851   0.831 -0.9772  1.0300 -0.6356
  202MOL   C14240744   1.881   3.655   0.783 -0.3826  0.8295 -0.0835
  202MOL   C14340745   1.943   3.555   0.870  0.2944 -0.2180 -0.2662
  202MOL  Cl14440746   2.027   3.428   0.788 -0.2822  0.0796 -0.1944
  202MOL   C14540747   1.931   3.564   1.004 -0.0950  0.3005  0.0949
  202MOL   C14640748   1.978   3.454   1.101  0.4962 -0.0871  0.1614
  202MOL   H14740749   1.873   3.597   0.691 -0.5158 -1.8997  1.5805
  202MOL   H14840750   1.783   3.697   0.803 -0.4402  0.2855  0.8293
  202MOL   H14940751   1.880   3.646   1.052  0.2315 -0.0008  0.9662
  202MOL   H15040752   1.889   3.399   1.132 -0.2419 -0.1560 -1.9789
  202MOL   H15140753   2.043   3.375   1.063  0.3422  0.5398 -1.4462
  202MOL   C15240754   2.045   3.520   1.222 -0.4899  0.4529  0.0680
  202MOL   C15340755   2.182   3.570   1.186  0.2615  0.2729  0.5323
  202MOL  Cl15440756   2.190   3.730   1.127  0.4020  0.1381  0.0830
  202MOL   C15540757   2.298   3.503   1.205  0.3497 -0.9530 -0.7701
  202MOL   C15640758   2.433   3.558   1.165  0.2671  0.3378  0.4847
  202MOL   H15740759   1.989   3.606   1.259 -2.2065  0.9715 -3.5065
  202MOL   H15840760   2.060   3.449   1.302  0.7602 -2.0499 -2.2948
  202MOL   H15940761   2.292   3.407   1.254  0.4094 -1.6649 -2.1396
  202MOL   H16040762   2.430   3.595   1.062 -2.4301 -1.9656 -0.3256
  202MOL   H16140763   2.492   3.468   1.146  1.0310  1.4187 -2.5604
  202MOL   C16240764   2.485   3.652   1.267  0.5638  0.0920  0.4342
  202MOL   C16340765   2.630   3.670   1.234  0.8152 -0.2606  0.3657
  202MOL  Cl16440766   2.724   3.631   1.368 -0.0127 -0.3112  0.4440
  202MOL   C16540767   2.684   3.715   1.115  0.0357 -0.3748 -0.2275
  202MOL   C16640768   2.832   3.729   1.082 -0.7888 -0.6352  0.3814
  202MOL   H16740769   2.435   3.749   1.272  0.4364  0.1666 -1.9436
  202MOL   H16840770   2.476   3.603   1.364  2.5881  1.1454  1.1702
  202MOL   H16940771   2.613   3.734   1.035 -0.2552  3.5560  0.8548
  202MOL   H17040772   2.897   3.685   1.158  0.8077  0.1663 -0.4679
  202MOL   H17140773   2.845   3.671   0.991 -1.3048  0.9355 -0.7181
  202MOL   C17240774   2.874   3.875   1.056 -0.3757  0.2862  0.3198
  202MOL   C17340775   3.022   3.888   1.014 -1.1614  0.0555 -0.1739
  202MOL  Cl17440776   3.036   3.883   0.843 -0.3527 -0.2517  0.4120
  202MOL   C17540777   3.120   3.916   1.098 -0.0888  0.2387  0.1006
  202MOL   C17640778   3.267   3.914   1.060 -0.3452 -0.0806  0.4182
  202MOL   H17740779   2.847   3.926   1.147  1.1993  1.6286  0.0637
  202MOL   H17840780   2.804   3.921   0.987 -0.4092 -1.1721 -0.6518
  202MOL   H17940781   3.099   3.936   1.201  0.9830 -0.3955  0.4504
  202MOL   H18040782   3.272   3.909   0.951 -0.3932  0.3318  0.3950
  202MOL   H18140783   3.315   3.822   1.093  0.8530  0.4402  0.1548
  202MOL   C18240784   3.337   4.040   1.112 -0.4907 -0.1797 -0.4503
  202MOL   C18340785   3.488   4.008   1.135 -0.4518 -0.5995  0.6671
  202MOL  Cl18440786   3.568   4.033   0.972  0.0484 -0.3435 -0.0160
  202MOL   C18540787   3.552   3.995   1.256 -0.3371  0.1784 -0.2019
  202MOL   C18640788   3.696   3.993   1.278 -0.3128 -0.5624  0.3801
  202MOL   H18740789   3.318   4.136   1.063  1.3701 -0.4834 -1.8168
  202MOL   H18840790   3.290   4.062   1.208 -1.7479  1.7798 -1.4623
  202MOL   H18940791   3.498   3.990   1.350  2.1444  0.9765  1.2912
  202MOL   H19040792   3.725   3.897   1.321  0.7304 -1.3880 -2.0675
  202MOL   H19140793   3.749   3.994   1.183  0.0106  1.3253  0.5695
  202MOL   C19240794   3.754   4.112   1.361 -0.5259 -0.9087  0.1037
  202MOL   C19340795   3.746   4.246   1.286  0.8395 -0.4061  0.7805
  202MOL  Cl19440796   3.894   4.269   1.199  0.5022 -0.0447 -0.2547
  202MOL   C19540797   3.642   4.333   1.268 -0.4368  0.1004 -0.0956
  202MOL   C19640798   3.509   4.323   1.344 -0.2799 -0.1695 -0.0833
  202MOL   H19740799   3.856   4.096   1.395  0.6294  1.4109 -2.0728
  202MOL   H19840800   3.699   4.131   1.453 -0.6600  3.3176 -0.7635
  202MOL   H19940801   3.659   4.417   1.203  0.6960 -1.2489 -1.5995
  202MOL   H20040802   3.507   4.415   1.403  2.5905 -0.9657  1.3893
  202MOL   H20140803   3.521   4.237   1.410  0.7263  0.6889  0.8926
  202MOL   H20240804   3.420   4.328   1.282 -0.6716 -0.4963  0.4411
  203MOL     C140805   2.118   0.720   3.403  0.7629 -0.3621  0.1535
  203MOL     C240806   2.006   0.612   3.401  0.1711  0.1072 -0.7217
  203MOL    Cl340807   1.851   0.672   3.368  0.6183 -0.0253  0.2512
  203MOL     C440808   2.023   0.486   3.434  0.2442 -0.1857  0.5588
  203MOL     C540809   2.145   0.414   3.481 -0.0863 -0.0349 -0.9237
  203MOL     H640810   2.206   0.686   3.348 -0.3101 -0.2518 -1.6755
  203MOL     H740811   2.151   0.725   3.507 -0.7040 -0.2476  0.6183
  203MOL     H840812   1.937   0.420   3.435 -1.0648  1.4723  0.3276
  203MOL     H940813   2.176   0.331   3.417  0.7660  0.4814 -1.1989
  203MOL    H1040814   2.234   0.476   3.473  1.2783 -1.6711  1.0776
  203MOL    H1140815   2.088   0.821   3.374 -1.1706 -0.7790  0.7052
  203MOL    C1240816   2.147   0.372   3.632 -0.0225  0.4712 -0.3413
  203MOL    C1340817   2.250   0.260   3.655  0.0192 -0.0512  0.1561
  203MOL   Cl1440818   2.190   0.101   3.624  0.1098 -0.1275 -0.1412
  203MOL    C1540819   2.376   0.283   3.705  0.1100 -0.1598 -0.0801
  203MOL    C1640820   2.445   0.414   3.745  0.3265 -0.7121  0.2713
  203MOL    H1740821   2.153   0.459   3.698 -0.3327  0.9458 -0.9318
  203MOL    H1840822   2.048   0.329   3.650  0.8324 -2.7503 -2.8904
  203MOL    H1940823   2.436   0.194   3.713  1.8152  1.0424  0.7245
  203MOL    H2040824   2.539   0.415   3.691  0.0417  0.2937 -0.2068
  203MOL    H2140825   2.387   0.492   3.696  2.0955  1.7907  2.0267
  203MOL    C2240826   2.448   0.434   3.892 -0.9556  0.6973 -0.3793
  203MOL    C2340827   2.514   0.563   3.921  0.3110  0.8630 -0.1381
  203MOL   Cl2440828   2.419   0.668   4.016  0.3096 -0.1526 -0.1079
  203MOL    C2540829   2.639   0.597   3.884  0.0269  0.0108  0.2513
  203MOL    C2640830   2.713   0.718   3.910  0.2636 -0.3957  0.3488
  203MOL    H2740831   2.345   0.437   3.927 -1.1874  1.1362 -1.0850
  203MOL    H2840832   2.507   0.361   3.948 -2.6174  0.4680  1.1332
  203MOL    H2940833   2.702   0.525   3.834  0.1284 -0.3401  0.8941
  203MOL    H3040834   2.648   0.804   3.924  2.3490  1.5098 -1.2518
  203MOL    H3140835   2.764   0.706   4.006 -0.7567 -0.8024  0.8458
  203MOL    C3240836   2.815   0.760   3.804  0.5021 -0.3752 -0.1440
  203MOL    C3340837   2.868   0.901   3.817 -0.4156 -0.8536  0.4633
  203MOL   Cl3440838   2.830   0.993   3.676  0.6793  0.2953  0.3225
  203MOL    C3540839   2.948   0.939   3.915 -0.0043 -0.4844  0.0325
  203MOL    C3640840   3.020   1.071   3.920 -0.2214 -0.1522  0.4018
  203MOL    H3740841   2.897   0.689   3.789  2.0281  1.2662  0.1798
  203MOL    H3840842   2.769   0.755   3.706 -0.2680  0.3300  0.1825
  203MOL    H3940843   2.959   0.868   3.996 -3.3592 -1.1626 -0.0229
  203MOL    H4040844   3.113   1.058   3.976  1.2177  1.7325 -1.4653
  203MOL    H4140845   3.037   1.103   3.817  1.5320  0.6002  0.8981
  203MOL    C4240846   2.949   1.174   4.003 -0.2176  0.5236  0.5843
  203MOL    C4340847   3.001   1.315   4.008 -0.5478  0.0309  0.2781
  203MOL   Cl4440848   3.090   1.336   4.148 -0.2581 -0.1736 -0.3910
  203MOL    C4540849   2.982   1.411   3.915  0.2261 -0.5852 -0.4003
  203MOL    C4640850   2.901   1.390   3.789 -0.1876  0.9855  0.0923
  203MOL    H4740851   2.845   1.175   3.969  0.4339 -1.8857 -1.6331
  203MOL    H4840852   2.938   1.147   4.108  1.1559 -2.8006 -0.0576
  203MOL    H4940853   3.029   1.508   3.916 -0.3344 -0.2992 -1.2390
  203MOL    H5040854   2.870   1.286   3.791  1.8067  0.3729  1.9094
  203MOL    H5140855   2.810   1.449   3.785 -1.0167 -0.2559  0.3167
  203MOL    C5240856   2.977   1.399   3.655  0.0404  0.4643  0.1005
  203MOL    C5340857   2.902   1.360   3.529 -0.3470 -0.4980 -0.1213
  203MOL   Cl5440858   2.738   1.426   3.527  0.3725  0.0268 -0.4830
  203MOL    C5540859   2.952   1.282   3.430 -0.3946 -0.2075 -0.7485
  203MOL    C5640860   2.869   1.229   3.315  0.6440 -0.5769 -0.1245
  203MOL    H5740861   3.029   1.494   3.641 -1.2070  1.2034  0.3967
  203MOL    H5840862   3.064   1.334   3.659 -1.0705 -1.1465 -1.6076
  203MOL    H5940863   3.053   1.245   3.425 -1.5277 -3.3481 -1.7171
  203MOL    H6040864   2.809   1.150   3.359 -0.1064 -0.3934 -0.7893
  203MOL    H6140865   2.800   1.308   3.282  1.2149 -0.4474 -1.0310
  203MOL    C6240866   2.950   1.193   3.191 -0.6589  0.0598 -0.2962
  203MOL    C6340867   2.872   1.127   3.080  0.1072  0.0485  0.1445
  203MOL   Cl6440868   2.967   0.989   3.013  0.3940  0.2660 -0.4284
  203MOL    C6540869   2.740   1.151   3.055 -0.3004  0.9727  0.0811
  203MOL    C6640870   2.662   1.075   2.954  0.3845 -0.0483 -0.3610
  203MOL    H6740871   3.005   1.276   3.146 -0.0726  0.0772  0.4472
  203MOL    H6840872   3.036   1.130   3.215 -0.0323  0.8940 -0.3251
  203MOL    H6940873   2.680   1.225   3.105 -0.9271 -0.3875  1.3855
  203MOL    H7040874   2.710   0.980   2.929 -0.7057 -0.8669  0.6440
  203MOL    H7140875   2.681   1.136   2.866  0.8373 -0.8179 -0.8046
  203MOL    C7240876   2.516   1.045   2.987  0.0713 -0.0960  0.1076
  203MOL    C7340877   2.440   0.972   2.882 -0.2207 -0.3933 -0.0270
  203MOL   Cl7440878   2.370   1.078   2.761 -0.0284 -0.1258  0.3516
  203MOL    C7540879   2.427   0.842   2.865  0.1578  0.6003  0.4375
  203MOL    C7640880   2.367   0.775   2.744  0.1878 -0.3904 -0.5732
  203MOL    H7740881   2.459   1.137   2.998  0.2366  0.5751 -3.8790
  203MOL    H7840882   2.505   0.983   3.076  2.1015 -3.7566 -2.0673
  203MOL    H7940883   2.461   0.771   2.939  0.3692  0.7126  0.4483
  203MOL    H8040884   2.343   0.841   2.661  1.3483 -0.3358 -0.8677
  203MOL    H8140885   2.276   0.722   2.776  0.4399 -1.4818 -1.6252
  203MOL    C8240886   2.472   0.669   2.696 -0.0386  0.2152  0.9566
  203MOL    C8340887   2.396   0.585   2.591 -0.6017 -0.1514 -0.8408
  203MOL   Cl8440888   2.432   0.646   2.439 -0.2710 -0.1022  0.0083
  203MOL    C8540889   2.333   0.470   2.615 -0.1238  0.1116  0.6125
  203MOL    C8640890   2.255   0.384   2.520 -0.2186  0.3316  0.5762
  203MOL    H8740891   2.509   0.597   2.769  0.3459  0.3519  0.8953
  203MOL    H8840892   2.553   0.728   2.654  0.5958 -1.6295 -0.4659
  203MOL    H8940893   2.326   0.440   2.718 -1.5549 -0.6880  0.2926
  203MOL    H9040894   2.150   0.390   2.547 -1.5889 -0.8583 -4.0822
  203MOL    H9140895   2.275   0.420   2.419  1.7526 -1.0816  0.4519
  203MOL    C9240896   2.307   0.242   2.542  0.4943  0.3994  0.1986
  203MOL    C9340897   2.266   0.162   2.420  0.4507  0.2431  0.4590
  203MOL   Cl9440898   2.094   0.129   2.433 -0.0514 -0.3385  0.1803
  203MOL    C9540899   2.336   0.117   2.317 -0.4055  0.1628  0.6163
  203MOL    C9640900   2.485   0.138   2.289 -0.5161 -0.0604  0.0232
  203MOL    H9740901   2.276   0.187   2.631  4.4244 -0.5763  1.0595
  203MOL    H9840902   2.416   0.245   2.543  0.5187  0.5414 -1.2459
  203MOL    H9940903   2.280   0.061   2.243 -1.2607  0.7722  0.7882
  203MOL   H10040904   2.495   0.216   2.214  0.6591 -0.8970 -0.7081
  203MOL   H10140905   2.532   0.179   2.378  2.5380  1.4091 -2.1980
  203MOL   C10240906   2.551   0.006   2.239 -0.4611 -0.4502 -0.6456
  203MOL   C10340907   2.705   0.015   2.218 -0.0344  0.0334  0.2737
  203MOL  Cl10440908   2.787   0.065   2.365  0.4503  0.2094 -0.1423
  203MOL   C10540909   2.764   8.409   2.097 -0.2928  0.5727  0.3696
  203MOL   C10640910   2.917   8.416   2.076  0.3674  0.4018 -0.3344
  203MOL   H10740911   2.532   8.340   2.303  1.4724 -0.5390 -0.1383
  203MOL   H10840912   2.508   8.410   2.141 -1.0265 -0.9165 -0.3218
  203MOL   H10940913   2.707   8.383   2.009  0.1161 -1.6321  0.7412
  203MOL   H11040914   2.968   8.420   2.173  1.1711 -2.1964 -0.5937
  203MOL   H11140915   2.936   8.316   2.037  0.5725  0.0704  0.5832
  203MOL   C11240916   2.962   0.108   1.985 -0.3645  0.1544  0.6152
  203MOL   C11340917   3.102   0.153   2.013 -0.7038 -0.5486 -0.7441
  203MOL  Cl11440918   3.212   0.013   2.020  0.1372  0.1851  0.1823
  203MOL   C11540919   3.142   0.283   2.009 -0.4470  0.2635  0.4435
  203MOL   C11640920   3.064   0.407   1.991 -0.6011  0.2555 -0.0814
  203MOL   H11740921   2.945   0.077   1.882 -0.9310  1.5315  0.2885
  203MOL   H11840922   2.897   0.193   2.006 -1.1889  0.4082 -2.6690
  203MOL   H11940923   3.250   0.289   2.011 -0.5090  1.4723  3.5165
  203MOL   H12040924   3.110   0.478   2.060 -0.4315 -0.2221  0.3012
  203MOL   H12140925   2.959   0.391   2.016 -0.5575  0.0160 -0.0531
  203MOL   C12240926   3.075   0.483   1.860 -0.1182 -0.5197  0.0061
  203MOL   C12340927   2.991   0.615   1.856 -0.7366  0.8163  0.8148
  203MOL  Cl12440928   3.068   0.746   1.936  0.0358  0.0928  0.0444
  203MOL   C12540929   2.877   0.636   1.789  0.6076  0.2457 -0.4505
  203MOL   C12640930   2.791   0.531   1.711 -0.1943 -0.3811 -0.0849
  203MOL   H12740931   3.175   0.518   1.838 -0.0470  1.3406  3.1226
  203MOL   H12840932   3.056   0.420   1.773 -1.1726  1.6069 -1.3422
  203MOL   H12940933   2.831   0.733   1.796  0.5497  0.0673  1.7211
  203MOL   H13040934   2.838   0.433   1.698 -1.1294 -0.4098 -3.6648
  203MOL   H13140935   2.706   0.515   1.777 -0.5957 -0.0158 -0.5104
  203MOL   C13240936   2.744   0.585   1.577 -0.0211  0.2582  0.8585
  203MOL   C13340937   2.826   0.540   1.460 -0.4297  0.3770 -0.8128
  203MOL  Cl13440938   2.741   0.420   1.375  0.1719  0.0604 -0.2848
  203MOL   C13540939   2.947   0.579   1.422 -0.0412  0.4973 -0.2224
  203MOL   C13640940   3.021   0.706   1.480 -0.0089  0.3605 -0.5843
  203MOL   H13740941   2.645   0.542   1.561 -0.4867  2.0382 -1.3436
  203MOL   H13840942   2.725   0.692   1.565 -3.1538 -0.3918 -0.6545
  203MOL   H13940943   3.002   0.523   1.347 -1.0160 -0.0500 -0.5356
  203MOL   H14040944   3.022   0.783   1.403  1.4077 -0.5647 -1.5201
  203MOL   H14140945   2.975   0.745   1.571 -0.9101 -1.1511 -0.3615
  203MOL   C14240946   3.161   0.660   1.528  0.2087 -0.5153  0.9386
  203MOL   C14340947   3.261   0.779   1.522  0.8129  0.4312  0.5931
  203MOL  Cl14440948   3.400   0.740   1.430  0.1412  0.1346 -0.1585
  203MOL   C14540949   3.240   0.904   1.577 -0.1936  0.5124 -0.1649
  203MOL   C14640950   3.329   1.022   1.563  0.1063  0.1487  0.2538
  203MOL   H14740951   3.209   0.591   1.459  2.2158  1.8433 -0.1071
  203MOL   H14840952   3.165   0.616   1.628 -0.1032 -0.6413  0.8978
  203MOL   H14940953   3.147   0.927   1.627 -0.7212 -1.0097 -0.4056
  203MOL   H15040954   3.339   1.074   1.658 -0.4530 -1.9231  1.4896
  203MOL   H15140955   3.427   0.986   1.533  0.3643  0.3603  0.8335
  203MOL   C15240956   3.262   1.129   1.466 -0.2112  0.7174 -0.2348
  203MOL   C15340957   3.330   1.268   1.477  0.4443 -0.0832  0.0661
  203MOL  Cl15440958   3.236   1.376   1.563 -0.0234  0.1022  0.0794
  203MOL   C15540959   3.453   1.304   1.426  0.5975 -0.2914 -0.1497
  203MOL   C15640960   3.514   1.440   1.426  0.3998  0.0395  0.4307
  203MOL   H15740961   3.284   1.078   1.372 -1.6525 -0.9654  0.3212
  203MOL   H15840962   3.155   1.129   1.487 -0.2349 -0.1258 -0.3234
  203MOL   H15940963   3.515   1.227   1.382  1.5077  1.0992 -1.3182
  203MOL   H16040964   3.616   1.446   1.462  0.1279 -0.6868  1.3254
  203MOL   H16140965   3.443   1.504   1.479 -1.3310 -2.3907  1.1329
  203MOL   C16240966   3.528   1.494   1.278  0.7158  0.4965  0.1730
  203MOL   C16340967   3.625   1.604   1.257 -0.2372 -0.2901 -0.6731
  203MOL  Cl16440968   3.588   1.748   1.345  0.0233  0.1378 -0.0760
  203MOL   C16540969   3.742   1.586   1.189  0.5502  0.0578  0.6478
  203MOL   C16640970   3.848   1.695   1.163  0.2304  0.4877 -0.5534
  203MOL   H16740971   3.534   1.412   1.206 -3.8167  0.5283 -0.3697
  203MOL   H16840972   3.433   1.541   1.254  0.4380  1.2055  2.5086
  203MOL   H16940973   3.770   1.490   1.147  0.1197  0.6650 -1.0526
  203MOL   H17040974   3.814   1.772   1.232  0.5898 -0.9439  1.2641
  203MOL   H17140975   3.945   1.666   1.204 -0.3058 -2.9755 -1.6231
  203MOL   C17240976   3.874   1.741   1.018 -0.0887 -0.5669  0.2910
  203MOL   C17340977   4.006   1.815   0.991  0.7073  0.3218 -0.4991
  203MOL  Cl17440978   3.995   1.978   1.037  0.1744  0.3806 -0.2973
  203MOL   C17540979   4.113   1.765   0.927 -0.2292  1.0779 -0.1203
  203MOL   C17640980   4.230   1.852   0.884 -0.6079 -0.1133  0.0129
  203MOL   H17740981   3.790   1.799   0.981  0.8423  0.9860  0.5614
  203MOL   H17840982   3.882   1.650   0.958 -0.2550 -0.2852 -0.1609
  203MOL   H17940983   4.119   1.662   0.895  2.3565  1.1229  0.1137
  203MOL   H18040984   4.320   1.806   0.924 -0.9564 -2.1215 -1.3731
  203MOL   H18140985   4.216   1.956   0.913 -2.5644 -0.2626 -0.2952
  203MOL   C18240986   4.237   1.862   0.729 -0.5475 -0.2375 -0.4013
  203MOL   C18340987   4.238   1.730   0.655 -0.5630  0.2117  0.4760
  203MOL  Cl18440988   4.354   1.623   0.717 -0.1037 -0.1605 -0.1003
  203MOL   C18540989   4.161   1.706   0.547 -0.7229 -0.4375  0.1411
  203MOL   C18640990   4.155   1.575   0.480  0.1535  0.0308  0.0833
  203MOL   H18740991   4.153   1.916   0.684 -1.7640 -1.9869 -0.3090
  203MOL   H18840992   4.316   1.928   0.694  1.0464 -1.6064  0.5147
  203MOL   H18940993   4.099   1.789   0.515  2.0126  0.7955 -2.2326
  203MOL   H19040994   4.165   1.490   0.548 -0.6732 -0.3004 -0.2061
  203MOL   H19140995   4.053   1.572   0.443 -0.3796 -0.9598  1.5965
  203MOL   C19240996   4.252   1.584   0.361  0.7093 -0.1952  0.7992
  203MOL   C19340997   4.294   1.448   0.301  0.5012  0.7712 -0.7332
  203MOL  Cl19440998   4.168   1.373   0.200 -0.1403 -0.3133 -0.1433
  203MOL   C19540999   4.413   1.387   0.309 -0.2530 -0.2050 -0.2323
  203MOL   C19641000   4.540   1.432   0.380  0.2326 -0.4169 -0.0210
  203MOL   H19741001   4.346   1.635   0.379  0.7986 -0.1091  0.1115
  203MOL   H19841002   4.197   1.638   0.284  0.1266  0.1586  1.4664
  203MOL   H19941003   4.424   1.293   0.258  0.2890 -0.1572 -0.2048
  203MOL   H20041004   4.563   1.373   0.468 -0.3863 -0.8480 -0.1431
  203MOL   H20141005   4.519   1.534   0.414  2.8442  0.1971 -0.1879
  203MOL   H20241006   4.635   1.435   0.327  0.2207 -2.1216 -0.1583
  204MOL     C141007   7.626   7.406   6.272 -0.6224  0.3171 -0.3327
  204MOL     C241008   7.702   7.527   6.217  0.0055 -0.5368 -0.7920
  204MOL    Cl341009   7.803   7.593   6.339 -0.0127  0.0658 -0.2676
  204MOL     C441010   7.709   7.567   6.087  0.1745 -0.5281  0.0261
  204MOL     C541011   7.633   7.509   5.967 -0.5275  0.2627  0.6672
  204MOL     H641012   7.686   7.317   6.256  0.3247  1.2023 -1.8910
  204MOL     H741013   7.529   7.395   6.224 -0.2781  0.1362 -0.9896
  204MOL     H841014   7.765   7.652   6.054  0.4277 -1.5003 -2.1108
  204MOL     H941015   7.710   7.452   5.916  2.0995  1.0942  3.5855
  204MOL    H1041016   7.563   7.431   5.996  1.2079 -1.2989  0.6670
  204MOL    H1141017   7.618   7.426   6.379  3.0906  0.0633  0.0573
  204MOL    C1241018   7.563   7.602   5.867  0.3113 -0.8657  0.8268
  204MOL    C1341019   7.477   7.524   5.761  0.6909  0.0980  0.1762
  204MOL   Cl1441020   7.318   7.490   5.808  0.3238  0.1903  0.1863
  204MOL    C1541021   7.520   7.484   5.637  0.1538  0.0054  0.7574
  204MOL    C1641022   7.666   7.511   5.579 -0.0299 -0.0599 -0.2062
  204MOL    H1741023   7.500   7.661   5.934  1.0130 -1.0761  1.6903
  204MOL    H1841024   7.637   7.671   5.826 -1.7883  1.6835  1.1930
  204MOL    H1941025   7.446   7.433   5.577 -0.6071  0.9405  0.8824
  204MOL    H2041026   7.664   7.566   5.485  1.1973  1.0528  0.3943
  204MOL    H2141027   7.722   7.577   5.646  2.2415 -0.3152 -1.8331
  204MOL    C2241028   7.741   7.373   5.568  0.1382  0.1604 -0.6692
  204MOL    C2341029   7.882   7.383   5.505  0.1096  0.1670 -0.2094
  204MOL   Cl2441030   7.888   7.442   5.340  0.2098  0.0590  0.0103
  204MOL    C2541031   7.992   7.339   5.577 -0.4756 -0.3360  0.6087
  204MOL    C2641032   8.128   7.329   5.523 -0.0046 -0.1860  0.3977
  204MOL    H2741033   7.746   7.325   5.666 -0.5658  0.1599 -0.6341
  204MOL    H2841034   7.686   7.307   5.501  0.2537 -1.3681  0.7090
  204MOL    H2941035   7.982   7.301   5.677 -0.1968 -0.0289  0.7517
  204MOL    H3041036   8.135   7.374   5.424  0.9802  0.8802  0.9269
  204MOL    H3141037   8.196   7.393   5.580 -0.3266  1.2298 -0.7836
  204MOL    C3241038   8.197   7.196   5.514  0.7194 -0.0617 -0.2447
  204MOL    C3341039   8.121   7.094   5.434 -0.9031  0.1387  0.5324
  204MOL   Cl3441040   8.107   7.153   5.271  0.1678  0.2630  0.3082
  204MOL    C3541041   8.060   6.987   5.480 -0.7310 -0.0133  0.1811
  204MOL    C3641042   7.988   6.880   5.390  0.4966 -0.3406  0.1566
  204MOL    H3741043   8.293   7.218   5.466  0.3599  1.8955 -0.1165
  204MOL    H3841044   8.228   7.152   5.609  0.4373 -1.2901 -0.7108
  204MOL    H3941045   8.068   6.955   5.583  0.2353  2.5166  0.9227
  204MOL    H4041046   7.975   6.921   5.290 -0.1507 -0.9433 -0.0080
  204MOL    H4141047   8.054   6.795   5.379  1.5290  0.4479  0.1907
  204MOL    C4241048   7.849   6.850   5.441 -0.9035  0.4594 -0.1256
  204MOL    C4341049   7.841   6.736   5.536 -0.2033  0.1022 -0.3805
  204MOL   Cl4441050   7.809   6.794   5.696  0.2163  0.2092  0.1137
  204MOL    C4541051   7.852   6.602   5.499 -0.0472  0.0608 -0.0094
  204MOL    C4641052   7.880   6.543   5.361 -0.5131 -0.2422  1.1653
  204MOL    H4741053   7.809   6.942   5.484 -0.2350 -0.4829  2.5651
  204MOL    H4841054   7.777   6.827   5.363 -0.3694  0.7084 -0.6968
  204MOL    H4941055   7.848   6.523   5.573 -3.0324  1.2993  1.2101
  204MOL    H5041056   7.895   6.628   5.294 -1.2528  0.5115  1.9395
  204MOL    H5141057   7.969   6.480   5.359  0.3713  0.9935  0.7851
  204MOL    C5241058   7.768   6.456   5.308 -0.3417 -0.1642 -0.3889
  204MOL    C5341059   7.626   6.511   5.321 -0.4477 -0.2975  0.5659
  204MOL   Cl5441060   7.603   6.653   5.234  0.3449 -0.2455 -0.0013
  204MOL    C5541061   7.530   6.459   5.401 -0.0814  0.1753  0.6158
  204MOL    C5641062   7.387   6.505   5.422 -0.6908  0.4447  0.3460
  204MOL    H5741063   7.796   6.430   5.206  3.1363  1.8089 -0.0211
  204MOL    H5841064   7.782   6.367   5.369  0.1210  0.3800  0.2992
  204MOL    H5941065   7.556   6.374   5.463 -0.2866 -1.5871 -1.6651
  204MOL    H6041066   7.386   6.568   5.511  0.5020  1.8578 -0.6094
  204MOL    H6141067   7.361   6.571   5.338 -1.2201  0.6711  0.6843
  204MOL    C6241068   7.291   6.390   5.427 -0.8986 -0.3379  0.0934
  204MOL    C6341069   7.158   6.434   5.485  0.3453 -0.2455 -0.3533
  204MOL   Cl6441070   7.115   6.353   5.636  0.2320 -0.1834  0.0002
  204MOL    C6541071   7.070   6.518   5.416  0.2454 -0.7965  0.5950
  204MOL    C6641072   6.931   6.570   5.463 -0.4016 -0.3580  0.4479
  204MOL    H6741073   7.275   6.370   5.321  1.0739  1.5853 -0.5894
  204MOL    H6841074   7.334   6.296   5.462 -3.1676 -0.8562  1.6511
  204MOL    H6941075   7.101   6.544   5.316 -0.0555 -1.3359  0.3570
  204MOL    H7041076   6.910   6.514   5.554  3.6821  0.1587  1.8343
  204MOL    H7141077   6.848   6.544   5.398 -0.5324 -0.5797  0.7046
  204MOL    C7241078   6.919   6.720   5.484 -0.3279 -0.9471  0.5841
  204MOL    C7341079   6.775   6.759   5.519 -0.1203  0.4855 -0.2590
  204MOL   Cl7441080   6.747   6.921   5.484  0.1710  0.2182 -0.2734
  204MOL    C7541081   6.672   6.683   5.559  0.7368 -0.4098  0.5554
  204MOL    C7641082   6.530   6.726   5.581  0.5390 -0.4449 -0.2993
  204MOL    H7741083   6.951   6.762   5.389 -1.2986 -0.3378  0.5224
  204MOL    H7841084   6.996   6.750   5.555 -2.1995  2.8750  1.1388
  204MOL    H7941085   6.683   6.577   5.578  2.5511 -0.9429 -3.0401
  204MOL    H8041086   6.527   6.833   5.560  0.2302 -0.6805 -1.5122
  204MOL    H8141087   6.512   6.706   5.686  0.3604  0.8212 -0.0759
  204MOL    C8241088   6.429   6.655   5.493 -0.1857  0.0664  0.9510
  204MOL    C8341089   6.370   6.528   5.554 -0.2047 -0.6722 -0.1155
  204MOL   Cl8441090   6.224   6.488   5.476 -0.2810  0.2827  0.0008
  204MOL    C8541091   6.425   6.444   5.643 -0.2844  0.1754  0.3011
  204MOL    C8641092   6.371   6.317   5.702  0.0096 -0.3650  0.0381
  204MOL    H8741093   6.465   6.633   5.393 -0.1641 -0.0732  0.9891
  204MOL    H8841094   6.342   6.717   5.471 -1.3852 -2.2707 -1.1249
  204MOL    H8941095   6.523   6.460   5.686 -0.6317 -0.0822  1.1908
  204MOL    H9041096   6.374   6.320   5.811 -1.2606  0.2518  0.0681
  204MOL    H9141097   6.267   6.296   5.676 -0.1189  0.2243  0.0833
  204MOL    C9241098   6.436   6.185   5.655 -0.0752 -0.6936 -0.1167
  204MOL    C9341099   6.409   6.070   5.753 -0.2412 -0.4038  0.1889
  204MOL   Cl9441100   6.530   6.061   5.878  0.6599 -0.5124  0.2138
  204MOL    C9541101   6.295   5.994   5.751  0.5209  0.2456  0.0791
  204MOL    C9641102   6.173   6.013   5.656 -0.5036 -1.0379  0.4773
  204MOL    H9741103   6.545   6.194   5.653 -0.0977 -0.5111 -0.4672
  204MOL    H9841104   6.410   6.151   5.555 -0.5710 -1.8643  0.3926
  204MOL    H9941105   6.281   5.919   5.826 -1.1056 -0.5390 -0.9803
  204MOL   H10041106   6.123   6.105   5.687 -2.3549 -2.3053  1.2823
  204MOL   H10141107   6.210   6.015   5.553 -0.6776 -1.3378  0.4099
  204MOL   C10241108   6.076   5.898   5.666  0.5016  0.3380 -0.0718
  204MOL   C10341109   5.964   5.900   5.560  1.0622  0.7054  0.4663
  204MOL  Cl10441110   6.019   5.916   5.400  0.1544 -0.1276  0.1405
  204MOL   C10541111   5.837   5.925   5.597  0.2662 -0.0217  0.0820
  204MOL   C10641112   5.717   5.945   5.507  0.1423  0.7668  0.4531
  204MOL   H10741113   6.128   5.804   5.648 -0.8778 -0.5963  0.7293
  204MOL   H10841114   6.052   5.896   5.773  1.2045 -0.4149  0.0727
  204MOL   H10941115   5.807   5.932   5.700 -0.3276  2.6682 -0.2338
  204MOL   H11041116   5.751   5.922   5.406  0.6948 -0.7458  0.9775
  204MOL   H11141117   5.635   5.883   5.543 -0.6017  1.7176  0.4236
  204MOL   C11241118   5.663   6.088   5.508 -0.4060  0.4165 -0.2302
  204MOL   C11341119   5.761   6.187   5.438 -0.3469 -0.3982  0.3422
  204MOL  Cl11441120   5.867   6.264   5.556  0.0419  0.5735  0.1861
  204MOL   C11541121   5.785   6.216   5.312 -0.0976 -0.3033 -0.3733
  204MOL   C11641122   5.711   6.149   5.192  0.0707  0.5043 -0.6130
  204MOL   H11741123   5.560   6.091   5.473 -0.7050  2.3057  0.7463
  204MOL   H11841124   5.664   6.119   5.612 -1.4384  1.8637 -0.6399
  204MOL   H11941125   5.869   6.282   5.297  1.0136 -1.7412 -0.5506
  204MOL   H12041126   5.676   6.228   5.126  1.8308  0.7243 -1.3128
  204MOL   H12141127   5.616   6.115   5.235 -0.0978  1.2031 -0.4214
  204MOL   C12241128   5.779   6.039   5.121 -0.4643  0.0131  0.3664
  204MOL   C12341129   5.689   5.974   5.012  0.0297 -0.6734  0.9721
  204MOL  Cl12441130   5.726   6.034   4.859 -0.1030  0.1938  0.1494
  204MOL   C12541131   5.590   5.888   5.027  0.6995  0.0372 -0.6149
  204MOL   C12641132   5.537   5.837   5.161 -0.7174  0.2813 -0.3069
  204MOL   H12741133   5.866   6.084   5.072 -2.1808  1.6385 -1.3008
  204MOL   H12841134   5.813   5.965   5.192 -0.5652 -0.8708 -0.4913
  204MOL   H12941135   5.536   5.863   4.937  0.4406 -1.2853 -0.1018
  204MOL   H13041136   5.564   5.733   5.173  1.8090  0.7119 -2.0056
  204MOL   H13141137   5.577   5.888   5.248  0.3842 -1.4044  0.1960
  204MOL   C13241138   5.384   5.847   5.177 -0.3765 -0.7213 -0.1008
  204MOL   C13341139   5.341   5.863   5.324 -0.5742 -0.2055 -0.2005
  204MOL  Cl13441140   5.368   5.713   5.408 -0.2414 -0.1039 -0.0284
  204MOL   C13541141   5.285   5.973   5.380  0.5088 -0.1509  0.3708
  204MOL   C13641142   5.259   6.112   5.324 -0.7008  0.1083  0.0369
  204MOL   H13741143   5.345   5.932   5.121  0.6309  1.0333  1.7669
  204MOL   H13841144   5.334   5.760   5.135 -0.5588  0.0144 -1.4206
  204MOL   H13941145   5.250   5.955   5.481 -0.0239  0.6488  0.3316
  204MOL   H14041146   5.301   6.179   5.398  2.0808 -0.3662 -1.0643
  204MOL   H14141147   5.318   6.125   5.234 -0.4940 -0.0440  0.1491
  204MOL   C14241148   5.101   6.127   5.309 -0.4531 -0.1935  0.5003
  204MOL   C14341149   5.056   6.263   5.280  0.4566 -0.8982 -0.0313
  204MOL  Cl14441150   4.979   6.357   5.408 -0.2333  0.4716  0.2142
  204MOL   C14541151   5.071   6.321   5.160 -0.2006  0.8596  0.5600
  204MOL   C14641152   5.024   6.455   5.106 -0.3115  0.5045 -0.2565
  204MOL   H14741153   5.054   6.095   5.402 -2.7867 -0.0675 -0.5813
  204MOL   H14841154   5.064   6.056   5.235 -2.7594  1.4813 -0.0036
  204MOL   H14941155   5.120   6.262   5.084 -1.1722 -0.5247  0.9985
  204MOL   H15041156   4.954   6.437   5.025 -0.0733  0.7124 -0.5115
  204MOL   H15141157   4.986   6.494   5.201  1.1932 -1.2200  1.0878
  204MOL   C15241158   5.146   6.551   5.070  0.6702 -0.0696 -0.5849
  204MOL   C15341159   5.105   6.683   5.008  0.4527  0.0888  0.2968
  204MOL  Cl15441160   5.023   6.662   4.856  0.2377 -0.4207 -0.0995
  204MOL   C15541161   5.131   6.803   5.058 -0.3768  0.2564  0.1127
  204MOL   C15641162   5.098   6.935   4.992  0.2492  0.4573 -0.6456
  204MOL   H15741163   5.200   6.573   5.162 -0.1356  1.2871 -0.4144
  204MOL   H15841164   5.207   6.498   4.996 -0.3035 -2.7332  0.4787
  204MOL   H15941165   5.177   6.802   5.156  1.8004 -1.1222 -0.9078
  204MOL   H16041166   5.081   6.992   5.083  1.9362  0.3727 -0.2670
  204MOL   H16141167   4.999   6.925   4.948  0.5816  0.2480 -1.3506
  204MOL   C16241168   5.187   6.983   4.873  0.2091  0.0099 -0.0397
  204MOL   C16341169   5.137   7.105   4.802  0.1184  0.4114  0.0948
  204MOL  Cl16441170   5.170   7.098   4.628 -0.0503  0.1050  0.2666
  204MOL   C16541171   5.073   7.210   4.863  0.6501 -0.7385  0.7857
  204MOL   C16641172   5.043   7.339   4.796 -0.3494 -0.2211 -0.1586
  204MOL   H16741173   5.290   6.996   4.908 -0.6872  2.8903  1.6642
  204MOL   H16841174   5.186   6.896   4.807  0.3432  0.7217 -1.0001
  204MOL   H16941175   5.044   7.210   4.967 -0.6784  2.8262  0.4789
  204MOL   H17041176   5.006   7.404   4.875  0.4629  0.9906 -0.7687
  204MOL   H17141177   5.130   7.384   4.749  0.0544  1.0031  1.7216
  204MOL   C17241178   4.925   7.326   4.702 -0.0367  0.6626 -0.1002
  204MOL   C17341179   4.900   7.451   4.637  0.5410  0.0210 -0.9787
  204MOL  Cl17441180   4.804   7.554   4.732 -0.2410 -0.1693  0.1501
  204MOL   C17541181   4.946   7.477   4.517 -0.6131  0.3192 -0.4550
  204MOL   C17641182   4.928   7.602   4.431 -0.3160 -0.3177 -0.7004
  204MOL   H17741183   4.836   7.297   4.758  0.9828 -0.1048  1.1400
  204MOL   H17841184   4.933   7.248   4.626 -0.0619  2.0757 -1.5838
  204MOL   H17941185   5.011   7.400   4.477 -0.2887 -0.9289  2.3205
  204MOL   H18041186   5.026   7.628   4.391 -0.3871 -0.0151 -0.6801
  204MOL   H18141187   4.888   7.672   4.505 -0.2909 -0.5488 -0.4673
  204MOL   C18241188   4.827   7.581   4.318 -0.5490  0.7785  0.3593
  204MOL   C18341189   4.800   7.710   4.239 -0.1907  0.0811  0.0255
  204MOL  Cl18441190   4.661   7.799   4.286  0.2949 -0.0638 -0.0401
  204MOL   C18541191   4.865   7.736   4.123 -0.1732 -0.7056 -1.0509
  204MOL   C18641192   4.837   7.860   4.039 -0.6128  0.9036  0.1640
  204MOL   H18741193   4.858   7.510   4.241 -0.9974 -1.0773  1.8577
  204MOL   H18841194   4.734   7.534   4.351 -0.2918 -1.6472 -2.2060
  204MOL   H18941195   4.943   7.671   4.087  1.4070  0.0744  0.8744
  204MOL   H19041196   4.792   7.823   3.947  1.4598 -0.3508 -0.3865
  204MOL   H19141197   4.768   7.933   4.082 -0.3983  0.5445  1.1423
  204MOL   C19241198   4.969   7.917   3.999  0.4267  0.2307 -0.0569
  204MOL   C19341199   4.954   8.045   3.911 -0.1135 -0.8346 -0.4481
  204MOL  Cl19441200   5.016   8.026   3.753  0.0254 -0.1009  0.3191
  204MOL   C19541201   4.908   8.161   3.958 -0.5478 -0.6316 -0.6857
  204MOL   C19641202   4.848   8.190   4.093 -0.5141  0.7973 -0.8387
  204MOL   H19741203   5.036   7.846   3.951  0.0689  0.0857 -0.3497
  204MOL   H19841204   5.036   7.940   4.082  0.4421 -0.8728  0.2422
  204MOL   H19941205   4.904   8.245   3.889  1.6902 -0.2034 -0.3252
  204MOL   H20041206   4.739   8.185   4.085 -0.5867 -0.2966  0.7091
  204MOL   H20141207   4.886   8.284   4.134 -2.2468  1.0348  0.2480
  204MOL   H20241208   4.879   8.119   4.169 -2.5169 -0.7557 -1.4403
  205MOL     C141209   4.000   3.448   0.457  0.4592 -0.3128 -0.3440
  205MOL     C241210   3.875   3.532   0.495 -0.6575  0.3002 -0.6388
  205MOL    Cl341211   3.857   3.541   0.669 -0.0150  0.0520  0.0865
  205MOL     C441212   3.789   3.579   0.408 -0.3568 -0.3204 -0.7291
  205MOL     C541213   3.804   3.586   0.255 -0.0567  0.0631 -0.0836
  205MOL     H641214   3.997   3.390   0.364 -0.8274  1.4248 -1.4107
  205MOL     H741215   4.010   3.362   0.524  1.4913 -0.3404 -0.5227
  205MOL     H841216   3.703   3.636   0.442 -0.0561  0.6711 -1.6266
  205MOL     H941217   3.828   3.688   0.228  0.3542 -0.5615 -2.1962
  205MOL    H1041218   3.888   3.525   0.220 -0.4524 -1.8285  2.1258
  205MOL    H1141219   4.092   3.501   0.480 -0.6852  0.7144  2.0508
  205MOL    C1241220   3.687   3.540   0.179  0.9145 -0.2701  0.0546
  205MOL    C1341221   3.706   3.549   0.027  0.2132  0.1208 -0.4942
  205MOL   Cl1441222   3.688   3.711   8.383  0.1189  0.1451 -0.4268
  205MOL    C1541223   3.748   3.448   8.370  0.1809  0.6440  0.0113
  205MOL    C1641224   3.780   3.306   8.414 -0.2923  0.4735 -0.1190
  205MOL    H1741225   3.650   3.443   0.213 -3.9218  1.6906  0.8522
  205MOL    H1841226   3.607   3.610   0.203  2.6905  1.6293  0.5859
  205MOL    H1941227   3.761   3.464   8.264  2.7600  0.5304  0.2849
  205MOL    H2041228   3.740   3.291   0.094  0.4499  0.2752  0.1516
  205MOL    H2141229   3.726   3.234   8.352  1.8513 -2.3084  1.0929
  205MOL    C2241230   3.930   3.277   8.414 -0.5853 -0.6144  0.0123
  205MOL    C2341231   3.958   3.132   0.027 -0.4866 -0.5186 -0.1098
  205MOL   Cl2441232   3.928   3.092   0.194  0.2220  0.3778 -0.0526
  205MOL    C2541233   3.985   3.037   8.353 -0.0579 -0.8275 -0.1398
  205MOL    C2641234   4.010   2.887   8.379  0.0952  0.4936  0.4750
  205MOL    H2741235   3.967   3.303   8.314 -0.2260 -0.9116  0.0665
  205MOL    H2841236   3.970   3.336   0.075 -1.0868  2.8302 -2.1133
  205MOL    H2941237   3.998   3.070   8.251  0.5149 -1.2577 -0.2077
  205MOL    H3041238   4.043   2.868   0.060 -0.1618  0.7749  0.6111
  205MOL    H3141239   3.915   2.833   8.383  0.4359 -0.0941  0.6764
  205MOL    C3241240   4.117   2.825   8.281 -0.3533  0.4091  0.4956
  205MOL    C3341241   4.141   2.679   8.299  0.4526  0.7090  0.2368
  205MOL   Cl3441242   4.088   2.577   8.163  0.4390  0.0353  0.4612
  205MOL    C3541243   4.159   2.617   8.417  0.8098 -0.3618  0.4170
  205MOL    C3641244   4.154   2.471   0.028  0.0573  0.5337 -0.9935
  205MOL    H3741245   4.086   2.833   8.177  3.3242  1.6238 -0.5628
  205MOL    H3841246   4.214   2.874   8.278  1.7068 -3.4957  1.1991
  205MOL    H3941247   4.169   2.679   0.084  0.3951 -0.1410  0.3089
  205MOL    H4041248   4.061   2.455   0.083  0.5335  0.4981 -0.1765
  205MOL    H4141249   4.127   2.416   8.359  1.5240 -1.7743 -0.0606
  205MOL    C4241250   4.275   2.414   0.094  0.1403 -0.2195 -0.2533
  205MOL    C4341251   4.266   2.268   0.096 -0.0836 -1.0665 -0.4644
  205MOL   Cl4441252   4.318   2.198   8.367 -0.3150 -0.1333 -0.0788
  205MOL    C4541253   4.236   2.187   0.200  0.0361  0.4609  0.2542
  205MOL    C4641254   4.192   2.222   0.340 -0.3345  0.1785 -1.1407
  205MOL    H4741255   4.366   2.446   0.043 -0.6851  1.7085 -0.5594
  205MOL    H4841256   4.283   2.458   0.193  2.3421 -1.9226  0.3631
  205MOL    H4941257   4.234   2.080   0.181 -1.9097  0.4423  0.4780
  205MOL    H5041258   4.222   2.324   0.362  0.7516 -0.3697 -0.0033
  205MOL    H5141259   4.084   2.209   0.349  0.2302 -4.4618  0.6107
  205MOL    C5241260   4.278   2.129   0.431 -0.1469 -0.5088 -0.1550
  205MOL    C5341261   4.250   2.169   0.578  0.0009 -0.1165  0.6120
  205MOL   Cl5441262   4.399   2.203   0.658  0.0281  0.2831 -0.1881
  205MOL    C5541263   4.126   2.191   0.628 -0.0688 -0.2402  0.8580
  205MOL    C5641264   4.085   2.236   0.771 -1.1126 -0.5377 -0.5942
  205MOL    H5741265   4.247   2.027   0.410 -1.6535 -0.2485  0.6792
  205MOL    H5841266   4.383   2.152   0.414 -0.1782  0.1190  0.4719
  205MOL    H5941267   4.043   2.176   0.561  0.8711 -0.1366 -0.3634
  205MOL    H6041268   4.038   2.150   0.817  0.2702 -0.1179  1.6617
  205MOL    H6141269   4.176   2.258   0.826 -1.7144 -0.6727  0.4606
  205MOL    C6241270   3.972   2.344   0.769 -0.1533 -0.2062  0.5233
  205MOL    C6341271   4.033   2.483   0.795  0.3298 -0.0469 -0.1572
  205MOL   Cl6441272   3.913   2.586   0.870  0.1219 -0.0660  0.4280
  205MOL    C6541273   4.161   2.519   0.768 -0.0601 -0.3597  0.5037
  205MOL    C6641274   4.228   2.651   0.792  0.0900  0.1130 -0.2189
  205MOL    H6741275   3.917   2.341   0.674 -1.8143  0.6287  1.4422
  205MOL    H6841276   3.901   2.322   0.848 -0.4846  2.9924  1.1822
  205MOL    H6941277   4.239   2.458   0.724 -0.6153 -0.5628 -0.2267
  205MOL    H7041278   4.321   2.639   0.848 -1.4550  0.3359  2.4852
  205MOL    H7141279   4.160   2.716   0.848 -0.3539 -0.5191 -0.0168
  205MOL    C7241280   4.263   2.725   0.660 -0.1310  0.5103 -0.6775
  205MOL    C7341281   4.322   2.860   0.689 -0.4712 -0.0044 -0.2672
  205MOL   Cl7441282   4.490   2.854   0.714  0.5104  0.2167 -0.0260
  205MOL    C7541283   4.259   2.973   0.689  0.3279  0.4833 -0.0704
  205MOL    C7641284   4.310   3.108   0.715 -0.6082 -0.1195  0.1110
  205MOL    H7741285   4.168   2.736   0.608  0.1187 -2.3373 -1.8291
  205MOL    H7841286   4.337   2.667   0.604  1.9595  1.0371  1.4569
  205MOL    H7941287   4.153   2.959   0.672  0.8604 -2.0294 -1.4931
  205MOL    H8041288   4.324   3.157   0.619 -2.9275 -2.2754 -1.3596
  205MOL    H8141289   4.409   3.105   0.760 -1.3482  2.0834  1.9721
  205MOL    C8241290   4.217   3.194   0.800  0.2744 -0.2539 -0.0847
  205MOL    C8341291   4.267   3.337   0.803  0.0440  0.5349 -0.0755
  205MOL   Cl8441292   4.308   3.372   0.968  0.0564  0.1782  0.2611
  205MOL    C8541293   4.271   3.420   0.698 -0.4762  0.2736 -0.9625
  205MOL    C8641294   4.324   3.562   0.717  0.5808 -0.6175  0.7498
  205MOL    H8741295   4.207   3.143   0.896  1.3628 -0.0699  0.1324
  205MOL    H8841296   4.114   3.196   0.764 -0.4323 -1.5385  1.7864
  205MOL    H8941297   4.242   3.385   0.600  1.5031 -1.9181 -0.8131
  205MOL    H9041298   4.257   3.625   0.659  0.6860 -0.6422  0.6009
  205MOL    H9141299   4.293   3.589   0.818 -1.5421 -0.3579  0.0575
  205MOL    C9241300   4.470   3.562   0.680  0.0996 -0.3374 -0.0895
  205MOL    C9341301   4.494   3.678   0.591  0.4586  0.3095 -0.3981
  205MOL   Cl9441302   4.522   3.820   0.678 -0.0901  0.1337 -0.0113
  205MOL    C9541303   4.502   3.680   0.458  0.7533  0.1944 -0.0887
  205MOL    C9641304   4.497   3.560   0.361 -0.7708 -0.3438  0.4869
  205MOL    H9741305   4.494   3.474   0.620 -3.2126 -0.8345 -0.8155
  205MOL    H9841306   4.528   3.558   0.771 -0.6015 -0.9906  0.3316
  205MOL    H9941307   4.514   3.776   0.410  1.7057 -0.3844 -1.0364
  205MOL   H10041308   4.595   3.558   0.313 -1.1589  0.4768 -0.3634
  205MOL   H10141309   4.508   3.465   0.411  1.2369 -1.5005 -2.0024
  205MOL   C10241310   4.378   3.570   0.264  0.4832 -0.3897  0.1118
  205MOL   C10341311   4.367   3.446   0.182  0.0867 -0.2940  0.0111
  205MOL  Cl10441312   4.263   3.329   0.247 -0.0134 -0.3050  0.2046
  205MOL   C10541313   4.436   3.424   0.072 -0.5767  0.3016  0.3702
  205MOL   C10641314   4.437   3.292   8.415 -0.2906  0.3721 -0.0085
  205MOL   H10741315   4.285   3.592   0.316  1.1132  1.4397  0.5140
  205MOL   H10841316   4.393   3.654   0.196 -1.6234  1.0683  1.3799
  205MOL   H10941317   4.498   3.504   0.035 -1.4863  1.1296  0.6166
  205MOL   H11041318   4.369   3.214   0.029 -1.9455  0.9407 -1.9338
  205MOL   H11141319   4.390   3.322   8.322  0.6937  0.5225 -0.4620
  205MOL   C11241320   4.580   3.230   8.398 -0.2854 -0.1387 -0.2901
  205MOL   C11341321   4.599   3.132   8.282 -0.6834  0.5547 -1.5419
  205MOL  Cl11441322   4.462   3.036   8.260  0.0033 -0.0807  0.0314
  205MOL   C11541323   4.716   3.108   8.215  0.5250 -0.0035 -0.2673
  205MOL   C11641324   4.848   3.179   8.225  0.8142  0.1668 -0.4194
  205MOL   H11741325   4.660   3.303   8.386  0.7950 -1.3582 -0.6353
  205MOL   H11841326   4.613   3.169   0.061  0.2631  1.0872  0.3829
  205MOL   H11941327   4.699   3.034   8.138 -0.1903  0.3462 -0.4628
  205MOL   H12041328   4.843   3.237   8.317  0.5237 -1.4902  0.6279
  205MOL   H12141329   4.857   3.256   8.149  0.4621 -0.4328 -1.0719
  205MOL   C12241330   4.967   3.084   8.226 -0.0601 -0.3012  0.0316
  205MOL   C12341331   5.100   3.147   8.272  0.5824  0.1154  0.1952
  205MOL  Cl12441332   5.132   3.122   0.019  0.0437 -0.3210 -0.0437
  205MOL   C12541333   5.182   3.226   8.201  0.0819 -0.0551  0.4895
  205MOL   C12641334   5.156   3.266   8.053  0.4299  0.0996  0.2723
  205MOL   H12741335   4.947   3.003   8.296  0.3867  0.6440  1.2806
  205MOL   H12841336   4.981   3.029   8.133  1.6036 -1.6506  1.0361
  205MOL   H12941337   5.267   3.271   8.248 -0.9289  2.5892 -0.1158
  205MOL   H13041338   5.077   3.212   8.000  1.6670  1.4193 -3.0695
  205MOL   H13141339   5.128   3.372   8.057 -1.4810 -0.3810  0.0934
  205MOL   C13241340   5.280   3.266   7.961 -0.0314  0.4029  0.2324
  205MOL   C13341341   5.325   3.408   7.922 -0.2233 -0.1492  0.6630
  205MOL  Cl13441342   5.275   3.451   7.756  0.1590 -0.2262  0.0014
  205MOL   C13541343   5.408   3.493   7.990  0.3254  0.6160  0.5972
  205MOL   C13641344   5.462   3.479   8.132 -0.7939  0.8520  0.3418
  205MOL   H13741345   5.367   3.208   7.992 -1.4072 -2.7752 -1.5518
  205MOL   H13841346   5.245   3.216   7.871  0.6972 -1.6278  1.0599
  205MOL   H13941347   5.432   3.582   7.933 -1.3528  0.1759 -0.8364
  205MOL   H14041348   5.449   3.377   8.168  1.2715  0.6651  0.5907
  205MOL   H14141349   5.571   3.485   8.135 -0.7621 -0.5721  2.1128
  205MOL   C14241350   5.390   3.580   8.220 -0.4327  0.6905 -0.4055
  205MOL   C14341351   5.434   3.576   8.365 -0.0870  0.0262 -0.1222
  205MOL  Cl14441352   5.587   3.648   8.375 -0.1452  0.0074  0.1395
  205MOL   C14541353   5.365   3.517   0.038  0.0361  0.1578  0.1148
  205MOL   C14641354   5.384   3.493   0.183  0.4493  0.6529  0.7031
  205MOL   H14741355   5.286   3.547   8.223 -0.2957  0.2828  0.1016
  205MOL   H14841356   5.393   3.681   8.180 -2.9022  0.1677 -1.9948
  205MOL   H14941357   5.275   3.464   0.008 -0.0838 -0.9416  2.3083
  205MOL   H15041358   5.478   3.532   0.222  2.8027 -3.4753 -0.4891
  205MOL   H15141359   5.315   3.554   0.240  0.0120  1.9713 -1.1888
  205MOL   C15241360   5.364   3.349   0.225  0.1042 -0.9532  0.8598
  205MOL   C15341361   5.396   3.310   0.371  0.0681  0.1537  0.6740
  205MOL  Cl15441362   5.498   3.170   0.378  0.2528 -0.4303 -0.1107
  205MOL   C15541363   5.358   3.386   0.479 -0.4076 -0.5423  0.0670
  205MOL   C15641364   5.399   3.364   0.630  1.2490 -0.3858 -0.6689
  205MOL   H15741365   5.258   3.331   0.208  0.5112 -0.6576 -2.1551
  205MOL   H15841366   5.429   3.281   0.169 -0.1567 -1.2525  0.9167
  205MOL   H15941367   5.301   3.476   0.464  1.8613  1.0572  0.7831
  205MOL   H16041368   5.452   3.454   0.660  0.6943  0.4205 -2.0430
  205MOL   H16141369   5.470   3.282   0.637  0.6839 -0.7050  1.6865
  205MOL   C16241370   5.266   3.342   0.714  0.2117  0.0889 -0.7569
  205MOL   C16341371   5.239   3.188   0.743 -0.4344 -0.2027  1.1220
  205MOL  Cl16441372   5.195   3.167   0.913  0.0290  0.1135 -0.2241
  205MOL   C16541373   5.247   3.090   0.656 -0.4015  0.6885  0.0282
  205MOL   C16641374   5.230   2.946   0.681  0.6144 -0.2436 -0.1340
  205MOL   H16741375   5.285   3.393   0.809  0.2623  1.0024 -1.2496
  205MOL   H16841376   5.177   3.391   0.675 -0.1599  1.2690  1.5178
  205MOL   H16941377   5.279   3.112   0.555  0.4089 -0.0445  0.1206
  205MOL   H17041378   5.200   2.930   0.784  0.1412  0.5553 -0.1462
  205MOL   H17141379   5.143   2.923   0.620  0.0947  0.9520  0.1525
  205MOL   C17241380   5.358   2.876   0.651  0.5695  0.2563 -0.2374
  205MOL   C17341381   5.357   2.728   0.649 -0.2461  0.0702 -0.4758
  205MOL  Cl17441382   5.343   2.662   0.808 -0.1390 -0.1240  0.2501
  205MOL   C17541383   5.371   2.654   0.532  0.0085 -0.8565  1.0201
  205MOL   C17641384   5.365   2.502   0.516 -0.3131  0.1900 -0.1552
  205MOL   H17741385   5.426   2.926   0.721 -0.0185  1.9789 -0.8801
  205MOL   H17841386   5.400   2.901   0.554  2.8136  2.4287  1.2189
  205MOL   H17941387   5.386   2.700   0.435  0.9741 -1.4115  0.9088
  205MOL   H18041388   5.362   2.466   0.619  1.5982  1.0276  0.2115
  205MOL   H18141389   5.459   2.462   0.481 -1.9698 -1.8034 -2.4605
  205MOL   C18241390   5.243   2.464   0.431  0.1535  0.2950 -0.6215
  205MOL   C18341391   5.245   2.313   0.403 -0.5634  0.7871  0.0919
  205MOL  Cl18441392   5.342   2.268   0.263  0.5180  0.1933 -0.2827
  205MOL   C18541393   5.188   2.224   0.488 -0.3782 -0.2883 -0.1569
  205MOL   C18641394   5.188   2.075   0.471  0.5421 -0.2212  0.1642
  205MOL   H18741395   5.146   2.487   0.476 -1.1659 -1.1908 -2.6320
  205MOL   H18841396   5.241   2.515   0.335 -2.6355  1.3531 -0.0624
  205MOL   H18941397   5.140   2.255   0.579  1.3640 -0.2846  0.7855
  205MOL   H19041398   5.210   2.056   0.366 -0.1869  0.1735 -0.0604
  205MOL   H19141399   5.279   2.045   0.523  0.8549  1.6661  0.7600
  205MOL   C19241400   5.058   2.002   0.515 -0.1302  0.2082 -0.3440
  205MOL   C19341401   5.054   1.848   0.490 -0.0783 -0.1794  0.5330
  205MOL  Cl19441402   4.983   1.822   0.336  0.0511 -0.0197 -0.0429
  205MOL   C19541403   5.119   1.747   0.555 -0.0429  0.2848 -0.2763
  205MOL   C19641404   5.189   1.761   0.694 -0.2519 -0.3499  0.3763
  205MOL   H19741405   4.968   2.043   0.470  0.2028  1.3698  0.0454
  205MOL   H19841406   5.040   2.022   0.620 -0.0169 -1.9153  0.1033
  205MOL   H19941407   5.120   1.644   0.521 -0.9431 -0.1033  0.8503
  205MOL   H20041408   5.270   1.835   0.696  0.0266 -0.6402 -0.0454
  205MOL   H20141409   5.232   1.668   0.733 -0.9781 -0.6188  0.5433
  205MOL   H20241410   5.108   1.802   0.755  1.2593 -0.0003  2.2189
  206MOL     C141411   0.203   2.379   2.775 -0.1629  0.4522 -0.8145
  206MOL     C241412   0.213   2.517   2.836 -0.0045  0.6044  0.0937
  206MOL    Cl341413   0.336   2.605   2.747 -0.8841 -0.1670 -0.3659
  206MOL     C441414   0.153   2.568   2.945 -0.2579 -0.0013  0.2970
  206MOL     C541415   0.047   2.491   3.036 -0.1357 -0.1020  1.0132
  206MOL     H641416   0.220   2.378   2.667 -1.2332 -1.4003 -0.9936
  206MOL     H741417   0.104   2.340   2.799  0.6608 -2.0813 -1.3059
  206MOL     H841418   0.176   2.667   2.980  0.8916  0.7917 -2.6274
  206MOL     H941419   0.060   2.386   3.011 -1.0750 -0.1573  0.7317
  206MOL    H1041420   0.081   2.511   3.137  3.0453 -0.0638  0.0050
  206MOL    H1141421   0.287   2.316   2.804 -1.7615 -0.3079  2.4167
  206MOL    C1241422   8.328   2.543   3.006 -0.3120  0.2459  0.8189
  206MOL    C1341423   8.230   2.451   3.069 -0.4769  0.5066  0.2382
  206MOL   Cl1441424   8.162   2.532   3.209 -0.0143 -0.2346  0.0332
  206MOL    C1541425   8.181   2.329   3.035  0.0727  0.2524 -0.0665
  206MOL    C1641426   8.233   2.247   2.922 -0.3634 -0.2531  0.2136
  206MOL    H1741427   8.329   2.641   3.053  1.9997  0.8924 -0.5559
  206MOL    H1841428   8.304   2.556   2.901 -3.2623 -4.2469  0.7912
  206MOL    H1941429   8.102   2.290   3.097 -0.5208  1.7588  0.1686
  206MOL    H2041430   8.286   2.308   2.850 -1.0342  0.5368  0.3829
  206MOL    H2141431   8.300   2.168   2.958  1.8262  1.4206 -0.1009
  206MOL    C2241432   8.119   2.161   2.851 -0.5798 -0.9136  0.4021
  206MOL    C2341433   8.059   2.044   2.923 -0.5083 -0.1421  0.0087
  206MOL   Cl2441434   7.984   1.945   2.810  0.2509 -0.3260 -0.1498
  206MOL    C2541435   8.071   2.007   3.053 -0.2970 -0.1842  0.1165
  206MOL    C2641436   8.016   1.886   3.121  0.4796  0.0019  0.1362
  206MOL    H2741437   8.039   2.232   2.832 -1.0126 -1.4031  0.4012
  206MOL    H2841438   8.145   2.136   2.748 -1.7953 -0.2334 -0.0750
  206MOL    H2941439   8.127   2.085   3.102 -1.7787  0.8872  0.1414
  206MOL    H3041440   7.982   1.919   3.219 -1.1588 -0.5823 -0.2147
  206MOL    H3141441   7.930   1.853   3.063  1.9298 -1.0258 -1.5008
  206MOL    C3241442   8.122   1.770   3.131  0.4729 -0.0481 -0.4774
  206MOL    C3341443   8.198   1.777   3.255 -0.5498  0.5268 -0.1538
  206MOL   Cl3441444   8.326   1.882   3.247 -0.1232 -0.0419 -0.6139
  206MOL    C3541445   8.173   1.709   3.370  0.2361 -0.0144 -0.1501
  206MOL    C3641446   8.248   1.713   3.503  0.7052  0.6473  0.2351
  206MOL    H3741447   8.067   1.678   3.149  0.1068  0.5181  1.4444
  206MOL    H3841448   8.184   1.760   3.042  0.4799 -0.8274 -0.3842
  206MOL    H3941449   8.092   1.639   3.380  1.1740 -0.9641  1.0399
  206MOL    H4041450   8.336   1.776   3.499  0.9367  0.2657 -1.2738
  206MOL    H4141451   8.177   1.772   3.560 -0.0940 -1.1097  1.1270
  206MOL    C4241452   8.263   1.578   3.580 -0.0721  0.0906  0.7539
  206MOL    C4341453   8.360   1.585   3.695 -0.2945 -0.1952 -0.4844
  206MOL   Cl4441454   0.094   1.627   3.643 -0.1300  0.1697  0.2973
  206MOL    C4541455   8.344   1.551   3.829  0.5160  0.6742 -1.1904
  206MOL    C4641456   8.214   1.503   3.893 -0.4354  0.8884 -0.1195
  206MOL    H4741457   8.166   1.538   3.610  0.3822 -0.6981  1.1696
  206MOL    H4841458   8.318   1.501   3.527 -0.0930  1.8149 -1.8242
  206MOL    H4941459   0.016   1.551   3.884 -0.9930 -1.3186  1.4468
  206MOL    H5041460   8.185   1.572   3.973 -1.4759 -1.1249  1.3143
  206MOL    H5141461   8.134   1.520   3.822 -1.5471  1.5169  1.2420
  206MOL    C5241462   8.217   1.358   3.949  0.4868 -0.1581  0.1702
  206MOL    C5341463   8.151   1.264   3.848 -0.0906  0.2126  0.0821
  206MOL   Cl5441464   7.999   1.199   3.904  0.4356  0.1962 -0.2119
  206MOL    C5541465   8.211   1.239   3.732  0.5346  0.1397 -0.0937
  206MOL    C5641466   8.153   1.139   3.621  0.2444 -0.7094  0.2504
  206MOL    H5741467   8.312   1.315   3.979  0.5380 -0.7070 -0.7366
  206MOL    H5841468   8.158   1.348   4.040  0.6134 -1.9757  0.0755
  206MOL    H5941469   8.297   1.295   3.698 -0.6190  1.1074 -1.5105
  206MOL    H6041470   8.212   1.049   3.604  0.6012 -0.8050  1.8432
  206MOL    H6141471   8.050   1.117   3.649 -0.7956  4.6021  1.2790
  206MOL    C6241472   8.149   1.200   3.478  0.9001 -0.4319 -0.3092
  206MOL    C6341473   8.069   1.124   3.376  0.0817  0.0834  0.3804
  206MOL   Cl6441474   7.912   1.197   3.354 -0.1975 -0.3529  0.0895
  206MOL    C6541475   8.116   1.019   3.299 -0.6778  0.1756  0.4199
  206MOL    C6641476   8.042   0.946   3.188 -0.2568 -1.0757  0.3913
  206MOL    H6741477   8.123   1.305   3.488  0.9080 -0.5664  1.2852
  206MOL    H6841478   8.254   1.204   3.448  0.3363  0.9273 -2.1351
  206MOL    H6941479   8.219   0.988   3.311 -1.0857 -1.4161 -0.1005
  206MOL    H7041480   8.099   0.961   3.096 -0.1127 -0.2558  0.6087
  206MOL    H7141481   7.939   0.981   3.182  0.3325  0.8386  1.0017
  206MOL    C7241482   8.045   0.794   3.217  0.2605  0.3107 -0.2950
  206MOL    C7341483   7.922   0.707   3.165 -0.1118 -0.5741 -0.1809
  206MOL   Cl7441484   7.974   0.566   3.087 -0.1664  0.0641  0.4444
  206MOL    C7541485   7.800   0.750   3.189 -0.6120  0.2424 -0.3723
  206MOL    C7641486   7.675   0.684   3.129 -0.4727  0.1319  0.3028
  206MOL    H7741487   8.051   0.779   3.324  1.2254  1.1173 -0.2330
  206MOL    H7841488   8.137   0.747   3.184  0.3677 -1.5456  2.5252
  206MOL    H7941489   7.787   0.845   3.240 -0.4325  0.4794 -0.7614
  206MOL    H8041490   7.680   0.580   3.164  1.4629  0.3336  0.6784
  206MOL    H8141491   7.673   0.692   3.021 -0.0113 -0.4212  0.2502
  206MOL    C8241492   7.543   0.738   3.184  0.5723 -0.1340 -0.4200
  206MOL    C8341493   7.519   0.890   3.167  0.0745  0.9282 -0.1358
  206MOL   Cl8441494   7.560   0.944   3.007  0.1758 -0.2238  0.2371
  206MOL    C8541495   7.471   0.975   3.257  0.3817 -0.1753 -0.2515
  206MOL    C8641496   7.444   1.121   3.236 -0.3106  0.0044 -0.1477
  206MOL    H8741497   7.531   0.714   3.290 -0.7514  1.3644 -0.2063
  206MOL    H8841498   7.457   0.684   3.145 -1.3475  1.1859  1.8486
  206MOL    H8941499   7.448   0.925   3.351 -0.0770 -0.8333 -0.7067
  206MOL    H9041500   7.450   1.155   3.133 -0.0639  1.6069  0.3713
  206MOL    H9141501   7.343   1.153   3.262 -0.7594  0.1315 -2.0280
  206MOL    C9241502   7.541   1.199   3.326 -0.0496 -0.0976  0.6332
  206MOL    C9341503   7.517   1.351   3.321  0.0773  0.1123 -0.7886
  206MOL   Cl9441504   7.406   1.411   3.443  0.0967 -0.1581  0.0621
  206MOL    C9541505   7.583   1.444   3.246 -0.4945  0.1996 -0.0986
  206MOL    C9641506   7.683   1.418   3.140 -0.3057 -0.2775 -0.1060
  206MOL    H9741507   7.640   1.165   3.298 -0.3578 -1.0496  0.7045
  206MOL    H9841508   7.526   1.163   3.428 -0.5731  0.4547  0.7581
  206MOL    H9941509   7.562   1.548   3.265 -1.4421 -0.0155  0.1005
  206MOL   H10041510   7.703   1.312   3.151  1.5972  0.2721  2.1516
  206MOL   H10141511   7.635   1.445   3.046 -0.8625  0.1274  0.2866
  206MOL   C10241512   7.820   1.490   3.179 -0.6356  0.5823 -0.0186
  206MOL   C10341513   7.927   1.477   3.069 -0.2592 -0.4126 -0.2672
  206MOL  Cl10441514   7.898   1.579   2.939 -0.3087  0.4369 -0.0960
  206MOL   C10541515   8.030   1.392   3.072 -0.5965  0.1967  0.4420
  206MOL   C10641516   8.147   1.372   2.972  0.5369  0.1243  0.0094
  206MOL   H10741517   7.805   1.595   3.202  0.3240  1.2117 -2.1268
  206MOL   H10841518   7.858   1.441   3.269  0.1355  0.7724 -0.2355
  206MOL   H10941519   8.043   1.326   3.157  1.5797  0.1846  0.1390
  206MOL   H11041520   8.153   1.466   2.918 -0.1991 -0.7940 -1.7431
  206MOL   H11141521   8.238   1.340   3.023 -0.0140 -0.1605  0.8255
  206MOL   C11241522   8.116   1.250   2.879  0.2903 -0.0464  0.0573
  206MOL   C11341523   7.988   1.270   2.786 -0.8557  1.0866  0.0509
  206MOL  Cl11441524   7.869   1.149   2.843  0.3520  0.4566  0.1149
  206MOL   C11541525   7.972   1.356   2.683  0.0730  0.3651 -0.7651
  206MOL   C11641526   8.062   1.459   2.621 -0.2422 -0.5454 -0.2296
  206MOL   H11741527   8.203   1.227   2.819 -0.9712  0.6783 -2.1212
  206MOL   H11841528   8.095   1.166   2.945 -0.2499  1.3782  1.7441
  206MOL   H11941529   7.875   1.351   2.635  0.4229 -2.0960 -1.2495
  206MOL   H12041530   8.158   1.459   2.673 -1.1462  2.1102  1.5484
  206MOL   H12141531   8.036   1.563   2.639  0.0895 -0.6422  0.8961
  206MOL   C12241532   8.081   1.428   2.473  0.1604 -0.2829 -1.0322
  206MOL   C12341533   8.183   1.516   2.405 -0.0559 -0.1219  0.0014
  206MOL  Cl12441534   8.255   1.643   2.502  0.2789  0.0574  0.3493
  206MOL   C12541535   8.215   1.507   2.276 -0.2817  0.6238  0.1176
  206MOL   C12641536   8.156   1.414   2.171 -0.2021  0.0296  0.5468
  206MOL   H12741537   8.116   1.326   2.458  2.6558  0.3123  0.5275
  206MOL   H12841538   7.986   1.449   2.423  0.2677  2.5668 -0.1305
  206MOL   H12941539   8.290   1.574   2.237 -0.5886 -0.7466 -3.0239
  206MOL   H13041540   8.233   1.340   2.150 -1.3124 -0.4269 -1.9948
  206MOL   H13141541   8.064   1.364   2.200 -0.5476  1.5083  2.1233
  206MOL   C13241542   8.126   1.469   2.032  0.7421  0.0348 -0.4331
  206MOL   C13341543   8.088   1.354   1.939 -0.8117  0.3045 -0.5292
  206MOL  Cl13441544   8.211   1.325   1.821 -0.2095 -0.2249  0.1974
  206MOL   C13541545   7.973   1.285   1.941  0.4716  0.6609 -0.2568
  206MOL   C13641546   7.849   1.293   2.024  0.0384 -0.0597 -0.3871
  206MOL   H13741547   8.057   1.553   2.024  0.8072 -0.0123 -1.6340
  206MOL   H13841548   8.219   1.509   1.989  1.2279  2.7688  2.8884
  206MOL   H13941549   7.958   1.204   1.871  0.3924  2.3450 -2.2314
  206MOL   H14041550   7.841   1.212   2.097  1.1054  1.3686  1.3826
  206MOL   H14141551   7.865   1.384   2.082 -0.3284  0.7783 -1.5888
  206MOL   C14241552   7.721   1.310   1.937 -0.1460 -0.0993 -0.4202
  206MOL   C14341553   7.652   1.182   1.902  0.9184 -0.1188  0.2529
  206MOL  Cl14441554   7.577   1.103   2.040 -0.1565 -0.0893  0.3597
  206MOL   C14541555   7.653   1.130   1.781 -0.0268 -0.1639 -0.4898
  206MOL   C14641556   7.598   0.991   1.739  0.3018 -0.2943  0.2940
  206MOL   H14741557   7.753   1.369   1.850 -1.0515  0.7580 -0.1788
  206MOL   H14841558   7.645   1.373   1.983  0.5886 -0.8789  1.8986
  206MOL   H14941559   7.700   1.183   1.700  0.0793  2.1817  1.0645
  206MOL   H15041560   7.540   0.942   1.817  1.0140  2.2193  2.4845
  206MOL   H15141561   7.528   1.014   1.659  0.5399 -0.9094 -0.0957
  206MOL   C15241562   7.712   0.901   1.690 -0.0169  0.0279 -0.2042
  206MOL   C15341563   7.664   0.756   1.647 -0.1107  0.2972 -0.3803
  206MOL  Cl15441564   7.648   0.744   1.474  0.0877  0.1888 -0.1086
  206MOL   C15541565   7.650   0.650   1.728  0.8595  0.4893  0.1602
  206MOL   C15641566   7.613   0.512   1.674  0.1561 -0.0029 -0.6425
  206MOL   H15741567   7.768   0.947   1.609  0.7052  1.8506  1.2805
  206MOL   H15841568   7.789   0.879   1.765 -1.4818 -3.5544  0.3709
  206MOL   H15941569   7.659   0.658   1.835 -2.0548  1.1107  0.4080
  206MOL   H16041570   7.568   0.522   1.574 -0.4462  0.4459 -0.3303
  206MOL   H16141571   7.528   0.475   1.732  0.6729  0.5313  0.4651
  206MOL   C16241572   7.729   0.412   1.673 -0.0700 -0.3086 -0.0707
  206MOL   C16341573   7.681   0.279   1.616  0.4686  0.4576 -0.4178
  206MOL  Cl16441574   7.606   0.182   1.743 -0.0963  0.4529 -0.0771
  206MOL   C16541575   7.707   0.229   1.494  0.4138  0.4636 -0.1278
  206MOL   C16641576   7.645   0.108   1.428 -0.1397 -0.2031  0.3860
  206MOL   H16741577   7.811   0.444   1.608 -0.0707  0.5061  0.3300
  206MOL   H16841578   7.781   0.395   1.767  0.1438  0.1669 -0.1049
  206MOL   H16941579   7.778   0.276   1.427 -1.2532 -0.3983 -2.5810
  206MOL   H17041580   7.564   0.067   1.489 -0.3168  0.3785  0.5448
  206MOL   H17141581   7.589   0.137   1.339 -1.4813 -0.6630  1.0667
  206MOL   C17241582   7.746   8.419   1.416 -0.6057  0.4230 -0.5563
  206MOL   C17341583   7.874   0.036   1.331  0.1904  0.0808 -0.8588
  206MOL  Cl17441584   7.841   0.118   1.192  0.0019  0.1355  0.1662
  206MOL   C17541585   7.999   0.005   1.367  0.0286  0.0899 -0.2440
  206MOL   C17641586   8.122   0.045   1.284 -0.4707  0.6324 -0.0685
  206MOL   H17741587   7.693   8.334   1.372 -0.7264  0.3394 -0.2481
  206MOL   H17841588   7.779   8.392   1.516 -0.6317 -1.0914 -0.9336
  206MOL   H17941589   8.012   8.367   1.457  0.2771 -0.3897 -0.5859
  206MOL   H18041590   8.132   0.153   1.298  4.6152  0.3721 -1.0321
  206MOL   H18141591   8.123   0.025   1.177 -0.9707  0.4477 -0.0406
  206MOL   C18241592   8.247   8.394   1.333  1.1179 -0.5213  0.7618
  206MOL   C18341593   8.371   8.418   1.245 -0.3475 -0.5780 -0.5579
  206MOL  Cl18441594   8.361   8.335   1.093  0.1392  0.1377  0.1235
  206MOL   C18541595   0.050   0.081   1.281 -0.1043 -0.3438 -0.1255
  206MOL   C18641596   0.184   0.093   1.209 -0.3590  0.5661  0.0766
  206MOL   H18741597   8.265   8.407   1.440  1.2568  2.7354  0.4005
  206MOL   H18841598   8.232   8.287   1.321 -2.3197 -0.2193  1.7822
  206MOL   H18941599   0.041   0.121   1.382  3.3406 -1.6023  0.7529
  206MOL   H19041600   0.233   8.417   1.209 -0.7622  0.3567 -0.3092
  206MOL   H19141601   0.166   0.112   1.103  0.1760 -1.4495 -0.3872
  206MOL   C19241602   0.285   0.203   1.255 -0.0255  0.2795  0.2161
  206MOL   C19341603   0.367   0.248   1.140  0.2263 -0.5090  0.5980
  206MOL  Cl19441604   0.330   0.416   1.098  0.2927  0.4005 -0.1972
  206MOL   C19541605   0.463   0.184   1.081  0.1040 -0.6308  0.0165
  206MOL   C19641606   0.522   0.054   1.121 -0.6667 -0.1728  0.0944
  206MOL   H19741607   0.355   0.183   1.337 -0.2802 -0.3022  0.2921
  206MOL   H19841608   0.220   0.285   1.288 -0.4188 -1.0874  3.0399
  206MOL   H19941609   0.511   0.232   0.997 -2.5608 -0.3308 -1.3823
  206MOL   H20041610   0.448   8.413   1.173  1.4813 -3.0843 -0.1801
  206MOL   H20141611   0.618   0.064   1.172  0.0218 -2.6914 -0.6443
  206MOL   H20241612   0.544   8.409   1.037  1.6994 -0.7984  1.1572
  207MOL     C141613   5.140   8.117   5.895 -0.4283 -0.3916 -0.7627
  207MOL     C241614   5.238   8.032   5.979 -0.3800 -0.8191  0.0883
  207MOL    Cl341615   5.290   7.888   5.908 -0.0744 -0.3571  0.2186
  207MOL     C441616   5.279   8.067   6.100 -0.2687 -0.9191 -0.5253
  207MOL     C541617   5.241   8.198   6.179  0.0813 -0.3355  0.4285
  207MOL     H641618   5.105   8.070   5.803  0.3629  2.3434 -2.5378
  207MOL     H741619   5.188   8.207   5.857  1.3359 -1.1686 -0.4193
  207MOL     H841620   5.346   7.997   6.147 -0.4117 -0.1257  0.9134
  207MOL     H941621   5.331   8.237   6.226  0.8241 -0.9360 -0.4813
  207MOL    H1041622   5.200   8.277   6.116 -2.1235 -0.3883  1.7480
  207MOL    H1141623   5.056   8.146   5.958 -0.8703 -2.6574 -0.2898
  207MOL    C1241624   5.152   8.162   6.304 -0.3016  0.1513 -0.2847
  207MOL    C1341625   5.088   8.279   6.379  0.1817  0.1829  0.5764
  207MOL   Cl1441626   5.193   8.333   6.505 -0.0297  0.2411  0.0959
  207MOL    C1541627   4.971   8.342   6.355 -0.0424 -0.3024  0.4750
  207MOL    C1641628   4.871   8.299   6.250  0.5150 -0.1187 -0.1906
  207MOL    H1741629   5.071   8.095   6.274  0.0225 -0.3505 -0.0448
  207MOL    H1841630   5.220   8.111   6.372 -0.2079  0.1830 -0.3530
  207MOL    H1941631   4.943   0.008   6.414 -1.2272 -0.1367 -0.3140
  207MOL    H2041632   4.858   8.383   6.182 -1.3793 -0.1088  0.1614
  207MOL    H2141633   4.906   8.225   6.179 -2.0735 -2.3410  0.7781
  207MOL    C2241634   4.735   8.261   6.304  0.3116  0.7523 -0.9151
  207MOL    C2341635   4.723   8.152   6.405 -0.3483  0.3194  0.3958
  207MOL   Cl2441636   4.605   8.188   6.525 -0.0868 -0.1087  0.0001
  207MOL    C2541637   4.804   8.044   6.413  0.2633 -0.3277 -0.0683
  207MOL    C2641638   4.795   7.939   6.519  0.2757 -0.0425 -0.1704
  207MOL    H2741639   4.695   8.355   6.341 -0.2716 -0.6560  2.2276
  207MOL    H2841640   4.669   8.230   6.223 -0.2117 -0.0766 -0.1812
  207MOL    H2941641   4.883   8.030   6.341 -0.6032 -0.7620 -0.9563
  207MOL    H3041642   4.692   7.903   6.527  0.5407 -1.1336 -1.5736
  207MOL    H3141643   4.832   7.846   6.475 -0.4385 -0.4755  0.1257
  207MOL    C3241644   4.880   7.964   6.645 -0.4039 -0.8507  0.3373
  207MOL    C3341645   4.946   7.838   6.685  0.2442 -0.2375  0.7392
  207MOL   Cl3441646   4.889   7.781   6.842 -0.1236  0.1271 -0.0941
  207MOL    C3541647   5.044   7.778   6.620 -0.2252  0.2799  0.2003
  207MOL    C3641648   5.115   7.652   6.671 -0.5087  0.0242  0.7113
  207MOL    H3741649   4.963   8.035   6.638 -1.4269  0.3718  0.2685
  207MOL    H3841650   4.821   7.998   6.730  0.3204  0.4460  0.3395
  207MOL    H3941651   5.077   7.812   6.522  0.0058  0.1915  0.2483
  207MOL    H4041652   5.222   7.666   6.657 -0.2422 -0.7919  1.8583
  207MOL    H4141653   5.099   7.649   6.778  0.0569  0.8622  0.8246
  207MOL    C4241654   5.074   7.526   6.589 -0.3798  0.4826  0.4095
  207MOL    C4341655   5.135   7.392   6.627 -0.0241  0.5448 -0.0445
  207MOL   Cl4441656   5.228   7.401   6.778 -0.5490 -0.0712  0.2964
  207MOL    C4541657   5.117   7.271   6.570 -0.1287  0.1434  0.5516
  207MOL    C4641658   5.029   7.244   6.446  0.2780  0.7884 -0.4452
  207MOL    H4741659   4.969   7.507   6.609 -0.4400 -0.8223 -1.0950
  207MOL    H4841660   5.081   7.550   6.483 -0.5793  3.6873  1.0768
  207MOL    H4941661   5.164   7.190   6.623  1.4812 -0.5948 -1.9166
  207MOL    H5041662   4.945   7.176   6.459  2.2608 -1.6261 -0.0955
  207MOL    H5141663   4.981   7.341   6.431 -0.4925  0.4283 -0.3617
  207MOL    C5241664   5.125   7.212   6.323 -0.3686 -0.1992  0.3763
  207MOL    C5341665   5.056   7.248   6.186 -0.2915 -0.0210  0.0937
  207MOL   Cl5441666   4.908   7.173   6.166  0.2333 -0.3175  0.0968
  207MOL    C5541667   5.110   7.333   6.094 -0.0204 -0.2044 -0.1847
  207MOL    C5641668   5.038   7.373   5.963 -0.0995  1.0408  0.3957
  207MOL    H5741669   5.216   7.271   6.333  0.0927 -1.2644  3.0455
  207MOL    H5841670   5.153   7.107   6.321  1.3797  0.2681 -0.3202
  207MOL    H5941671   5.210   7.372   6.109 -0.5021  1.0837 -0.3550
  207MOL    H6041672   4.977   7.291   5.925  1.2122 -0.1995  0.9321
  207MOL    H6141673   4.968   7.450   5.994 -0.9869  0.9918 -1.3985
  207MOL    C6241674   5.136   7.424   5.858 -0.2219  0.7016  0.1485
  207MOL    C6341675   5.049   7.462   5.743 -0.3011 -0.3664  0.0079
  207MOL   Cl6441676   5.011   7.628   5.766 -0.0173  0.0209  0.1136
  207MOL    C6541677   5.004   7.384   5.641  0.3849  0.1027 -0.2724
  207MOL    C6641678   4.921   7.427   5.520  0.0519  0.5954 -0.1933
  207MOL    H6741679   5.197   7.505   5.898  1.0020  1.6922 -3.5597
  207MOL    H6841680   5.197   7.342   5.820 -1.9765 -0.8729  0.5865
  207MOL    H6941681   5.028   7.278   5.646 -2.2549 -0.5828 -1.3860
  207MOL    H7041682   4.968   7.382   5.432 -0.8393  1.3209 -1.0495
  207MOL    H7141683   4.914   7.536   5.509  0.0681  0.4190 -2.1022
  207MOL    C7241684   4.780   7.370   5.527 -0.0725 -0.4178 -0.3942
  207MOL    C7341685   4.714   7.401   5.664 -0.3436  0.4876  1.0305
  207MOL   Cl7441686   4.594   7.527   5.648  0.0935 -0.2653 -0.0529
  207MOL    C7541687   4.734   7.336   5.777  0.0104  0.4509  0.3475
  207MOL    C7641688   4.662   7.361   5.904  0.1952 -0.4043 -0.1498
  207MOL    H7741689   4.784   7.263   5.509 -1.1980 -0.2763 -1.4974
  207MOL    H7841690   4.721   7.400   5.441 -2.6414 -1.6666  0.8817
  207MOL    H7941691   4.806   7.255   5.772  0.0674  0.5035  0.3267
  207MOL    H8041692   4.607   7.455   5.903  0.0965 -0.4301  1.3994
  207MOL    H8141693   4.746   7.381   5.971  1.4575  0.7518 -2.0120
  207MOL    C8241694   4.582   7.238   5.942 -0.1051 -0.0032  0.2298
  207MOL    C8341695   4.556   7.216   6.092  0.1628  0.2128  0.5921
  207MOL   Cl8441696   4.569   7.046   6.121  0.0118 -0.3251  0.0660
  207MOL    C8541697   4.534   7.312   6.178  0.2684  0.0416 -0.0108
  207MOL    C8641698   4.524   7.274   6.327 -0.2504 -0.0269  0.8008
  207MOL    H8741699   4.638   7.156   5.898 -0.6334 -0.0010 -0.4606
  207MOL    H8841700   4.483   7.232   5.896 -0.8430 -1.2869  1.9426
  207MOL    H8941701   4.530   7.417   6.153  1.8571 -0.0764 -0.8127
  207MOL    H9041702   4.423   7.304   6.355 -1.1973 -2.3335 -0.0456
  207MOL    H9141703   4.524   7.168   6.348  0.6593 -0.7260 -2.4502
  207MOL    C9241704   4.634   7.345   6.406 -0.2789 -1.0467  0.1058
  207MOL    C9341705   4.635   7.498   6.398 -0.1291 -0.4225  0.5036
  207MOL   Cl9441706   4.776   7.556   6.311  0.0825  0.0985  0.1759
  207MOL    C9541707   4.546   7.582   6.450  0.0310  0.0422  0.4121
  207MOL    C9641708   4.428   7.543   6.533 -0.2206 -0.0328 -0.1357
  207MOL    H9741709   4.733   7.311   6.377 -0.5919 -0.7464 -1.3634
  207MOL    H9841710   4.620   7.323   6.511  1.8609  0.3509  0.7092
  207MOL    H9941711   4.558   7.686   6.423  1.4950  0.1700  1.5058
  207MOL   H10041712   4.431   7.443   6.576  2.6427  0.8026  1.7484
  207MOL   H10141713   4.439   7.610   6.618  0.6342 -0.8354  0.3997
  207MOL   C10241714   4.293   7.567   6.477 -0.2556 -0.6413  0.2754
  207MOL   C10341715   4.180   7.554   6.580  0.1816  0.3171  0.2687
  207MOL  Cl10441716   4.099   7.700   6.597 -0.5719 -0.1713 -0.1987
  207MOL   C10541717   4.159   7.442   6.657 -0.1628  0.5030  0.4953
  207MOL   C10641718   4.046   7.422   6.756 -0.2427 -0.2890 -0.3050
  207MOL   H10741719   4.288   7.668   6.437 -0.4050 -0.4587  0.7455
  207MOL   H10841720   4.267   7.497   6.399 -0.3649 -2.4634  1.9061
  207MOL   H10941721   4.215   7.350   6.646 -0.1517  0.6735 -0.9212
  207MOL   H11041722   3.992   7.515   6.772  1.7631  1.1639 -1.8200
  207MOL   H11141723   3.977   7.347   6.716  0.8745 -0.6094 -1.6648
  207MOL   C11241724   4.091   7.355   6.889 -0.4633  0.6535  0.5188
  207MOL   C11341725   4.165   7.227   6.868  1.0710  0.8216  0.0814
  207MOL  Cl11441726   4.338   7.240   6.859  0.4384 -0.0309 -0.0698
  207MOL   C11541727   4.110   7.104   6.843  0.8518  0.4458 -0.5305
  207MOL   C11641728   3.964   7.062   6.852  0.5073 -0.1000 -0.3750
  207MOL   H11741729   4.135   7.432   6.952 -0.8667  0.9228  0.4771
  207MOL   H11841730   3.999   7.342   6.947 -0.9649  0.9520 -0.2074
  207MOL   H11941731   4.182   7.025   6.830  2.5553  1.8224  0.3723
  207MOL   H12041732   3.934   7.004   6.765  1.7624 -0.5552 -0.5135
  207MOL   H12141733   3.902   7.150   6.836  1.9330  1.1825  1.0017
  207MOL   C12241734   3.936   6.996   6.992 -0.5905 -0.0647 -0.0256
  207MOL   C12341735   3.785   6.967   7.007  0.2088 -0.1434  0.5834
  207MOL  Cl12441736   3.758   6.806   6.949  0.0368  0.2863 -0.0980
  207MOL   C12541737   3.691   7.051   7.055 -0.3968  0.4275  0.1890
  207MOL   C12641738   3.696   7.197   7.099 -0.2266 -0.8935 -0.3848
  207MOL   H12741739   3.988   6.902   7.011 -0.7484 -0.2595 -0.5423
  207MOL   H12841740   3.975   7.069   7.063 -0.9361  0.1899 -0.0958
  207MOL   H12941741   3.596   7.000   7.062 -0.5861  1.0161  2.0355
  207MOL   H13041742   3.750   7.263   7.031 -0.7901  1.6806  1.6062
  207MOL   H13141743   3.596   7.239   7.097  0.7474  1.4340 -1.9147
  207MOL   C13241744   3.749   7.202   7.246  0.2391 -0.6060 -0.8430
  207MOL   C13341745   3.692   7.322   7.326 -0.3197 -0.6155  0.2689
  207MOL  Cl13441746   3.541   7.282   7.397 -0.0123  0.0342 -0.3631
  207MOL   C13541747   3.752   7.443   7.332  1.1769 -0.5491 -0.4221
  207MOL   C13641748   3.886   7.496   7.278 -0.5632  0.1076 -0.6896
  207MOL   H13741749   3.716   7.110   7.295 -0.3091 -0.3482 -0.7338
  207MOL   H13841750   3.858   7.199   7.244  0.2441 -0.0945 -1.4301
  207MOL   H13941751   3.689   7.507   7.393 -1.2854 -2.3813 -0.9641
  207MOL   H14041752   3.947   7.537   7.359 -0.2640  0.0853 -0.9012
  207MOL   H14141753   3.946   7.414   7.238 -2.8756 -2.9915  1.8939
  207MOL   C14241754   3.864   7.608   7.187  0.2395 -0.6969  0.4085
  207MOL   C14341755   3.990   7.681   7.153  0.4234  0.7146  0.9054
  207MOL  Cl14441756   4.051   7.772   7.286  0.4124 -0.0277 -0.1168
  207MOL   C14541757   4.040   7.689   7.033  0.1256  0.0465 -0.0196
  207MOL   C14641758   4.167   7.772   7.004 -0.4182  0.0897  0.3795
  207MOL   H14741759   3.787   7.678   7.221  1.4560  1.1512 -0.5961
  207MOL   H14841760   3.810   7.568   7.101  1.3576 -1.4671  0.0639
  207MOL   H14941761   3.994   7.632   6.953 -0.5095 -1.0771  1.1356
  207MOL   H15041762   4.152   7.867   6.952  2.7277 -0.0551 -0.8828
  207MOL   H15141763   4.205   7.794   7.104 -0.7208  0.2277  0.4655
  207MOL   C15241764   4.275   7.703   6.927 -0.8048  0.4717  0.0676
  207MOL   C15341765   4.405   7.789   6.908 -0.8942  0.9092 -0.0690
  207MOL  Cl15441766   4.532   7.749   7.027  0.3130  0.1736 -0.1653
  207MOL   C15541767   4.423   7.888   6.821 -0.2156 -0.2039 -0.5912
  207MOL   C15641768   4.540   7.979   6.809 -0.0695  0.0482 -0.5857
  207MOL   H15741769   4.304   7.609   6.972 -0.4194  0.4436 -0.2384
  207MOL   H15841770   4.251   7.681   6.823  1.0898 -0.1486 -0.2499
  207MOL   H15941771   4.340   7.889   6.752 -0.3192 -1.4114 -0.4858
  207MOL   H16041772   4.576   7.986   6.707  1.3345  0.3201 -0.0829
  207MOL   H16141773   4.625   7.929   6.855 -0.5189 -2.1797 -2.1119
  207MOL   C16241774   4.516   8.118   6.872 -0.1512  0.5162  0.0459
  207MOL   C16341775   4.635   8.193   6.921  0.5265 -0.0581 -0.6605
  207MOL  Cl16441776   4.696   8.120   7.058  0.5818 -0.2693 -0.2421
  207MOL   C16541777   4.676   8.310   6.873  0.1839  0.2979 -0.6744
  207MOL   C16641778   4.798   8.390   6.914  0.5079 -0.3750 -0.6146
  207MOL   H16741779   4.469   8.187   6.802 -0.4169 -0.4286 -0.7202
  207MOL   H16841780   4.442   8.109   6.952 -0.8308  0.3871 -0.5833
  207MOL   H16941781   4.638   8.353   6.782  0.9681  1.1768 -0.5975
  207MOL   H17041782   4.776   0.074   6.936  1.2766 -0.3415  0.0192
  207MOL   H17141783   4.837   8.365   7.013 -1.1295  2.5199  0.8503
  207MOL   C17241784   4.919   8.383   6.812  0.8638 -0.4222  0.0179
  207MOL   C17341785   5.022   0.072   6.828  0.0812 -0.1242 -0.2315
  207MOL  Cl17441786   5.110   0.043   6.971  0.0879  0.1068 -0.0828
  207MOL   C17541787   5.050   0.171   6.742 -0.1277  0.0174  0.1752
  207MOL   C17641788   5.164   0.268   6.762 -0.2595 -0.0834  0.2267
  207MOL   H17741789   4.891   8.385   6.706 -1.3697 -2.4327  0.5330
  207MOL   H17841790   4.967   8.286   6.818 -0.5050 -1.0793  0.4930
  207MOL   H17941791   4.989   0.189   6.655 -0.6384  1.2862  0.7805
  207MOL   H18041792   5.183   0.276   6.869  0.9583  0.5830 -0.0370
  207MOL   H18141793   5.135   0.369   6.734  1.1552  0.1607 -0.4258
  207MOL   C18241794   5.293   0.229   6.690 -0.2360  0.7930  0.0344
  207MOL   C18341795   5.382   0.354   6.675 -0.5319  0.8211 -0.5196
  207MOL  Cl18441796   5.400   0.396   6.510  0.2200  0.2908  0.5725
  207MOL   C18541797   5.463   0.398   6.774 -0.3081  0.0976 -0.5328
  207MOL   C18641798   5.569   0.502   6.767  0.5504 -0.5384 -0.3530
  207MOL   H18741799   5.360   0.161   6.743  1.4032  0.9628 -1.7625
  207MOL   H18841800   5.262   0.183   6.596  0.5938  0.5051 -0.1071
  207MOL   H18941801   5.455   0.356   6.873 -0.3859  3.0156  0.7319
  207MOL   H19041802   5.667   0.462   6.793  1.3146  0.3178 -1.8396
  207MOL   H19141803   5.563   0.557   6.673  0.7320 -0.2136 -0.1752
  207MOL   C19241804   5.552   0.621   6.864 -0.3885 -0.3951 -0.9118
  207MOL   C19341805   5.653   0.733   6.838 -0.5122  0.0379  0.1860
  207MOL  Cl19441806   5.592   0.863   6.735  0.0075 -0.0037 -0.3743
  207MOL   C19541807   5.767   0.737   6.905 -0.2429 -0.2461 -0.3944
  207MOL   C19641808   5.830   0.632   6.993  0.0135 -0.0721 -0.0621
  207MOL   H19741809   5.550   0.595   6.970  0.5213 -0.5053 -0.9192
  207MOL   H19841810   5.451   0.661   6.853 -0.4521  0.0603  1.1179
  207MOL   H19941811   5.828   0.826   6.899  2.9756 -2.4594 -2.2642
  207MOL   H20041812   5.923   0.592   6.953 -1.6872 -2.0424 -2.1844
  207MOL   H20141813   5.763   0.549   7.011  0.5463  0.2611  3.7042
  207MOL   H20241814   5.847   0.671   7.093 -0.0368  0.2117 -0.1623
  208MOL     C141815   4.592   5.659   1.065  0.3502 -0.1276  0.5306
  208MOL     C241816   4.635   5.541   0.986 -0.1269  0.6367  0.2807
  208MOL    Cl341817   4.614   5.559   0.815 -0.0423 -0.4665  0.0799
  208MOL     C441818   4.695   5.428   1.027  0.1631 -0.6038  0.2348
  208MOL     C541819   4.718   5.399   1.170 -0.1535 -0.2965 -0.5317
  208MOL     H641820   4.572   5.736   0.992 -0.1885  1.2307  2.0741
  208MOL     H741821   4.677   5.702   1.119 -0.6466 -0.3253  2.3157
  208MOL     H841822   4.726   5.352   0.956  2.7362  0.2231  0.4188
  208MOL     H941823   4.705   5.483   1.238 -0.0280 -1.1337  0.5280
  208MOL    H1041824   4.642   5.328   1.204 -0.7991  0.8955  0.5480
  208MOL    H1141825   4.498   5.656   1.120 -0.5814  2.1251 -0.8808
  208MOL    C1241826   4.868   5.366   1.193  0.0601  0.1308 -0.2748
  208MOL    C1341827   4.913   5.376   1.338 -0.3525 -0.0891  0.2983
  208MOL   Cl1441828   4.982   5.527   1.381 -0.3870  0.2189  0.0102
  208MOL    C1541829   4.911   5.278   1.427 -0.4577  0.7187 -0.6537
  208MOL    C1641830   4.854   5.134   1.407  0.1412 -0.3373  0.3765
  208MOL    H1741831   4.904   5.275   1.145 -0.6214 -0.5849  0.5581
  208MOL    H1841832   4.932   5.438   1.143 -0.5785  0.4097 -0.6985
  208MOL    H1941833   4.945   5.291   1.529  1.7587 -0.6588 -1.1882
  208MOL    H2041834   4.760   5.131   1.462 -0.3457 -1.5519 -0.4863
  208MOL    H2141835   4.821   5.118   1.304  1.5981  0.8448 -0.2941
  208MOL    C2241836   4.939   5.025   1.474 -0.3793  0.2441  1.1672
  208MOL    C2341837   4.890   4.881   1.451  0.0624 -0.2244  0.6686
  208MOL   Cl2441838   4.989   4.775   1.370 -0.3188 -0.0505  0.3502
  208MOL    C2541839   4.782   4.828   1.512 -0.3635  0.1657 -0.4112
  208MOL    C2641840   4.736   4.680   1.507  0.0931 -0.5794  0.5433
  208MOL    H2741841   5.044   5.027   1.444 -0.4382 -2.2797  0.6694
  208MOL    H2841842   4.942   5.046   1.581  1.1262  1.2398  0.9590
  208MOL    H2941843   4.716   4.885   1.574 -0.6808  0.0816 -0.6730
  208MOL    H3041844   4.640   4.683   1.455  0.7980  0.6557 -0.7193
  208MOL    H3141845   4.802   4.619   1.445  1.4826  0.5533  0.8737
  208MOL    C3241846   4.721   4.612   1.644  0.1139 -0.2329 -0.0970
  208MOL    C3341847   4.660   4.472   1.632  0.2801  0.1525 -1.0657
  208MOL   Cl3441848   4.645   4.397   1.787 -0.0876  0.0178  0.4486
  208MOL    C3541849   4.628   4.403   1.521 -0.0243  0.3200 -0.3290
  208MOL    C3641850   4.562   4.262   1.531 -0.3859 -0.3039  0.0739
  208MOL    H3741851   4.819   4.599   1.692 -0.5625  1.4239  1.8114
  208MOL    H3841852   4.654   4.671   1.706 -0.7350 -1.3204  0.0454
  208MOL    H3941853   4.631   4.442   1.420  0.7856  0.9553 -0.0617
  208MOL    H4041854   4.638   4.186   1.510 -1.8275 -1.2736 -1.7771
  208MOL    H4141855   4.515   4.240   1.627 -1.1623  1.4142  0.0978
  208MOL    C4241856   4.449   4.257   1.423  0.5467  0.0854  0.0199
  208MOL    C4341857   4.366   4.134   1.437 -0.1604  0.4618 -0.1547
  208MOL   Cl4441858   4.222   4.157   1.526 -0.0083 -0.0596  0.0185
  208MOL    C4541859   4.390   4.013   1.381 -0.0023 -0.3801  0.3327
  208MOL    C4641860   4.504   3.978   1.295  0.3273 -0.1053  0.4979
  208MOL    H4741861   4.379   4.340   1.426  0.8729  0.3854 -0.5989
  208MOL    H4841862   4.483   4.251   1.320 -0.8023 -0.3894 -0.4097
  208MOL    H4941863   4.321   3.931   1.393 -0.1730 -0.2738  0.0621
  208MOL    H5041864   4.582   4.054   1.299  0.9342 -0.8177  2.3397
  208MOL    H5141865   4.552   3.883   1.319  1.1767  0.5368  1.3489
  208MOL    C5241866   4.446   3.972   1.154  0.3327  0.7685 -0.0166
  208MOL    C5341867   4.550   3.921   1.061 -0.6566  0.1080 -0.5891
  208MOL   Cl5441868   4.519   3.756   1.018 -0.1972  0.0765 -0.2102
  208MOL    C5541869   4.656   3.988   1.015 -0.3016 -0.0116  0.7178
  208MOL    C5641870   4.761   3.930   0.924 -0.1999 -0.6011 -0.4586
  208MOL    H5741871   4.367   3.896   1.151  0.2211  0.9165 -1.3894
  208MOL    H5841872   4.418   4.070   1.116  0.1586  0.1708 -1.4626
  208MOL    H5941873   4.667   4.091   1.046  3.3427 -0.6639  1.7906
  208MOL    H6041874   4.772   3.831   0.967 -0.1992  0.2936  1.7078
  208MOL    H6141875   4.726   3.931   0.821 -0.4981 -0.1765 -0.3536
  208MOL    C6241876   4.904   3.991   0.942  0.0841 -0.4612  0.3338
  208MOL    C6341877   4.997   3.943   0.839 -0.0182 -0.6588 -0.5333
  208MOL   Cl6441878   5.085   3.808   0.896 -0.1226 -0.0938 -0.2532
  208MOL    C6541879   4.992   3.974   0.710  0.2624 -0.0862 -0.4907
  208MOL    C6641880   5.090   3.932   0.599 -0.7573  0.9127 -0.3978
  208MOL    H6741881   4.896   4.099   0.926 -0.6072 -0.7331 -1.2030
  208MOL    H6841882   4.951   3.982   1.040 -0.6301 -1.3103  0.6023
  208MOL    H6941883   4.923   4.050   0.676 -0.7363 -0.7794 -0.0302
  208MOL    H7041884   5.177   3.885   0.643  1.9871  3.0645 -3.2817
  208MOL    H7141885   5.140   4.017   0.553  2.1519  0.0580  1.0930
  208MOL    C7241886   5.015   3.851   0.481  0.5186 -0.4474  0.6230
  208MOL    C7341887   4.975   3.715   0.517  0.0836  0.2475  0.1459
  208MOL   Cl7441888   5.091   3.590   0.469 -0.2512 -0.1395 -0.2845
  208MOL    C7541889   4.869   3.678   0.593 -0.4470 -0.1713  0.3004
  208MOL    C7641890   4.820   3.540   0.623 -0.3565 -0.1957 -0.4556
  208MOL    H7741891   5.083   3.860   0.396  0.9679 -1.6104  0.8489
  208MOL    H7841892   4.930   3.895   0.429  1.8382  0.0906 -1.1153
  208MOL    H7941893   4.808   3.758   0.632  1.2991  0.5041  1.7303
  208MOL    H8041894   4.883   3.471   0.567  1.7044  0.7031  0.6920
  208MOL    H8141895   4.718   3.539   0.585 -1.5810  0.2128  2.6217
  208MOL    C8241896   4.813   3.498   0.775 -0.4676  0.2505 -0.3777
  208MOL    C8341897   4.792   3.348   0.801  0.2552  0.5989  0.1100
  208MOL   Cl8441898   4.912   3.258   0.724  0.0433 -0.3808  0.2919
  208MOL    C8541899   4.696   3.297   0.872 -0.2783 -0.5541 -0.8351
  208MOL    C8641900   4.676   3.148   0.895  0.6919  0.3329 -0.3147
  208MOL    H8741901   4.739   3.557   0.829 -0.1436  0.9515 -0.6884
  208MOL    H8841902   4.905   3.521   0.829 -2.1682 -0.0073  2.7640
  208MOL    H8941903   4.622   3.362   0.916  0.2866  0.9203 -2.0247
  208MOL    H9041904   4.575   3.117   0.920  0.6619  2.0538  1.9071
  208MOL    H9141905   4.699   3.114   0.794 -0.2260  1.7383 -1.0261
  208MOL    C9241906   4.778   3.084   0.990 -0.6332 -0.3384 -0.1129
  208MOL    C9341907   4.784   2.931   0.968  0.2187  0.1972  0.4478
  208MOL   Cl9441908   4.880   2.888   0.838  0.1602  0.1316  0.0157
  208MOL    C9541909   4.705   2.841   1.024 -0.3845  0.7209 -0.0638
  208MOL    C9641910   4.609   2.859   1.137  0.1514  0.1541  0.0604
  208MOL    H9741911   4.764   3.103   1.097 -0.1710  0.0298 -0.1167
  208MOL    H9841912   4.882   3.111   0.970 -1.7782  2.1352 -3.0402
  208MOL    H9941913   4.717   2.744   0.976  1.0191  0.5297  0.6321
  208MOL   H10041914   4.636   2.780   1.207  0.4598  0.0330 -0.1943
  208MOL   H10141915   4.619   2.956   1.185 -1.8889 -0.0870  1.0553
  208MOL   C10241916   4.467   2.846   1.092  0.5999  0.4248 -0.5503
  208MOL   C10341917   4.372   2.878   1.203 -0.1165  0.3894  0.0993
  208MOL  Cl10441918   4.337   2.735   1.295  0.0332  0.0989  0.0936
  208MOL   C10541919   4.317   3.000   1.222 -0.2136  0.3207 -0.2491
  208MOL   C10641920   4.204   3.014   1.321 -0.1884 -0.9234 -0.7756
  208MOL   H10741921   4.449   2.914   1.009  0.1649 -0.1750 -0.9469
  208MOL   H10841922   4.453   2.745   1.053  0.3585  0.1282  0.2779
  208MOL   H10941923   4.360   3.083   1.167  0.5007 -0.9157 -1.5895
  208MOL   H11041924   4.126   3.070   1.268  2.1162  1.4480 -1.7813
  208MOL   H11141925   4.160   2.921   1.357 -0.4844 -0.7140 -0.5964
  208MOL   C11241926   4.243   3.105   1.440  0.3184 -0.1557 -0.2622
  208MOL   C11341927   4.346   3.040   1.536 -0.6119  0.3977  0.2657
  208MOL  Cl11441928   4.500   3.125   1.528 -0.0817  0.4159  0.0620
  208MOL   C11541929   4.320   2.937   1.624 -0.0098 -0.8156  0.6949
  208MOL   C11641930   4.183   2.876   1.645  0.0077 -0.6871  0.4731
  208MOL   H11741931   4.283   3.195   1.394 -0.7918 -0.1221 -1.2097
  208MOL   H11841932   4.158   3.137   1.501 -0.2301  1.1908 -1.6894
  208MOL   H11941933   4.393   2.886   1.685 -0.7687 -0.2074  2.1243
  208MOL   H12041934   4.184   2.776   1.599 -2.9197 -1.0384  1.0679
  208MOL   H12141935   4.110   2.934   1.588 -0.5861 -2.4752 -0.6413
  208MOL   C12241936   4.137   2.855   1.787  0.0123 -0.2543  0.4153
  208MOL   C12341937   3.996   2.810   1.804 -0.1526  0.1698 -0.3451
  208MOL  Cl12441938   3.986   2.643   1.830  0.0456  0.0190 -0.0203
  208MOL   C12541939   3.891   2.888   1.797 -0.0923  0.3831  0.4137
  208MOL   C12641940   3.892   3.040   1.775 -0.1897  0.1438  0.2771
  208MOL   H12741941   4.208   2.787   1.835  1.0051  0.0755 -0.5814
  208MOL   H12841942   4.147   2.949   1.841 -1.9811  0.2061  0.0146
  208MOL   H12941943   3.793   2.844   1.810 -0.8385  1.2727 -1.9332
  208MOL   H13041944   3.992   3.071   1.746  0.9161 -1.0696  2.6995
  208MOL   H13141945   3.819   3.067   1.698 -0.7858 -1.0771  0.3982
  208MOL   C13241946   3.855   3.113   1.907  0.0973  0.0520  0.2888
  208MOL   C13341947   3.856   3.263   1.891  0.6981  0.1028 -1.2523
  208MOL  Cl13441948   3.697   3.326   1.864 -0.0270 -0.1801 -0.0889
  208MOL   C13541949   3.961   3.340   1.898  0.7705  0.5692 -0.4556
  208MOL   C13641950   4.103   3.297   1.919 -0.5521 -0.7130 -0.9043
  208MOL   H13741951   3.755   3.083   1.937  0.1345  0.7884  1.1472
  208MOL   H13841952   3.923   3.085   1.987  0.4136 -1.6279 -0.5399
  208MOL   H13941953   3.944   3.447   1.890 -0.6052  0.3209 -0.9117
  208MOL   H14041954   4.141   3.356   2.002  0.3084 -0.1284 -1.6929
  208MOL   H14141955   4.096   3.193   1.950  1.3631 -0.9384 -1.1263
  208MOL   C14241956   4.183   3.323   1.789 -0.2334 -0.7505 -0.0619
  208MOL   C14341957   4.328   3.295   1.800  0.3055  0.3939 -1.0005
  208MOL  Cl14441958   4.359   3.148   1.883 -0.0078 -0.0956  0.4435
  208MOL   C14541959   4.423   3.378   1.767 -0.8245 -0.0233  0.1240
  208MOL   C14641960   4.570   3.365   1.796  0.8226  0.5511  0.2288
  208MOL   H14741961   4.163   3.423   1.751  0.6854 -1.0091 -1.2495
  208MOL   H14841962   4.147   3.246   1.722  0.3042  1.3236 -2.8070
  208MOL   H14941963   4.405   3.467   1.709  0.2240 -0.2098 -0.5027
  208MOL   H15041964   4.607   3.425   1.879 -1.1600  0.5226  1.1706
  208MOL   H15141965   4.598   3.261   1.813  1.1101  0.5661 -0.1564
  208MOL   C15241966   4.658   3.414   1.673  0.4935 -0.1359  0.0788
  208MOL   C15341967   4.803   3.440   1.716 -0.3149  0.5239 -0.5127
  208MOL  Cl15441968   4.913   3.345   1.625 -0.4430 -0.0153  0.2236
  208MOL   C15541969   4.854   3.532   1.802 -0.1309  0.4924 -1.1709
  208MOL   C15641970   5.005   3.557   1.829  0.2933 -0.0213  0.1428
  208MOL   H15741971   4.650   3.332   1.601  1.9894  0.5646 -0.9129
  208MOL   H15841972   4.615   3.502   1.626  0.1791  1.1008  2.5615
  208MOL   H15941973   4.783   3.588   1.862  3.3193  0.8652  2.7921
  208MOL   H16041974   5.068   3.483   1.780  0.5358  1.2962 -1.5460
  208MOL   H16141975   5.020   3.560   1.937  0.8215 -0.5668  0.0867
  208MOL   C16241976   5.036   3.697   1.769  0.7266 -0.1437 -0.1835
  208MOL   C16341977   5.172   3.757   1.814 -0.1045  0.0815 -0.4358
  208MOL  Cl16441978   5.174   3.785   1.985 -0.2700 -0.1496  0.3797
  208MOL   C16541979   5.283   3.768   1.744  0.0485 -0.1081 -0.6035
  208MOL   C16641980   5.422   3.796   1.797  0.0748  0.1327  1.0466
  208MOL   H16741981   5.014   3.694   1.662  1.1435  2.9142 -0.3855
  208MOL   H16841982   4.967   3.764   1.820  1.2313 -0.2431  0.6398
  208MOL   H16941983   5.276   3.742   1.639 -1.7302 -0.4514 -0.4046
  208MOL   H17041984   5.420   3.883   1.863 -0.0009 -2.0239  3.9665
  208MOL   H17141985   5.442   3.716   1.868 -1.2941 -0.0800  1.1966
  208MOL   C17241986   5.527   3.821   1.686 -0.1694 -0.0060 -0.2195
  208MOL   C17341987   5.663   3.859   1.745 -0.5900 -0.3394  0.2450
  208MOL  Cl17441988   5.748   3.963   1.637  0.2198 -0.3625 -0.4037
  208MOL   C17541989   5.716   3.827   1.863  0.0796  1.1362 -1.3008
  208MOL   C17641990   5.859   3.845   1.910  0.4589  0.7741 -0.4599
  208MOL   H17741991   5.488   3.908   1.633 -0.4942  0.7486  1.2350
  208MOL   H17841992   5.529   3.745   1.607  0.3815  1.3112 -1.4906
  208MOL   H17941993   5.650   3.773   1.929  2.0180 -1.9398 -1.7805
  208MOL   H18041994   5.856   3.886   2.011  0.0771 -1.5441  0.5140
  208MOL   H18141995   5.916   3.916   1.850  0.7563  0.2981 -0.7436
  208MOL   C18241996   5.944   3.717   1.906 -0.1327  0.1056  0.2679
  208MOL   C18341997   6.073   3.723   1.984 -0.0572  0.1288 -0.0833
  208MOL  Cl18441998   6.054   3.704   2.155  0.2524 -0.2773 -0.1703
  208MOL   C18541999   6.193   3.731   1.923 -0.8188  0.2771  0.4684
  208MOL   C18642000   6.322   3.728   1.997  0.1465  0.3692 -0.0274
  208MOL   H18742001   5.882   3.636   1.942  1.6610 -0.1923  2.8076
  208MOL   H18842002   5.965   3.692   1.802 -1.9060 -1.0084  0.1637
  208MOL   H18942003   6.197   3.728   1.815 -0.4014  0.1942  0.4827
  208MOL   H19042004   6.397   3.779   1.937  0.8397 -1.8409 -1.0799
  208MOL   H19142005   6.307   3.783   2.090  1.0163 -0.2392  0.4881
  208MOL   C19242006   6.373   3.585   2.028 -0.4541 -0.8113  0.0055
  208MOL   C19342007   6.397   3.502   1.906  0.7470 -0.2226  0.5020
  208MOL  Cl19442008   6.556   3.509   1.834 -0.1659  0.0408  0.3157
  208MOL   C19542009   6.304   3.421   1.853  0.0907 -0.1519 -1.1002
  208MOL   C19642010   6.159   3.406   1.893 -0.1857 -1.2388  0.3444
  208MOL   H19742011   6.303   3.526   2.087  0.8355 -1.7638  0.5854
  208MOL   H19842012   6.461   3.586   2.091 -1.0369 -1.2153  0.8313
  208MOL   H19942013   6.340   3.357   1.773  1.7719 -0.0986 -0.3893
  208MOL   H20042014   6.129   3.476   1.970  0.2947  0.3530 -0.8963
  208MOL   H20142015   6.136   3.304   1.923  0.2974 -1.1881  0.8909
  208MOL   H20242016   6.100   3.419   1.802  2.2976  0.9184 -1.0463
  209MOL     C142017   7.742   5.607   1.391  1.1984  0.1039  0.6269
  209MOL     C242018   7.625   5.568   1.473 -0.2481  0.2262  0.3125
  209MOL    Cl342019   7.692   5.503   1.618  0.4607 -0.2626 -0.2460
  209MOL     C442020   7.494   5.579   1.440  0.4644  0.2980 -0.0527
  209MOL     C542021   7.421   5.612   1.309 -0.5756  0.0491 -1.0988
  209MOL     H642022   7.819   5.660   1.448  1.4965 -0.8370  1.1042
  209MOL     H742023   7.724   5.694   1.328  1.3760 -1.0611 -1.0638
  209MOL     H842024   7.425   5.557   1.520  1.8780 -1.6207  0.6741
  209MOL     H942025   7.450   5.710   1.272  0.3972 -0.2812 -1.2294
  209MOL    H1042026   7.452   5.541   1.232 -0.2849 -0.2419 -0.7173
  209MOL    H1142027   7.774   5.523   1.329  0.1565 -0.7625  1.2552
  209MOL    C1242028   7.268   5.611   1.333 -0.5617 -0.6481 -0.2356
  209MOL    C1342029   7.200   5.677   1.214  0.5174 -0.0729 -0.2988
  209MOL   Cl1442030   7.161   5.839   1.256  0.5275 -0.2527 -0.1519
  209MOL    C1542031   7.171   5.627   1.093  0.0218 -0.6809  1.2634
  209MOL    C1642032   7.217   5.498   1.042 -0.2055  0.3266 -0.1042
  209MOL    H1742033   7.215   5.518   1.356 -0.2452 -0.7315  0.1630
  209MOL    H1842034   7.255   5.672   1.422  0.1448  1.5464 -1.5979
  209MOL    H1942035   7.114   5.684   1.022  3.1609  1.3086  0.2872
  209MOL    H2042036   7.303   5.476   1.105  0.8235  2.1124 -0.8420
  209MOL    H2142037   7.136   5.426   1.058  0.3161 -1.4442 -4.6584
  209MOL    C2242038   7.246   5.503   0.898 -0.2344  0.3706  0.2041
  209MOL    C2342039   7.302   5.370   0.842 -0.2553  0.9647  0.4852
  209MOL   Cl2442040   7.174   5.262   0.785 -0.0763  0.0042  0.4516
  209MOL    C2542041   7.430   5.338   0.830 -0.0408  0.4004  0.6834
  209MOL    C2642042   7.479   5.209   0.771  0.4270  0.4446 -0.2566
  209MOL    H2742043   7.154   5.542   0.852 -0.0258  2.2015  1.2610
  209MOL    H2842044   7.322   5.579   0.880 -0.7263  1.0088  0.7793
  209MOL    H2942045   7.501   5.410   0.870 -2.1361  3.4123 -0.8107
  209MOL    H3042046   7.528   5.153   0.851 -0.5976  1.1937  0.9111
  209MOL    H3142047   7.395   5.157   0.725 -1.1564 -0.0726  3.0940
  209MOL    C3242048   7.584   5.239   0.663  0.2793  0.4209  0.6672
  209MOL    C3342049   7.647   5.112   0.615 -0.4036  0.1193 -0.2419
  209MOL   Cl3442050   7.763   5.044   0.718  0.2381  0.0070  0.1843
  209MOL    C3542051   7.609   5.042   0.502 -0.6029  0.1688 -0.2739
  209MOL    C3642052   7.652   4.902   0.472  0.0425 -0.7204  0.7589
  209MOL    H3742053   7.543   5.305   0.587 -1.0192 -2.2950 -1.0481
  209MOL    H3842054   7.665   5.300   0.704  2.2913 -1.2838 -0.6963
  209MOL    H3942055   7.547   5.082   0.423 -1.4941 -3.1909 -1.3638
  209MOL    H4042056   7.694   4.852   0.560  2.8775  2.4737  1.3108
  209MOL    H4142057   7.560   4.860   0.431 -1.4586  0.5693  2.7252
  209MOL    C4242058   7.742   4.906   0.344 -0.0052 -0.7475 -0.0071
  209MOL    C4342059   7.748   4.769   0.279  0.6429 -0.7023  0.0928
  209MOL   Cl4442060   7.753   4.642   0.400  0.1055  0.1340 -0.0623
  209MOL    C4542061   7.718   4.748   0.150 -0.4627 -0.2200 -0.5723
  209MOL    C4642062   7.702   4.844   0.034  0.0686 -0.3148  0.4489
  209MOL    H4742063   7.709   4.988   0.280  2.0354  0.1739  0.0894
  209MOL    H4842064   7.845   4.926   0.370  0.1816 -0.6605 -0.7919
  209MOL    H4942065   7.704   4.646   0.117  1.2717 -0.6167 -0.1078
  209MOL    H5042066   7.683   4.944   0.072  0.9800  0.2294 -0.4695
  209MOL    H5142067   7.790   4.863   8.392  0.0058 -1.4324 -0.0010
  209MOL    C5242068   7.586   4.805   8.372  0.4574  0.1351 -0.0225
  209MOL    C5342069   7.568   4.883   8.248  0.1538 -0.3388 -0.3011
  209MOL   Cl5442070   7.628   4.796   8.115  0.0341 -0.1481  0.0368
  209MOL    C5542071   7.518   5.008   8.247 -0.3206 -0.3861  0.3486
  209MOL    C5642072   7.510   5.094   8.117 -0.6534  0.1672  0.4711
  209MOL    H5742073   7.590   4.700   8.341 -1.0772  0.3424 -0.9933
  209MOL    H5842074   7.488   4.804   8.420  1.0405 -0.5415  1.1792
  209MOL    H5942075   7.486   5.046   8.343 -2.6755 -2.6000  0.5009
  209MOL    H6042076   7.543   5.027   8.037  1.1653  1.5217  0.0450
  209MOL    H6142077   7.404   5.110   8.099 -0.3159  0.6241 -1.2436
  209MOL    C6242078   7.600   5.221   8.120  0.5911 -0.4802 -0.0153
  209MOL    C6342079   7.580   5.302   7.995  0.6049  0.3757 -0.3205
  209MOL   Cl6442080   7.418   5.352   7.972 -0.2151  0.0106 -0.1278
  209MOL    C6542081   7.677   5.326   7.904  0.4756 -0.0842 -0.0104
  209MOL    C6642082   7.674   5.394   7.774 -0.7295  0.0757  0.1332
  209MOL    H6742083   7.573   5.284   8.205  2.3543  1.7871 -1.0917
  209MOL    H6842084   7.700   5.183   8.142  0.8746  0.8623  1.1292
  209MOL    H6942085   7.776   5.288   7.920  0.2662 -0.7829 -0.3679
  209MOL    H7042086   7.733   5.484   7.791  1.9372 -1.0003 -2.8601
  209MOL    H7142087   7.573   5.415   7.739 -1.9241 -2.6497  1.8185
  209MOL    C7242088   7.743   5.311   7.665  0.8229 -0.9063  0.3421
  209MOL    C7342089   7.670   5.186   7.606  0.4064  0.6407 -0.2138
  209MOL   Cl7442090   7.741   5.138   7.455 -0.2102  0.0934  0.4491
  209MOL    C7542091   7.579   5.109   7.671 -0.1045  0.2517 -0.4360
  209MOL    C7642092   7.525   4.978   7.626  0.2086  0.3187  0.0275
  209MOL    H7742093   7.836   5.271   7.706 -0.4860 -0.6070  3.8249
  209MOL    H7842094   7.762   5.385   7.587  0.3573 -1.1438  0.0015
  209MOL    H7942095   7.544   5.135   7.770  1.2540 -0.9477  0.4058
  209MOL    H8042096   7.529   4.970   7.518  0.0438 -0.3641  0.0692
  209MOL    H8142097   7.417   4.966   7.639  0.3284 -1.1766 -0.3100
  209MOL    C8242098   7.596   4.858   7.692 -0.3697 -0.1123  0.1145
  209MOL    C8342099   7.725   4.821   7.622 -0.8222 -0.6785  0.1847
  209MOL   Cl8442100   7.711   4.678   7.515  0.0660  0.0025 -0.4707
  209MOL    C8542101   7.845   4.875   7.660  0.4121  0.0446 -0.4842
  209MOL    C8642102   7.981   4.833   7.612  0.2323 -0.7856  0.3350
  209MOL    H8742103   7.531   4.771   7.705  0.9612 -1.4082 -1.5915
  209MOL    H8842104   7.622   4.887   7.794 -0.2580 -1.2140  0.4118
  209MOL    H8942105   7.848   4.957   7.730 -0.3601  0.5206 -0.9989
  209MOL    H9042106   8.005   4.757   7.686 -1.3740 -0.7364  0.9419
  209MOL    H9142107   7.982   4.783   7.515 -2.3606 -1.1339  0.4494
  209MOL    C9242108   8.085   4.942   7.611  0.1298  0.4845 -0.0995
  209MOL    C9342109   8.214   4.904   7.544 -0.2508  0.1125  0.3557
  209MOL   Cl9442110   8.201   4.910   7.374 -0.3955 -0.1249  0.0426
  209MOL    C9542111   8.325   4.865   7.611  0.1552 -0.1723  1.0488
  209MOL    C9642112   8.339   4.847   7.761  0.7849  0.2536  0.5621
  209MOL    H9742113   8.097   4.988   7.709 -0.3297  3.2049 -1.2722
  209MOL    H9842114   8.060   5.028   7.548 -0.0718  0.9912  0.6712
  209MOL    H9942115   8.410   4.841   7.549 -1.2887  1.2660 -1.5871
  209MOL   H10042116   0.000   4.918   7.774  0.1086  1.4936 -1.6578
  209MOL   H10142117   8.252   4.877   7.819  0.7868 -1.9717  1.7708
  209MOL   C10242118   8.377   4.704   7.797 -0.1333  0.6799 -0.2525
  209MOL   C10342119   8.339   4.654   7.933  0.2508 -0.2323  0.4947
  209MOL  Cl10442120   8.189   4.574   7.926 -0.3892 -0.5033 -0.1551
  209MOL   C10542121   8.402   4.657   8.048  0.1135 -0.5903 -0.3935
  209MOL   C10642122   8.354   4.599   8.182 -0.0637 -0.3253  0.4565
  209MOL   H10742123   8.339   4.638   7.719 -1.6378 -1.7734  2.4592
  209MOL   H10842124   0.065   4.697   7.788 -0.1931  0.8222 -1.1044
  209MOL   H10942125   0.072   4.715   8.054  0.3475 -0.7242 -2.3328
  209MOL   H11042126   8.302   4.665   8.251 -0.8843 -0.3203 -0.1565
  209MOL   H11142127   8.297   4.507   8.169  0.6273 -0.6652 -0.1610
  209MOL   C11242128   0.057   4.544   8.258 -0.3697  0.2305 -0.5462
  209MOL   C11342129   0.033   4.501   8.396 -0.7461 -0.1739 -0.4420
  209MOL  Cl11442130   8.418   4.335   8.415 -0.0914 -0.1561  0.3218
  209MOL   C11542131   0.058   4.575   0.085  0.1872  0.2443  0.4405
  209MOL   C11642132   0.095   4.720   0.088  0.2910 -0.3057 -0.3526
  209MOL   H11742133   0.095   4.451   8.216 -1.1195 -0.6544  0.7282
  209MOL   H11842134   0.138   4.616   8.248 -1.1331  0.8764 -2.3680
  209MOL   H11942135   0.051   4.528   0.182 -1.1141  0.2544  0.3497
  209MOL   H12042136   0.011   4.765   0.141  0.5233 -0.1439 -0.1190
  209MOL   H12142137   0.082   4.766   8.411  3.0922  0.9196 -0.2003
  209MOL   C12242138   0.230   4.749   0.147 -0.7576 -0.2190  0.0915
  209MOL   C12342139   0.241   4.736   0.298 -0.6201  0.2862  0.4722
  209MOL  Cl12442140   0.202   4.885   0.376  0.3012 -0.0490  0.2221
  209MOL   C12542141   0.280   4.625   0.357  0.1999 -0.2034  0.7916
  209MOL   C12642142   0.308   4.491   0.303 -0.1031  0.2677 -0.3739
  209MOL   H12742143   0.298   4.683   0.093  0.0650  1.2606 -0.7070
  209MOL   H12842144   0.273   4.846   0.121 -0.2314 -0.8438 -1.4408
  209MOL   H12942145   0.284   4.640   0.464 -0.9755 -0.6391  0.9000
  209MOL   H13042146   0.230   4.424   0.339  2.6682 -3.3316 -0.8500
  209MOL   H13142147   0.287   4.477   0.197 -0.3878  0.4080 -0.3374
  209MOL   C13242148   0.453   4.448   0.331 -0.7942 -0.0656 -0.4238
  209MOL   C13342149   0.483   4.312   0.275  0.2913  0.5875 -1.2951
  209MOL  Cl13442150   0.470   4.199   0.399  0.1270 -0.3935  0.4399
  209MOL   C13542151   0.525   4.285   0.152 -0.7140 -0.4058 -0.9228
  209MOL   C13642152   0.543   4.377   0.027  1.3921  0.1671  0.0355
  209MOL   H13742153   0.524   4.521   0.294 -0.0621 -0.7258 -0.3194
  209MOL   H13842154   0.470   4.438   0.438 -1.3065  3.0816  0.0238
  209MOL   H13942155   0.545   4.180   0.133  2.7936  0.4148 -2.0898
  209MOL   H14042156   0.531   4.483   0.051  1.4629  0.1309  0.2294
  209MOL   H14142157   0.641   4.389   8.400  0.0530  3.0251 -2.1536
  209MOL   C14242158   0.446   4.326   8.332 -0.3191  0.1672 -0.4157
  209MOL   C14342159   0.467   4.399   8.197  0.2591 -0.3581  0.1222
  209MOL  Cl14442160   0.393   4.550   8.192  0.0179  0.1143 -0.2623
  209MOL   C14542161   0.516   4.346   8.083 -0.3554  0.5579  0.2997
  209MOL   C14642162   0.527   4.414   7.947  0.0110  0.2534  0.5824
  209MOL   H14742163   0.343   4.307   8.361  0.0095  0.7002  1.1354
  209MOL   H14842164   0.468   4.222   8.306  0.2332  0.0121  0.6575
  209MOL   H14942165   0.542   4.242   8.097 -0.4296  0.5741  0.5664
  209MOL   H15042166   0.442   4.375   7.892  0.4272 -0.0504  0.1516
  209MOL   H15142167   0.518   4.523   7.944 -0.5188  0.1697 -1.5121
  209MOL   C15242168   0.651   4.365   7.872  0.0254 -0.0283  1.1101
  209MOL   C15342169   0.638   4.411   7.725  0.0989  0.3106  0.0534
  209MOL  Cl15442170   0.553   4.296   7.629  0.0136  0.3595  0.7953
  209MOL   C15542171   0.695   4.524   7.674  0.5576 -0.0747 -0.3210
  209MOL   C15642172   0.693   4.580   7.529  0.5277  0.2046 -0.5035
  209MOL   H15742173   0.743   4.412   7.909  1.3698 -0.3942 -1.6773
  209MOL   H15842174   0.662   4.257   7.879  2.1484  0.0495 -0.5599
  209MOL   H15942175   0.742   4.584   7.751  0.4911  0.1664 -0.4680
  209MOL   H16042176   0.712   4.491   7.468 -0.8995 -0.1335 -0.4540
  209MOL   H16142177   0.777   4.646   7.507 -1.4497  3.7635  2.1066
  209MOL   C16242178   0.560   4.648   7.495 -0.1195  0.3952 -0.0903
  209MOL   C16342179   0.516   4.754   7.592  0.5044  0.0070 -0.7661
  209MOL  Cl16442180   0.600   4.900   7.566 -0.4393  0.6021 -0.0417
  209MOL   C16542181   0.407   4.741   7.672 -0.0829  0.0085  0.3294
  209MOL   C16642182   0.333   4.851   7.754  0.0196  0.1878  0.3278
  209MOL   H16742183   0.566   4.700   7.399 -2.7689 -1.5198 -1.3378
  209MOL   H16842184   0.484   4.571   7.497 -1.1681  1.4100 -0.5412
  209MOL   H16942185   0.363   4.643   7.683  1.3574 -0.6235  0.4995
  209MOL   H17042186   0.395   4.939   7.739 -0.6649  0.1925 -2.6368
  209MOL   H17142187   0.239   4.872   7.703  0.3913 -1.3020 -1.0238
  209MOL   C17242188   0.306   4.810   7.901 -0.1216 -0.4819 -0.0887
  209MOL   C17342189   0.256   4.924   7.991  0.2167 -0.1634  0.6197
  209MOL  Cl17442190   0.178   5.051   7.906 -0.5900  0.1177 -0.0822
  209MOL   C17542191   0.271   4.924   8.125 -0.3982 -0.2777  0.0010
  209MOL   C17642192   0.233   5.034   8.225  0.2652 -0.1180  0.8332
  209MOL   H17742193   0.400   4.775   7.943 -0.4199 -2.3033 -0.9019
  209MOL   H17842194   0.245   4.720   7.906  2.7440 -2.4707  0.3242
  209MOL   H17942195   0.319   4.842   8.176  0.1038  0.2454  0.3762
  209MOL   H18042196   0.156   4.987   8.286  1.8942 -1.3238  1.9828
  209MOL   H18142197   0.190   5.123   8.178  0.6809 -1.3504 -1.9457
  209MOL   C18242198   0.356   5.090   8.303  0.2253 -0.3218 -0.3400
  209MOL   C18342199   0.307   5.195   8.399  0.0897 -0.9926  0.3618
  209MOL  Cl18442200   0.209   5.129   0.104  0.3170 -0.4574  0.1278
  209MOL   C18542201   0.334   5.325   8.390  0.4663 -0.3767  0.2288
  209MOL   C18642202   0.279   5.426   0.060 -0.4761 -0.3507 -0.5484
  209MOL   H18742203   0.408   5.010   8.356 -0.3664 -1.0036 -0.7717
  209MOL   H18842204   0.421   5.145   8.235  0.9377 -0.8588 -0.1019
  209MOL   H18942205   0.401   5.350   8.309  1.7607 -0.1369  1.3680
  209MOL   H19042206   0.268   5.523   0.010  3.1191  0.3575 -0.1064
  209MOL   H19142207   0.178   5.404   0.094  0.3833 -1.9102  1.0826
  209MOL   C19242208   0.381   5.458   0.172  0.4414 -0.2836 -0.2727
  209MOL   C19342209   0.327   5.574   0.253 -0.0360  0.2666 -0.0805
  209MOL  Cl19442210   0.240   5.524   0.389 -0.0947 -0.0066 -0.1627
  209MOL   C19542211   0.350   5.706   0.235 -0.0752  0.0038 -0.0556
  209MOL   C19642212   0.422   5.763   0.116 -0.1409  0.4857 -0.1690
  209MOL   H19742213   0.475   5.492   0.129 -0.5471  1.0505 -1.4484
  209MOL   H19842214   0.404   5.371   0.233  1.9022 -0.5463 -1.1856
  209MOL   H19942215   0.318   5.775   0.312  0.4087  0.8582 -0.6129
  209MOL   H20042216   0.516   5.807   0.152  0.1313 -0.3325  0.1428
  209MOL   H20142217   0.369   5.851   0.080 -0.5368  0.8399  1.2513
  209MOL   H20242218   0.425   5.690   0.035  0.2127  0.5485 -0.2172
  210MOL     C142219   5.246   3.511   5.085  0.0895  0.0926 -0.6212
  210MOL     C242220   5.251   3.636   5.000 -0.1484  0.9996  0.0731
  210MOL    Cl342221   5.187   3.602   4.844  0.1808  0.2090 -0.3415
  210MOL     C442222   5.300   3.756   5.037  0.4106 -0.5298  0.5407
  210MOL     C542223   5.357   3.792   5.177 -0.4894 -0.5112  0.4224
  210MOL     H642224   5.248   3.421   5.024  1.6018 -0.8224  0.7388
  210MOL     H742225   5.154   3.502   5.143  0.6411 -0.6341  0.1664
  210MOL     H842226   5.298   3.837   4.966 -1.1576 -0.8769  0.1714
  210MOL     H942227   5.350   3.718   5.256  3.3020 -0.0278  1.3137
  210MOL    H1042228   5.463   3.802   5.152 -0.3642  0.5256  1.3516
  210MOL    H1142229   5.326   3.493   5.158  0.2544 -1.5878 -1.1941
  210MOL    C1242230   5.289   3.918   5.228  0.3675 -0.2851  0.0015
  210MOL    C1342231   5.332   3.976   5.357  0.6336 -0.0328 -0.3327
  210MOL   Cl1442232   5.432   4.114   5.338  0.5764 -0.3018  0.2064
  210MOL    C1542233   5.301   3.932   5.484 -0.3394  0.0991  1.0160
  210MOL    C1642234   5.218   3.803   5.518 -0.4636  0.2980  0.1040
  210MOL    H1742235   5.303   4.001   5.158 -1.8019 -0.0584 -0.2094
  210MOL    H1842236   5.184   3.898   5.247  0.9115 -2.6255  0.6618
  210MOL    H1942237   5.337   3.989   5.569 -0.9541  0.7000  0.8811
  210MOL    H2042238   5.199   3.747   5.427 -1.3929 -0.4197  0.7321
  210MOL    H2142239   5.286   3.736   5.570  0.5153 -0.6645 -2.3442
  210MOL    C2242240   5.075   3.819   5.597 -0.6624  0.4953 -0.0002
  210MOL    C2342241   5.022   3.690   5.653  0.5193  0.3880 -0.6350
  210MOL   Cl2442242   4.865   3.646   5.599  0.5103 -0.0145  0.1262
  210MOL    C2542243   5.088   3.611   5.745 -0.2937 -0.1619 -0.4746
  210MOL    C2642244   5.035   3.482   5.809 -0.3370  0.3135 -0.1629
  210MOL    H2742245   5.089   3.897   5.671 -1.0707  0.8229 -0.2618
  210MOL    H2842246   4.994   3.859   5.535 -1.9095 -1.8593  0.0394
  210MOL    H2942247   5.187   3.636   5.778 -0.8037 -0.4942  1.3327
  210MOL    H3042248   4.998   3.515   5.906  2.1341  0.9314  0.6009
  210MOL    H3142249   4.944   3.451   5.756 -0.1570 -1.2761  0.4341
  210MOL    C3242250   5.119   3.358   5.812  0.5491 -0.8637  0.4971
  210MOL    C3342251   5.250   3.363   5.895  0.6344 -0.2957 -0.0076
  210MOL   Cl3442252   5.359   3.250   5.824  0.3363  0.1994  0.1131
  210MOL    C3542253   5.275   3.443   5.999  0.2069  0.0803  0.7134
  210MOL    C3642254   5.407   3.462   6.068 -1.1198  0.0834  0.3512
  210MOL    H3742255   5.071   3.264   5.840  0.8828 -0.3297  2.9007
  210MOL    H3842256   5.143   3.349   5.706  0.2994 -0.6580  0.4242
  210MOL    H3942257   5.198   3.507   6.040 -1.7087 -1.8234  0.1801
  210MOL    H4042258   5.492   3.403   6.033 -0.7507 -0.5119  2.1909
  210MOL    H4142259   5.440   3.561   6.035 -1.2633 -0.8520 -2.7717
  210MOL    C4242260   5.406   3.449   6.226 -0.1880 -0.1826 -0.6900
  210MOL    C4342261   5.488   3.556   6.299  0.1711 -0.7092  0.9052
  210MOL   Cl4442262   5.390   3.692   6.337  0.3699 -0.1990 -0.1280
  210MOL    C4542263   5.611   3.556   6.345 -0.2312 -0.0476  0.2957
  210MOL    C4642264   5.705   3.440   6.333  0.4874 -0.2824 -0.7886
  210MOL    H4742265   5.301   3.469   6.248  0.0045  0.4247 -0.3300
  210MOL    H4842266   5.427   3.347   6.256 -0.1690 -0.1658 -0.6471
  210MOL    H4942267   5.645   3.647   6.393 -0.5054  0.5281 -0.5758
  210MOL    H5042268   5.757   3.415   6.425 -0.4734  0.1904 -0.1046
  210MOL    H5142269   5.648   3.353   6.298 -0.2677 -0.2552  0.3534
  210MOL    C5242270   5.817   3.465   6.237  0.0185  0.1799  0.4617
  210MOL    C5342271   5.916   3.344   6.239 -0.0620  0.4371 -0.8031
  210MOL   Cl5442272   5.856   3.213   6.156 -0.0030 -0.1752 -0.1235
  210MOL    C5542273   6.035   3.351   6.308 -0.1813  0.1266  0.4896
  210MOL    C5642274   6.123   3.227   6.325 -0.9782 -0.3714 -0.4691
  210MOL    H5742275   5.789   3.478   6.132  0.4015 -0.2826  0.3001
  210MOL    H5842276   5.867   3.556   6.271 -2.5170  1.3219  1.1995
  210MOL    H5942277   6.071   3.439   6.358  3.3628 -0.7051 -0.4421
  210MOL    H6042278   6.123   3.199   6.431  2.1508 -4.1732 -1.3715
  210MOL    H6142279   6.084   3.138   6.276 -2.4641 -0.2435  0.4434
  210MOL    C6242280   6.264   3.258   6.283 -0.6807  1.1287 -0.2120
  210MOL    C6342281   6.292   3.236   6.135 -0.5715 -0.5667 -0.3252
  210MOL   Cl6442282   6.282   3.381   6.036 -0.4471 -0.5174  0.0921
  210MOL    C6542283   6.310   3.112   6.086  0.3000  0.5016  0.7492
  210MOL    C6642284   6.342   3.080   5.943 -0.7559  0.9667  0.7612
  210MOL    H6742285   6.291   3.359   6.313 -1.4007  1.9852 -2.3929
  210MOL    H6842286   6.331   3.184   6.327 -2.0005 -0.3347 -0.6168
  210MOL    H6942287   6.292   3.027   6.151  0.8317 -1.1226 -1.1687
  210MOL    H7042288   6.366   3.172   5.889 -1.5038  0.1344 -1.0121
  210MOL    H7142289   6.251   3.038   5.901  0.3123 -1.0084  0.3762
  210MOL    C7242290   6.454   2.974   5.926 -0.6760  0.1031  0.3368
  210MOL    C7342291   6.450   2.908   5.794 -0.4324 -0.0903 -0.4652
  210MOL   Cl7442292   6.432   2.738   5.810  0.2100  0.1363 -0.2585
  210MOL    C7542293   6.461   2.972   5.678  0.3597  0.2559 -0.6944
  210MOL    C7642294   6.466   2.905   5.539 -0.4533  0.4595  0.6063
  210MOL    H7742295   6.451   2.901   6.007 -1.7193  1.4196  1.5062
  210MOL    H7842296   6.552   3.019   5.942 -0.8200  0.4518  0.2356
  210MOL    H7942297   6.470   3.080   5.671 -2.0141  0.3736 -2.6264
  210MOL    H8042298   6.367   2.899   5.493 -0.2165 -0.3540  0.2008
  210MOL    H8142299   6.499   2.803   5.561  0.8499  0.2443 -2.2479
  210MOL    C8242300   6.577   2.968   5.456  0.3093  0.2216  0.1011
  210MOL    C8342301   6.600   2.890   5.332 -0.5338 -0.4894  0.5540
  210MOL   Cl8442302   6.449   2.874   5.250  0.2321  0.3155  0.3516
  210MOL    C8542303   6.714   2.831   5.296 -0.6912 -0.3604  0.4891
  210MOL    C8642304   6.745   2.749   5.173 -0.6894  0.0261  0.2357
  210MOL    H8742305   6.671   2.960   5.512  0.9954  1.0766 -0.9053
  210MOL    H8842306   6.563   3.073   5.428 -2.1360 -0.3363 -0.8801
  210MOL    H8942307   6.805   2.855   5.349 -1.2312 -0.2705  1.3685
  210MOL    H9042308   6.680   2.775   5.090  1.1864  0.9314 -0.9718
  210MOL    H9142309   6.844   2.787   5.146 -1.6949  1.1665 -1.9506
  210MOL    C9242310   6.757   2.605   5.195 -0.3048 -0.2814 -0.5881
  210MOL    C9342311   6.798   2.528   5.071  0.0449 -0.3495  0.2684
  210MOL   Cl9442312   6.968   2.498   5.070  0.2251  0.2416 -0.1747
  210MOL    C9542313   6.723   2.465   4.985  0.3634  0.6237 -0.0674
  210MOL    C9642314   6.568   2.475   4.977 -0.0347  0.5296 -0.5202
  210MOL    H9742315   6.669   2.561   5.240 -0.6560 -0.7127 -1.6829
  210MOL    H9842316   6.830   2.595   5.276 -0.7827  2.4696  0.2476
  210MOL    H9942317   6.761   2.401   4.908 -0.3031 -0.4239  0.4655
  210MOL   H10042318   6.547   2.371   4.956  1.0521  0.2696 -0.3712
  210MOL   H10142319   6.531   2.511   5.073  2.3956 -0.3882  0.8024
  210MOL   C10242320   6.526   2.581   4.872 -0.2070 -0.0146  0.5927
  210MOL   C10342321   6.378   2.604   4.873 -0.0489  0.3751 -0.3210
  210MOL  Cl10442322   6.297   2.500   4.768  0.0671  0.0135  0.1605
  210MOL   C10542323   6.313   2.693   4.954 -0.6325  0.0391 -0.3092
  210MOL   C10642324   6.167   2.727   4.948 -0.0619  0.6700 -0.1746
  210MOL   H10742325   6.561   2.681   4.897  0.2901 -0.0592  0.0799
  210MOL   H10842326   6.562   2.561   4.771  2.2093  0.5050  1.3388
  210MOL   H10942327   6.366   2.746   5.032 -2.4296  1.2991  0.1009
  210MOL   H11042328   6.160   2.828   4.910 -0.3568  0.8161  0.2633
  210MOL   H11142329   6.108   2.660   4.885  1.5856 -1.6241  0.6418
  210MOL   C11242330   6.110   2.712   5.080 -0.2862  0.3658  0.3196
  210MOL   C11342331   5.967   2.762   5.077 -0.1398  0.7890  0.5926
  210MOL  Cl11442332   5.965   2.935   5.104 -0.0532  0.0874 -0.3630
  210MOL   C11542333   5.851   2.687   5.064 -0.0289  0.8221 -0.0099
  210MOL   C11642334   5.846   2.531   5.050  0.0753 -0.2681  0.1504
  210MOL   H11742335   6.119   2.610   5.117  0.6653 -1.0081 -3.4045
  210MOL   H11842336   6.160   2.772   5.156 -0.3999  2.0208 -0.8803
  210MOL   H11942337   5.756   2.737   5.073 -1.6613 -1.8860 -1.7004
  210MOL   H12042338   5.820   2.496   5.150  1.2318 -1.3548  0.0911
  210MOL   H12142339   5.948   2.493   5.035 -0.7146 -2.0256 -0.8967
  210MOL   C12242340   5.746   2.491   4.943  0.3219 -0.0314  0.0840
  210MOL   C12342341   5.744   2.347   4.892  0.6437 -0.0136 -0.1598
  210MOL  Cl12442342   5.688   2.239   5.016 -0.1180 -0.0262  0.3378
  210MOL   C12542343   5.775   2.295   4.770  0.2137 -0.3593  0.2024
  210MOL   C12642344   5.820   2.382   4.657 -0.6606  0.5322  0.5155
  210MOL   H12742345   5.645   2.514   4.978 -0.7315 -1.6440 -1.7746
  210MOL   H12842346   5.768   2.559   4.861  4.0323  1.3758  2.1535
  210MOL   H12942347   5.766   2.190   4.747  1.1622 -0.1276 -1.2596
  210MOL   H13042348   5.793   2.332   4.564  3.3517 -0.8140 -0.0003
  210MOL   H13142349   5.758   2.472   4.660 -1.8536 -0.2727  0.4262
  210MOL   C13242350   5.969   2.420   4.650  0.0539  0.9091 -0.3014
  210MOL   C13342351   6.006   2.509   4.530 -0.9514 -0.5875  0.0275
  210MOL  Cl13442352   6.030   2.419   4.384  0.0996 -0.0290  0.2706
  210MOL   C13542353   6.003   2.640   4.519  0.0993  0.2503 -0.5924
  210MOL   C13642354   5.967   2.739   4.631 -0.1073 -0.4500 -0.1646
  210MOL   H13742355   5.999   2.462   4.746 -0.1974 -0.4794  0.3973
  210MOL   H13842356   6.030   2.330   4.648 -1.9194 -0.5120  1.3965
  210MOL   H13942357   6.027   2.683   4.423  1.8903 -2.8493 -1.5983
  210MOL   H14042358   5.983   2.679   4.720  2.1863 -0.5013 -0.5829
  210MOL   H14142359   6.048   2.812   4.630  0.4736 -1.0878  0.2317
  210MOL   C14242360   5.834   2.810   4.603  0.0944  0.3957  0.1608
  210MOL   C14342361   5.815   2.950   4.645  0.0377 -0.0694  0.5186
  210MOL  Cl14442362   5.777   3.059   4.512  0.0488 -0.1229 -0.2970
  210MOL   C14542363   5.834   2.996   4.772 -0.4158  0.8096  1.0061
  210MOL   C14642364   5.819   3.139   4.811  0.3379 -0.4011 -0.1879
  210MOL   H14742365   5.755   2.753   4.653  1.2946 -2.5339 -1.1293
  210MOL   H14842366   5.807   2.808   4.497 -3.0124 -0.1967  0.8957
  210MOL   H14942367   5.857   2.924   4.849  1.1506 -0.5117 -0.6528
  210MOL   H15042368   5.907   3.177   4.863 -0.6161  0.9980  0.4257
  210MOL   H15142369   5.793   3.196   4.722  0.5936  0.2223  0.1340
  210MOL   C15242370   5.715   3.153   4.919 -0.2072 -0.6995 -0.1392
  210MOL   C15342371   5.666   3.302   4.934  0.0388  0.0756  0.0616
  210MOL  Cl15442372   5.499   3.321   4.885 -0.1591  0.2610 -0.2158
  210MOL   C15542373   5.748   3.405   4.978 -0.1242  0.4414  0.4611
  210MOL   C15642374   5.700   3.550   5.002 -0.1364  0.6394 -0.2333
  210MOL   H15742375   5.628   3.091   4.902 -0.6881 -0.0163 -0.1645
  210MOL   H15842376   5.752   3.127   5.019  1.0704  0.0198 -0.4177
  210MOL   H15942377   5.853   3.388   4.998 -0.9614 -2.3449  2.8886
  210MOL   H16042378   5.676   3.556   5.108 -0.9639  1.2543 -0.4564
  210MOL   H16142379   5.610   3.569   4.944 -0.5252 -2.0859 -0.5881
  210MOL   C16242380   5.806   3.650   4.981  0.0666 -0.3894  0.2608
  210MOL   C16342381   5.749   3.791   4.999 -0.7319  0.4669 -0.0872
  210MOL  Cl16442382   5.831   3.864   5.128 -0.1123 -0.0167 -0.4001
  210MOL   C16542383   5.658   3.849   4.919  0.1605 -1.1528  0.2071
  210MOL   C16642384   5.606   3.986   4.936 -1.0458  0.5986 -0.6706
  210MOL   H16742385   5.889   3.634   5.051  0.6930 -1.5710 -0.7396
  210MOL   H16842386   5.854   3.641   4.884 -1.5804  0.8625 -0.6909
  210MOL   H16942387   5.619   3.789   4.839  2.1763 -0.7825 -1.1014
  210MOL   H17042388   5.508   3.983   4.983 -1.1744  1.8389 -0.8528
  210MOL   H17142389   5.667   4.032   5.014 -3.7575  2.2337  0.5682
  210MOL   C17242390   5.610   4.070   4.809 -0.2944 -0.3607  0.1556
  210MOL   C17342391   5.512   4.006   4.700  0.7307 -0.6561 -0.2126
  210MOL  Cl17442392   5.587   3.948   4.560  0.2494  0.0041 -0.1677
  210MOL   C17542393   5.381   3.997   4.718 -0.0276 -0.0005 -0.2263
  210MOL   C17642394   5.282   3.934   4.624  0.4615 -0.4065 -0.0812
  210MOL   H17742395   5.712   4.063   4.772 -0.2348 -1.8211  0.5627
  210MOL   H17842396   5.598   4.177   4.826  2.4126  0.0700 -0.3064
  210MOL   H17942397   5.335   4.027   4.811  1.5266  0.5628  0.3688
  210MOL   H18042398   5.303   3.828   4.612  2.8476 -0.2883  2.3157
  210MOL   H18142399   5.295   3.971   4.522 -0.7781  1.3415  0.3569
  210MOL   C18242400   5.140   3.957   4.676  0.4904 -0.8085 -0.1383
  210MOL   C18342401   5.027   3.887   4.601 -0.0093  0.2480  0.4526
  210MOL  Cl18442402   4.894   3.840   4.701 -0.0673 -0.0644  0.0077
  210MOL   C18542403   5.028   3.868   4.467 -0.2500 -0.7614  0.2536
  210MOL   C18642404   4.922   3.795   4.388  0.2580 -0.4065 -0.1465
  210MOL   H18742405   5.125   3.911   4.774 -0.5199  0.5991  0.3857
  210MOL   H18842406   5.124   4.065   4.680  3.9134 -0.1770 -1.5148
  210MOL   H18942407   5.116   3.904   4.417  1.1121 -1.3334  2.1641
  210MOL   H19042408   4.984   3.728   4.329  1.6117  1.9853 -1.5307
  210MOL   H19142409   4.859   3.732   4.452 -0.6715  1.5215  0.8821
  210MOL   C19242410   4.839   3.886   4.294  0.4274 -0.4317 -0.2325
  210MOL   C19342411   4.740   3.800   4.219 -0.6622  0.3038 -0.5976
  210MOL  Cl19442412   4.820   3.750   4.072  0.0375 -0.1173  0.4391
  210MOL   C19542413   4.613   3.770   4.251  0.0245 -0.3224 -0.7994
  210MOL   C19642414   4.534   3.791   4.378 -0.2088  0.7604  0.3250
  210MOL   H19742415   4.907   3.941   4.230 -1.0490  0.4687 -1.0622
  210MOL   H19842416   4.785   3.957   4.358  1.5029 -1.4554  1.8679
  210MOL   H19942417   4.559   3.719   4.173  1.0754 -0.7527 -1.2705
  210MOL   H20042418   4.587   3.861   4.442  1.9133 -1.1171  0.6890
  210MOL   H20142419   4.527   3.702   4.442 -1.2382  1.7720  1.6407
  210MOL   H20242420   4.427   3.809   4.371 -0.2809  0.0588 -0.4897
  211MOL     C142421   4.705   2.433   2.961 -0.0594 -0.2853  0.1850
  211MOL     C242422   4.761   2.518   2.856 -0.3896 -0.5128  0.5434
  211MOL    Cl342423   4.900   2.443   2.780  0.2579 -0.0433  0.0284
  211MOL     C442424   4.728   2.642   2.823  0.1017 -0.1990  0.2176
  211MOL     C542425   4.616   2.713   2.896  0.4905 -0.4698 -0.3457
  211MOL     H642426   4.625   2.377   2.913  1.7090 -0.4778 -2.6090
  211MOL     H742427   4.673   2.476   3.056  2.4857  0.0796  0.9281
  211MOL     H842428   4.778   2.700   2.747 -0.3334  1.0524  0.8684
  211MOL     H942429   4.529   2.728   2.831  0.6687 -2.4820 -1.0823
  211MOL    H1042430   4.575   2.653   2.977  1.7010 -1.5466 -0.5161
  211MOL    H1142431   4.783   2.366   2.998  0.4305  0.0531 -0.2288
  211MOL    C1242432   4.663   2.846   2.952  0.5248  0.2825  0.6169
  211MOL    C1342433   4.556   2.891   3.048  0.1518 -0.4022 -0.1100
  211MOL   Cl1442434   4.597   2.837   3.206 -0.2774  0.0800 -0.0885
  211MOL    C1542435   4.436   2.953   3.020 -0.2392  0.0042  0.3018
  211MOL    C1642436   4.394   3.001   2.879 -0.1711 -0.5337 -0.9342
  211MOL    H1742437   4.757   2.841   3.007  1.3499  0.1619 -0.7786
  211MOL    H1842438   4.679   2.918   2.871  0.4287  0.7469  1.0126
  211MOL    H1942439   4.360   2.973   3.094 -1.4927 -1.5951 -0.5396
  211MOL    H2042440   4.481   3.013   2.815 -0.3145 -0.8825 -1.1972
  211MOL    H2142441   4.334   2.920   2.838  0.3457 -0.9667 -0.8413
  211MOL    C2242442   4.312   3.133   2.897  0.1530 -0.6341 -0.3794
  211MOL    C2342443   4.283   3.193   2.760  0.2621 -0.3925  0.1323
  211MOL   Cl2442444   4.115   3.177   2.722  0.3117 -0.1732  0.2988
  211MOL    C2542445   4.384   3.255   2.690 -0.3132  0.0576  0.3660
  211MOL    C2642446   4.367   3.326   2.558 -0.1770  0.0110  0.3536
  211MOL    H2742447   4.216   3.111   2.945  0.3715  1.2156  0.9341
  211MOL    H2842448   4.366   3.203   2.960 -1.4126  1.1505 -0.9826
  211MOL    H2942449   4.483   3.244   2.732 -0.8288  0.5623  1.7339
  211MOL    H3042450   4.265   3.330   2.520  0.1786  0.7636 -0.5264
  211MOL    H3142451   4.388   3.431   2.576  0.2384 -0.2233  1.2975
  211MOL    C3242452   4.463   3.267   2.452  0.3129  0.1110 -0.0273
  211MOL    C3342453   4.458   3.351   2.323 -0.3510 -0.0525  0.1192
  211MOL   Cl3442454   4.317   3.318   2.226  0.3429 -0.2608  0.3832
  211MOL    C3542455   4.544   3.445   2.281 -0.8600  0.3900 -1.0114
  211MOL    C3642456   4.534   3.524   2.153 -0.4793  0.5125  0.6389
  211MOL    H3742457   4.565   3.250   2.484  0.0961  0.4568  0.8626
  211MOL    H3842458   4.418   3.170   2.429  0.5732 -0.0029 -0.0556
  211MOL    H3942459   4.632   3.471   2.338  0.6727 -1.5874 -2.4111
  211MOL    H4042460   4.639   3.520   2.125 -0.0034  1.9472  2.1406
  211MOL    H4142461   4.485   3.468   2.074 -2.3723  0.6065  1.7108
  211MOL    C4242462   4.486   3.665   2.182  0.2157  0.4078 -0.5674
  211MOL    C4342463   4.336   3.662   2.229 -0.6576  0.5219  0.5229
  211MOL   Cl4442464   4.322   3.679   2.397  0.2225 -0.4638  0.0217
  211MOL    C4542465   4.230   3.657   2.150  0.1483 -0.4440 -0.9453
  211MOL    C4642466   4.225   3.648   1.998  0.3532 -0.3975 -0.5249
  211MOL    H4742467   4.543   3.726   2.252 -0.3753  0.4913 -0.1498
  211MOL    H4842468   4.477   3.726   2.092 -0.5052 -0.6987 -1.2612
  211MOL    H4942469   4.130   3.651   2.189  0.2109  0.0389 -0.7045
  211MOL    H5042470   4.293   3.567   1.971 -0.8024 -1.0256 -1.6091
  211MOL    H5142471   4.120   3.619   1.985  0.2137 -0.7841  1.3231
  211MOL    C5242472   4.248   3.778   1.917  0.1980 -0.2248  0.2007
  211MOL    C5342473   4.184   3.779   1.771  0.0794  0.1703  0.5197
  211MOL   Cl5442474   4.308   3.780   1.654  0.3475  0.1056 -0.0854
  211MOL    C5542475   4.055   3.775   1.741  0.2239 -0.1112 -0.6262
  211MOL    C5642476   3.986   3.779   1.603  0.1532  0.1401  0.4661
  211MOL    H5742477   4.204   3.857   1.978 -3.2245 -1.2362 -0.8518
  211MOL    H5842478   4.356   3.783   1.905  0.4330  1.7184  2.7449
  211MOL    H5942479   3.982   3.781   1.821  0.5602 -2.6035 -0.0779
  211MOL    H6042480   3.945   3.880   1.593  0.1892 -0.0522 -1.8081
  211MOL    H6142481   4.053   3.783   1.517 -2.5708 -1.9140 -1.8591
  211MOL    C6242482   3.861   3.691   1.582 -0.3404 -0.2703 -0.4760
  211MOL    C6342483   3.743   3.717   1.676  0.1891 -0.2810  0.5317
  211MOL   Cl6442484   3.644   3.850   1.618 -0.1463  0.0585  0.0193
  211MOL    C6542485   3.714   3.658   1.794 -0.6118 -0.5212  0.1701
  211MOL    C6642486   3.593   3.681   1.885 -0.1270  0.3441 -0.6913
  211MOL    H6742487   3.828   3.696   1.478  2.0355 -2.0424 -1.3436
  211MOL    H6842488   3.898   3.591   1.605  0.5185 -0.1599 -1.3388
  211MOL    H6942489   3.778   3.580   1.834 -0.8629  0.5936  2.8562
  211MOL    H7042490   3.542   3.585   1.892 -0.9053  0.7551 -0.7889
  211MOL    H7142491   3.516   3.738   1.834  0.2693  0.3036 -1.3473
  211MOL    C7242492   3.623   3.731   2.031  0.3734  0.2967 -0.8958
  211MOL    C7342493   3.556   3.869   2.046 -0.9508 -0.4714  0.4328
  211MOL   Cl7442494   3.641   4.000   1.965  0.1085 -0.1950 -0.1737
  211MOL    C7542495   3.447   3.887   2.125 -0.1122  0.2076  0.2490
  211MOL    C7642496   3.371   4.020   2.143  0.4143 -0.2659 -0.0963
  211MOL    H7742497   3.732   3.727   2.040  0.2565 -0.7730  0.0906
  211MOL    H7842498   3.592   3.663   2.111  0.6057  0.1374 -0.9404
  211MOL    H7942499   3.397   3.806   2.176  1.5334 -1.0377 -0.0666
  211MOL    H8042500   3.399   4.101   2.076 -1.1537  1.5658  1.4067
  211MOL    H8142501   3.380   4.053   2.246 -2.1475 -2.1444  0.8074
  211MOL    C8242502   3.221   4.001   2.112 -0.1665 -0.7000  0.3658
  211MOL    C8342503   3.137   4.124   2.084 -0.1159 -0.6224 -0.5492
  211MOL   Cl8442504   3.057   4.118   1.931  0.3304 -0.1848 -0.3284
  211MOL    C8542505   3.130   4.230   2.164  0.3888 -0.0619  0.0532
  211MOL    C8642506   3.042   4.360   2.132  0.0465 -0.1320  0.0362
  211MOL    H8742507   3.167   3.948   2.190 -2.0350  0.3587 -0.1547
  211MOL    H8842508   3.209   3.944   2.020  1.3961 -0.8774  0.2568
  211MOL    H8942509   3.197   4.236   2.248 -0.1261  0.1119  0.4536
  211MOL    H9042510   3.115   4.435   2.100 -0.7590  0.6023 -0.1182
  211MOL    H9142511   2.973   4.363   2.048  0.3812 -1.5140 -0.2904
  211MOL    C9242512   2.963   4.406   2.254  0.4523 -0.3368 -0.7703
  211MOL    C9342513   2.959   4.557   2.247 -0.2843 -0.6279 -0.3007
  211MOL   Cl9442514   2.837   4.610   2.139 -0.3197 -0.6852  0.0377
  211MOL    C9542515   3.044   4.644   2.309  0.0858  0.5337 -0.2426
  211MOL    C9642516   3.177   4.602   2.384  0.2927  0.3659 -0.0010
  211MOL    H9742517   3.005   4.370   2.349  1.4763 -0.1413 -1.1423
  211MOL    H9842518   2.859   4.376   2.252  0.2714  0.0162  1.7321
  211MOL    H9942519   3.028   4.750   2.296 -2.5161  0.0611 -1.0331
  211MOL   H10042520   3.169   4.619   2.491 -1.8427 -0.2314 -0.0574
  211MOL   H10142521   3.200   4.497   2.367  1.5236  0.8962 -1.8499
  211MOL   C10242522   3.290   4.676   2.333  0.3977 -0.4300 -0.3253
  211MOL   C10342523   3.426   4.657   2.388  0.2618  0.1934  0.4375
  211MOL  Cl10442524   3.533   4.561   2.288 -0.0641  0.1609  0.0329
  211MOL   C10542525   3.471   4.693   2.510  0.2603  0.8055  0.2452
  211MOL   C10642526   3.613   4.661   2.561  0.9327  0.3749  0.2640
  211MOL   H10742527   3.309   4.650   2.229 -1.2532 -1.0567 -0.4956
  211MOL   H10842528   3.278   4.783   2.348  1.5633 -0.0958 -1.7109
  211MOL   H10942529   3.411   4.744   2.583 -3.0103 -2.5014 -0.0290
  211MOL   H11042530   3.594   4.625   2.663 -1.1439  0.5794 -0.0214
  211MOL   H11142531   3.662   4.576   2.514  0.3623  0.5981 -0.7376
  211MOL   C11242532   3.703   4.776   2.577 -0.1620 -0.5055  0.1084
  211MOL   C11342533   3.772   4.808   2.449  0.0777  0.6213 -0.3154
  211MOL  Cl11442534   3.715   4.949   2.364  0.0103 -0.1526 -0.2592
  211MOL   C11542535   3.883   4.754   2.405  0.0638 -0.4366 -0.1401
  211MOL   C11642536   3.955   4.639   2.470  0.4079  0.3197  0.1036
  211MOL   H11742537   3.652   4.869   2.602 -2.1115 -1.6902  0.6791
  211MOL   H11842538   3.770   4.758   2.661 -1.7287  0.8749  1.6909
  211MOL   H11942539   3.927   4.790   2.313  0.2076  1.6923  0.7330
  211MOL   H12042540   3.892   4.584   2.539 -0.8072  0.9870 -0.4722
  211MOL   H12142541   4.032   4.680   2.536 -0.7807  0.5030  1.4006
  211MOL   C12242542   4.019   4.556   2.364  0.3477  0.5240 -0.0448
  211MOL   C12342543   4.098   4.438   2.409 -0.1607  0.4444 -0.1583
  211MOL  Cl12442544   4.108   4.397   2.574  0.3613 -0.1740  0.0394
  211MOL   C12542545   4.148   4.353   2.311  0.6780 -0.1639 -0.3623
  211MOL   C12642546   4.126   4.355   2.157 -1.2591  0.5348 -0.1606
  211MOL   H12742547   3.950   4.520   2.289  3.1587  1.1751 -3.0478
  211MOL   H12842548   4.090   4.610   2.302  0.6038  0.6285  0.3325
  211MOL   H12942549   4.215   4.275   2.344  0.8782  0.2882  0.2973
  211MOL   H13042550   4.065   4.267   2.142 -0.3318  0.1445 -1.7350
  211MOL   H13142551   4.064   4.440   2.127 -1.8960 -0.3363 -1.3673
  211MOL   C13242552   4.255   4.337   2.082 -0.1586  0.4291 -0.0834
  211MOL   C13342553   4.214   4.305   1.937  0.2816 -0.4825 -0.2000
  211MOL  Cl13442554   4.224   4.138   1.909 -0.3357  0.2325 -0.1509
  211MOL   C13542555   4.191   4.397   1.839 -0.5077 -0.1591  0.1384
  211MOL   C13642556   4.207   4.552   1.858 -0.8635  0.0192 -0.0876
  211MOL   H13742557   4.311   4.430   2.088  0.0178  0.3910 -1.0942
  211MOL   H13842558   4.311   4.255   2.127  1.8966  1.1893 -1.2022
  211MOL   H13942559   4.166   4.363   1.740 -0.0207  1.0881 -0.4315
  211MOL   H14042560   4.122   4.606   1.818 -1.0465  0.2998  0.6708
  211MOL   H14142561   4.203   4.570   1.965 -1.2680 -0.6864  0.0200
  211MOL   C14242562   4.338   4.603   1.800  0.2045 -0.2694  0.3878
  211MOL   C14342563   4.351   4.753   1.805  0.4722  0.5856 -0.2940
  211MOL  Cl14442564   4.250   4.824   1.676  0.5259 -0.2884 -0.0837
  211MOL   C14542565   4.419   4.827   1.895  0.6123  0.3400  1.1083
  211MOL   C14642566   4.417   4.973   1.913 -0.0667 -0.7242  0.4560
  211MOL   H14742567   4.337   4.566   1.698  2.9148 -1.2781  0.6946
  211MOL   H14842568   4.419   4.550   1.850 -0.6458 -1.9677  0.0260
  211MOL   H14942569   4.484   4.775   1.964  1.6058 -2.1812 -1.6455
  211MOL   H15042570   4.519   5.010   1.903  0.5010 -1.9931  1.3353
  211MOL   H15142571   4.376   5.012   1.820  1.1980 -0.6499 -0.0874
  211MOL   C15242572   4.339   5.026   2.035 -0.3432  0.1294  0.3157
  211MOL   C15342573   4.189   4.997   2.040 -0.2031  0.6699  0.3817
  211MOL  Cl15442574   4.138   4.928   2.188 -0.4161  0.1858  0.2192
  211MOL   C15542575   4.100   5.021   1.943 -0.4576  0.2316  0.1832
  211MOL   C15642576   3.950   4.988   1.946  0.1169 -0.6618  0.1314
  211MOL   H15742577   4.385   4.997   2.129  3.1218  0.1181 -1.3106
  211MOL   H15842578   4.360   5.132   2.026  0.8840  0.0009  1.4943
  211MOL   H15942579   4.131   5.073   1.854 -2.2781  0.8080 -0.1366
  211MOL   H16042580   3.902   5.077   1.986  3.4777  0.5805  1.4775
  211MOL   H16142581   3.927   4.902   2.009  0.0830  0.1978  1.3086
  211MOL   C16242582   3.887   4.960   1.806 -0.1709 -0.6180  0.1734
  211MOL   C16342583   3.743   4.938   1.792  0.0499 -0.1087 -0.1602
  211MOL  Cl16442584   3.710   4.897   1.624  0.1754  0.4792 -0.1394
  211MOL   C16542585   3.658   4.950   1.896 -0.0332 -0.2270 -0.1007
  211MOL   C16642586   3.511   4.932   1.880  0.0998  0.4367 -0.1460
  211MOL   H16742587   3.917   5.037   1.734  1.2206 -1.3627 -0.0595
  211MOL   H16842588   3.934   4.868   1.770  2.1339  1.0582 -1.2775
  211MOL   H16942589   3.688   4.974   1.997 -0.4249  2.0980 -0.5109
  211MOL   H17042590   3.454   5.020   1.909 -0.1834 -0.4421  2.0738
  211MOL   H17142591   3.482   4.920   1.776  0.2031  2.7339 -0.4772
  211MOL   C17242592   3.462   4.810   1.960  0.1492  0.5130  0.1035
  211MOL   C17342593   3.320   4.761   1.945 -0.2006 -0.0897 -0.0144
  211MOL  Cl17442594   3.313   4.585   1.961  0.0779 -0.8728  0.3809
  211MOL   C17542595   3.217   4.834   1.906  0.7189  0.2869  0.2245
  211MOL   C17642596   3.074   4.786   1.893  0.4631 -0.1562 -0.7354
  211MOL   H17742597   3.484   4.822   2.066  0.0980 -0.1738  0.1943
  211MOL   H17842598   3.527   4.728   1.931  2.7490  1.5400  2.8004
  211MOL   H17942599   3.235   4.940   1.893  0.0487  0.7050  2.5578
  211MOL   H18042600   3.013   4.833   1.970 -1.2154  2.6520 -3.6421
  211MOL   H18142601   3.070   4.679   1.914  0.4888 -0.2415 -1.1563
  211MOL   C18242602   3.007   4.823   1.762 -0.3756  0.0782  0.1955
  211MOL   C18342603   3.092   4.773   1.643  0.1987  0.2433  0.5020
  211MOL  Cl18442604   3.110   4.600   1.651 -0.0344  0.0831 -0.5838
  211MOL   C18542605   3.143   4.859   1.554 -0.2940 -0.4140 -0.3363
  211MOL   C18642606   3.233   4.816   1.442  0.2548  0.7434 -0.2954
  211MOL   H18742607   2.906   4.782   1.756  0.1070 -1.3393  1.2309
  211MOL   H18842608   2.986   4.930   1.765 -0.4004  0.0982 -0.5664
  211MOL   H18942609   3.128   4.966   1.557 -0.0138 -0.2745 -2.8322
  211MOL   H19042610   3.249   4.708   1.438  1.9748  0.9476  0.4943
  211MOL   H19142611   3.194   4.844   1.344  1.2319 -1.2027 -1.2734
  211MOL   C19242612   3.376   4.880   1.463  0.7800  0.4765  0.2153
  211MOL   C19342613   3.458   4.863   1.335 -0.3616 -0.2383 -0.3488
  211MOL  Cl19442614   3.466   4.701   1.282  0.0732 -0.4175 -0.0184
  211MOL   C19542615   3.504   4.960   1.259 -0.0943 -0.0041  0.7202
  211MOL   C19642616   3.495   5.106   1.280 -0.0974 -0.1505  0.9954
  211MOL   H19742617   3.430   4.838   1.548 -1.0495  0.8985  1.6328
  211MOL   H19842618   3.357   4.986   1.483  0.4125  0.6030 -0.7753
  211MOL   H19942619   3.553   4.926   1.169 -0.6740 -1.0881  0.8093
  211MOL   H20042620   3.527   5.151   1.187  0.4638  1.7301  2.0673
  211MOL   H20142621   3.570   5.136   1.354  0.8613 -0.8848  0.3473
  211MOL   H20242622   3.391   5.130   1.300 -0.9186 -2.8419  0.2119
  212MOL     C142623   7.384   4.453   8.018 -0.0125  0.1858  0.1296
  212MOL     C242624   7.501   4.382   7.959  0.4872 -0.9676  0.2322
  212MOL    Cl342625   7.625   4.486   7.895  0.5150 -0.1111 -0.0492
  212MOL     C442626   7.524   4.253   7.979  0.3615 -0.2239 -0.1759
  212MOL     C542627   7.434   4.150   8.047 -0.3015 -0.0784  0.4388
  212MOL     H642628   7.390   4.560   7.997 -0.8364  0.2340  0.1237
  212MOL     H742629   7.387   4.436   8.126 -2.5696  1.9396  0.5216
  212MOL     H842630   7.614   4.214   7.934  0.3937 -0.5827  0.1973
  212MOL     H942631   7.489   4.108   8.131 -0.8217 -1.0757  0.2875
  212MOL    H1042632   7.343   4.195   8.086  1.1637  1.2031  2.4570
  212MOL    H1142633   7.294   4.408   7.978  0.5985 -0.1619 -0.8589
  212MOL    C1242634   7.404   4.031   7.954  0.0290 -0.6530 -0.0923
  212MOL    C1342635   7.326   3.928   8.024 -0.1240 -0.2955 -0.0414
  212MOL   Cl1442636   7.159   3.970   8.062 -0.2555  0.1896  0.2583
  212MOL    C1542637   7.370   3.809   8.072  0.5880  1.2035  0.6070
  212MOL    C1642638   7.506   3.750   8.074  0.3652 -0.2773 -0.6265
  212MOL    H1742639   7.350   4.057   7.863  1.0391 -1.3627 -0.8934
  212MOL    H1842640   7.498   4.002   7.909  0.1876 -2.5164  1.3938
  212MOL    H1942641   7.300   3.752   8.130  0.4493  0.6092 -0.1388
  212MOL    H2042642   7.569   3.802   8.001 -0.5707  0.3789 -0.9789
  212MOL    H2142643   7.544   3.763   8.176  0.7110  3.1591 -1.1022
  212MOL    C2242644   7.498   3.597   8.042  0.4664  0.5113 -0.4230
  212MOL    C2342645   7.626   3.514   8.063  0.0409  0.1659  0.3663
  212MOL   Cl2442646   7.695   3.459   7.910 -0.6633 -0.1851  0.0031
  212MOL    C2542647   7.677   3.496   8.189 -0.4262 -0.4388 -0.2436
  212MOL    C2642648   7.804   3.422   8.225 -0.6960 -0.2439  0.3933
  212MOL    H2742649   7.428   3.545   8.108  1.8065  2.1817  2.4236
  212MOL    H2842650   7.471   3.582   7.938 -0.8926  1.2828 -0.1803
  212MOL    H2942651   7.619   3.538   8.271 -1.3230 -1.4433 -0.3522
  212MOL    H3042652   7.826   3.363   8.136 -0.7714  0.1720  0.1010
  212MOL    H3142653   7.883   3.497   8.225  0.0674 -1.0278  0.7978
  212MOL    C3242654   7.784   3.337   8.354 -0.0331  0.0427  0.4473
  212MOL    C3342655   7.910   3.266   8.396 -0.2315  0.4163 -0.1290
  212MOL   Cl3442656   7.915   3.102   8.351  0.6156 -0.1221  0.0733
  212MOL    C3542657   8.012   3.317   0.042  0.7551 -0.1003 -0.1856
  212MOL    C3642658   8.147   3.250   0.074  0.3710 -0.2489  0.4902
  212MOL    H3742659   7.759   3.412   0.008 -0.4771  0.1809  0.1632
  212MOL    H3842660   7.707   3.261   8.347 -1.1224  1.3294 -2.1428
  212MOL    H3942661   7.998   3.422   0.065  0.9276  0.7084 -3.4536
  212MOL    H4042662   8.142   3.205   0.173  1.8986 -2.3122 -0.3223
  212MOL    H4142663   8.174   3.169   0.006 -1.6818  0.2957 -1.0263
  212MOL    C4242664   8.262   3.349   0.074  0.2079  0.2995  0.1837
  212MOL    C4342665   8.398   3.280   0.086  0.5187  0.1903  0.1797
  212MOL   Cl4442666   0.024   3.289   0.253 -0.1860  0.3377  0.2604
  212MOL    C4542667   0.065   3.243   8.412 -0.5193 -0.0164  0.2566
  212MOL    C4642668   0.055   3.256   8.262  0.2393 -0.8049 -0.0377
  212MOL    H4742669   8.261   3.407   8.402  0.8457  0.0323  0.0101
  212MOL    H4842670   8.245   3.425   0.149 -0.8971  1.1856 -0.9468
  212MOL    H4942671   0.156   3.201   0.032  0.9130  1.0072 -1.8199
  212MOL    H5042672   0.053   3.160   8.210 -0.2230 -0.8139  0.0032
  212MOL    H5142673   8.382   3.304   8.237  1.3823  1.7010  0.3451
  212MOL    C5242674   0.158   3.353   8.191 -0.9213  0.0827  0.2098
  212MOL    C5342675   0.129   3.372   8.045  0.3665 -0.0146 -0.5494
  212MOL   Cl5442676   0.223   3.262   7.958 -0.1687  0.1676  0.1621
  212MOL    C5542677   0.041   3.454   7.986  0.7656 -0.5116  0.2818
  212MOL    C5642678   0.023   3.476   7.837  0.2778 -0.0546 -0.4039
  212MOL    H5742679   0.153   3.447   8.245 -0.6154  0.0261  0.3382
  212MOL    H5842680   0.261   3.321   8.208 -0.1332  3.5546  2.4197
  212MOL    H5942681   8.395   3.513   8.047  0.6359  0.7533 -1.0632
  212MOL    H6042682   0.082   3.403   7.781  0.4227  1.1545 -1.8507
  212MOL    H6142683   8.341   3.456   7.809  0.8429 -0.6450 -2.0978
  212MOL    C6242684   0.061   3.618   7.799 -0.1052 -0.4444 -0.0701
  212MOL    C6342685   0.022   3.664   7.659 -0.3241 -0.7866  0.3234
  212MOL   Cl6442686   0.138   3.604   7.547  0.3803  0.7426  0.2023
  212MOL    C6542687   8.325   3.719   7.623 -0.3401  0.3954 -0.2655
  212MOL    C6642688   8.278   3.735   7.478  0.2391 -0.3694  0.3523
  212MOL    H6742689   0.029   3.698   7.867 -0.0036 -1.1212  0.7877
  212MOL    H6842690   0.169   3.624   7.814 -0.2651  0.1785  0.8750
  212MOL    H6942691   8.263   3.752   7.705  2.0492  1.1709  1.2857
  212MOL    H7042692   8.215   3.649   7.453 -0.0267  0.0518 -0.4222
  212MOL    H7142693   8.369   3.730   7.418  0.8861 -0.0485  1.2915
  212MOL    C7242694   8.205   3.867   7.452 -0.2347 -0.4128 -0.2646
  212MOL    C7342695   8.133   3.863   7.320  0.3025 -0.4194 -0.1666
  212MOL   Cl7442696   7.970   3.905   7.345  0.1045  0.3708  0.2837
  212MOL    C7542697   8.186   3.829   7.204  0.2142 -0.2169  0.4847
  212MOL    C7642698   8.135   3.822   7.062  0.3342  0.8927  0.4106
  212MOL    H7742699   8.272   3.953   7.443 -1.6417  0.7725  0.3896
  212MOL    H7842700   8.128   3.885   7.527  0.7375 -1.7565  1.0826
  212MOL    H7942701   8.293   3.813   7.202  0.1559 -0.4508 -0.5541
  212MOL    H8042702   8.179   3.909   7.015  0.9752  0.7027  0.6577
  212MOL    H8142703   8.027   3.831   7.071  0.2003 -0.7832  0.6779
  212MOL    C8242704   8.155   3.689   6.988 -0.2558  0.4705  0.1434
  212MOL    C8342705   8.106   3.705   6.850 -0.3143  0.3825 -0.5308
  212MOL   Cl8442706   8.249   3.701   6.748  0.1892  0.0346  0.0418
  212MOL    C8542707   7.983   3.717   6.806  0.4474  0.4489 -0.5308
  212MOL    C8642708   7.943   3.737   6.658 -0.0020  0.1907 -0.4952
  212MOL    H8742709   8.099   3.608   7.036 -0.7127 -0.4134 -1.8205
  212MOL    H8842710   8.259   3.660   7.002  0.0582  1.7046  0.3631
  212MOL    H8942711   7.897   3.713   6.871  2.1623 -0.5970  1.7352
  212MOL    H9042712   7.882   3.827   6.653 -0.3880  0.0175  0.8971
  212MOL    H9142713   8.038   3.756   6.607 -0.3418  1.6855 -0.6036
  212MOL    C9242714   7.873   3.613   6.593  0.2921 -0.2671  0.0279
  212MOL    C9342715   7.832   3.640   6.456 -0.2868  0.2561  0.1690
  212MOL   Cl9442716   7.670   3.703   6.460 -0.5519  0.3561  0.0145
  212MOL    C9542717   7.908   3.646   6.345 -0.7025  0.5539  0.3780
  212MOL    C9642718   8.054   3.611   6.328  0.2681  0.6530  0.0484
  212MOL    H9742719   7.791   3.588   6.661  0.6718 -2.0825 -0.1622
  212MOL    H9842720   7.941   3.528   6.597  0.0147 -0.7853 -4.1539
  212MOL    H9942721   7.873   3.693   6.255 -0.1508  0.3966  0.0810
  212MOL   H10042722   8.083   3.552   6.415 -0.9067  0.3040  0.2159
  212MOL   H10142723   8.059   3.547   6.240  0.9988 -1.4311  1.5563
  212MOL   C10242724   8.135   3.738   6.296 -0.2713  0.5189  0.3464
  212MOL   C10342725   8.288   3.706   6.285  0.2098 -0.6544  0.0521
  212MOL  Cl10442726   8.326   3.593   6.166 -0.4310  0.1752 -0.2123
  212MOL   C10542727   8.381   3.765   6.365  0.1458  0.2881  0.9152
  212MOL   C10642728   0.105   3.730   6.362  0.4963  0.4960  0.3013
  212MOL   H10742729   8.100   3.770   6.197 -1.3715  0.2753  0.6483
  212MOL   H10842730   8.109   3.828   6.353  0.5549  0.9984 -0.0281
  212MOL   H10942731   8.356   3.844   6.435  0.2503  1.8923 -0.8186
  212MOL   H11042732   0.108   3.624   6.336 -0.0142  0.3494  0.8084
  212MOL   H11142733   0.155   3.784   6.282  1.7263 -1.3715 -0.2181
  212MOL   C11242734   0.165   3.744   6.505  0.5510  0.9658  0.3668
  212MOL   C11342735   0.315   3.703   6.513  0.1839 -0.6966  0.0245
  212MOL  Cl11442736   0.323   3.554   6.595 -0.2628 -0.2853 -0.3744
  212MOL   C11542737   0.426   3.782   6.502  0.3876  0.4837  0.8121
  212MOL   C11642738   0.444   3.931   6.469 -0.4931 -0.8672 -1.1177
  212MOL   H11742739   0.166   3.849   6.534 -0.6115  1.3568 -0.9469
  212MOL   H11842740   0.118   3.680   6.580  1.2297 -0.7395 -0.6228
  212MOL   H11942741   0.519   3.729   6.519  1.5992  1.9398 -1.0656
  212MOL   H12042742   0.513   3.975   6.541 -1.8187  0.9973 -0.9476
  212MOL   H12142743   0.351   3.988   6.474 -0.2650 -0.6155  0.9356
  212MOL   C12242744   0.503   3.952   6.333  0.4335  0.4331  0.3553
  212MOL   C12342745   0.529   4.100   6.308  0.1715 -0.0799  0.0296
  212MOL  Cl12442746   0.383   4.181   6.249  0.1871  0.1100 -0.4127
  212MOL   C12542747   0.642   4.169   6.331  0.0393 -0.6367 -0.2517
  212MOL   C12642748   0.761   4.108   6.407  0.4227 -0.1359  0.1975
  212MOL   H12742749   0.602   3.909   6.321  0.5589  1.0593 -0.9911
  212MOL   H12842750   0.445   3.906   6.252  2.6236 -2.2321  0.2273
  212MOL   H12942751   0.661   4.272   6.306 -0.2775  0.1472  2.5587
  212MOL   H13042752   0.780   4.155   6.504  0.1087 -2.1108  1.2272
  212MOL   H13142753   0.747   4.001   6.421  0.8176 -0.6278 -2.9022
  212MOL   C13242754   0.892   4.142   6.340  0.3106  0.3104 -0.0906
  212MOL   C13342755   1.025   4.095   6.409  0.2172  0.3582 -0.8885
  212MOL  Cl13442756   1.090   3.958   6.324 -0.0899  0.0633 -0.0698
  212MOL   C13542757   1.087   4.144   6.514  0.1029  0.0540 -1.0830
  212MOL   C13642758   1.043   4.263   6.609  0.3862 -0.2116  0.0811
  212MOL   H13742759   0.887   4.089   6.245 -3.1116 -3.8251  2.2173
  212MOL   H13842760   0.894   4.250   6.324 -0.6870  0.5841  1.5914
  212MOL   H13942761   1.174   4.087   6.541 -0.5632 -1.1568 -1.4608
  212MOL   H14042762   1.110   4.346   6.584  0.7260 -0.9383 -1.4873
  212MOL   H14142763   0.938   4.291   6.599  0.6243  0.9377  0.6347
  212MOL   C14242764   1.056   4.233   6.758 -0.0441  0.6590  0.3348
  212MOL   C14342765   0.975   4.109   6.782 -0.4422  0.0119 -0.2230
  212MOL  Cl14442766   0.805   4.126   6.796 -0.1686 -0.0537  0.3379
  212MOL   C14542767   1.033   3.986   6.802 -0.7445  0.5189  0.5065
  212MOL   C14642768   0.945   3.863   6.833 -0.0936  0.9283  0.1209
  212MOL   H14742769   1.037   4.324   6.814 -1.9522  0.4972 -0.0218
  212MOL   H14842770   1.159   4.203   6.778  0.1677  0.2300 -1.2583
  212MOL   H14942771   1.141   3.981   6.804 -0.7834  0.0609  2.6198
  212MOL   H15042772   0.965   3.823   6.933 -0.8285  1.9625  0.6897
  212MOL   H15142773   0.841   3.895   6.840 -0.8849 -0.6935 -3.3367
  212MOL   C15242774   0.954   3.745   6.733  0.2637  0.1945 -0.5717
  212MOL   C15342775   0.874   3.618   6.762 -0.2201 -0.2548 -0.2991
  212MOL  Cl15442776   0.971   3.513   6.859  0.0659  0.4055 -0.1175
  212MOL   C15542777   0.740   3.613   6.740 -0.3620  0.3959  0.1937
  212MOL   C15642778   0.654   3.500   6.789 -0.3982 -0.0910  0.7693
  212MOL   H15742779   0.920   3.786   6.638  0.2375 -0.1652 -0.7216
  212MOL   H15842780   1.061   3.725   6.723  0.6847  2.1971 -0.1739
  212MOL   H15942781   0.691   3.691   6.683  0.9653  0.4242 -0.9351
  212MOL   H16042782   0.714   3.422   6.836 -0.2013 -1.2562 -1.3500
  212MOL   H16142783   0.610   3.453   6.702 -0.8216  2.0308 -0.1844
  212MOL   C16242784   0.548   3.544   6.885 -0.4961  0.5550  0.0742
  212MOL   C16342785   0.586   3.588   7.028 -0.0235  0.2047 -0.1845
  212MOL  Cl16442786   0.636   3.753   7.043 -0.6781  0.0251  0.3514
  212MOL   C16542787   0.573   3.507   7.136  0.2785  0.1381 -1.0659
  212MOL   C16642788   0.605   3.536   7.284  0.5581  0.2719  0.3815
  212MOL   H16742789   0.494   3.626   6.837 -1.4856 -0.0578  0.1309
  212MOL   H16842790   0.472   3.468   6.899  0.2519 -0.2254 -0.1031
  212MOL   H16942791   0.537   3.406   7.127  0.1680 -0.2575  2.9807
  212MOL   H17042792   0.691   3.478   7.315  0.8265  1.4752  1.9461
  212MOL   H17142793   0.635   3.640   7.291 -1.8324  0.9153  1.8738
  212MOL   C17242794   0.480   3.508   7.370 -0.1142  0.8936  0.1368
  212MOL   C17342795   0.477   3.586   7.499 -0.6726  0.0902 -0.3146
  212MOL  Cl17442796   0.437   3.479   7.632  0.2147 -0.1349  0.0366
  212MOL   C17542797   0.491   3.719   7.516  0.0411  0.2824  0.2861
  212MOL   C17642798   0.448   3.790   7.646 -1.2067 -0.1398  0.1082
  212MOL   H17742799   0.475   3.405   7.406  0.5774  0.8812  0.2083
  212MOL   H17842800   0.380   3.526   7.330 -0.0540 -0.4738 -0.6726
  212MOL   H17942801   0.514   3.785   7.434 -0.6799 -0.3513 -0.4344
  212MOL   H18042802   0.444   3.716   7.725  1.6698 -0.2012  0.2472
  212MOL   H18142803   0.349   3.833   7.628 -1.8642 -1.3067  0.9007
  212MOL   C18242804   0.542   3.917   7.670 -0.1690  0.6817 -0.0075
  212MOL   C18342805   0.675   3.883   7.723  0.2228  0.3008 -0.9400
  212MOL  Cl18442806   0.683   3.947   7.883 -0.3175 -0.3767 -0.1201
  212MOL   C18542807   0.770   3.798   7.672  0.3182 -0.3392 -0.0770
  212MOL   C18642808   0.903   3.766   7.742  0.0697 -0.0066 -0.1383
  212MOL   H18742809   0.543   3.974   7.577  1.7601 -0.1361 -0.5048
  212MOL   H18842810   0.483   3.978   7.739 -0.5196  1.6425 -1.1404
  212MOL   H18942811   0.754   3.750   7.577  0.3586 -1.3901  0.4460
  212MOL   H19042812   0.983   3.790   7.672  1.4986 -1.1087  1.0814
  212MOL   H19142813   0.928   3.836   7.822  2.0495  0.0422 -0.7692
  212MOL   C19242814   0.908   3.624   7.790  0.0074 -0.9955 -0.3850
  212MOL   C19342815   1.038   3.589   7.852 -0.4597  0.3799  0.1338
  212MOL  Cl19442816   1.041   3.626   8.017  0.0895  0.0613 -0.0353
  212MOL   C19542817   1.143   3.519   7.804 -0.4351 -0.1483  0.3222
  212MOL   C19642818   1.159   3.457   7.667  0.6270 -0.0008  1.0308
  212MOL   H19742819   0.890   3.546   7.715 -0.0258  0.1457 -1.5853
  212MOL   H19842820   0.829   3.621   7.865 -0.4664  0.0930 -0.8332
  212MOL   H19942821   1.228   3.504   7.868 -0.5893  3.7701  1.5540
  212MOL   H20042822   1.266   3.464   7.650  0.6473  1.0950  1.5683
  212MOL   H20142823   1.088   3.485   7.588  1.4871  2.4962  1.1016
  212MOL   H20242824   1.150   3.349   7.657 -0.4262  0.2572 -1.2508
  213MOL     C142825   6.209   1.103   0.641 -0.1422 -0.4630  0.2321
  213MOL     C242826   6.292   0.982   0.664 -0.2851 -0.4443  0.5963
  213MOL    Cl342827   6.250   0.899   0.806  0.0449 -0.1189  0.0964
  213MOL     C442828   6.392   0.943   0.584 -0.4062  0.0680  0.2084
  213MOL     C542829   6.439   1.022   0.466 -0.4787 -0.5763 -0.2585
  213MOL     H642830   6.283   1.183   0.648 -1.2934  0.6131  0.4452
  213MOL     H742831   6.128   1.115   0.712 -0.8154  0.7163 -0.7148
  213MOL     H842832   6.442   0.850   0.609 -1.1885 -0.7477 -1.2367
  213MOL     H942833   6.442   0.954   0.382 -1.8083 -0.5662 -0.3144
  213MOL    H1042834   6.374   1.106   0.441  1.5880  1.0349 -0.4368
  213MOL    H1142835   6.164   1.106   0.541  0.2644  0.2977  0.0628
  213MOL    C1242836   6.585   1.077   0.494 -0.1855 -0.4426 -0.2788
  213MOL    C1342837   6.657   1.141   0.375  0.0674 -0.2251 -0.2202
  213MOL   Cl1442838   6.688   1.311   0.395  0.1490 -0.0483 -0.2086
  213MOL    C1542839   6.701   1.081   0.265 -0.1635  0.4513  0.4990
  213MOL    C1642840   6.672   0.939   0.235 -0.0969 -0.4741  0.3329
  213MOL    H1742841   6.584   1.138   0.584  0.9115 -0.2038 -0.4240
  213MOL    H1842842   6.644   0.988   0.518 -2.9232 -2.3699 -0.4353
  213MOL    H1942843   6.752   1.129   0.182 -0.1808  0.6125  0.5816
  213MOL    H2042844   6.763   0.885   0.211 -0.3176 -0.9530  0.5563
  213MOL    H2142845   6.625   0.881   0.315  0.5352  0.8457  1.6864
  213MOL    C2242846   6.586   0.932   0.104 -0.4122  0.1399  0.3249
  213MOL    C2342847   6.544   0.792   0.063 -0.2338 -0.3653  0.5182
  213MOL   Cl2442848   6.428   0.798   8.357  0.2713  0.3819  0.0446
  213MOL    C2542849   6.579   0.672   0.119 -0.1779 -0.6850 -0.5625
  213MOL    C2642850   6.525   0.540   0.078  0.0135  0.3055 -0.1138
  213MOL    H2742851   6.493   0.983   0.128 -1.4569 -1.7559  0.4024
  213MOL    H2842852   6.639   0.983   0.024  0.4901 -1.8471 -0.3912
  213MOL    H2942853   6.651   0.672   0.199 -1.5259  1.9698  0.7414
  213MOL    H3042854   6.484   0.547   8.399 -2.2396 -0.6172  0.7099
  213MOL    H3142855   6.609   0.472   0.077  0.5551  0.9709 -0.1839
  213MOL    C3242856   6.396   0.484   0.165 -0.0221 -0.3423  0.5779
  213MOL    C3342857   6.388   0.329   0.170 -0.3870 -0.2923 -0.4724
  213MOL   Cl3442858   6.469   0.254   0.299 -0.1537 -0.1533 -0.4045
  213MOL    C3542859   6.318   0.259   0.082 -0.7660 -0.2861  0.5044
  213MOL    C3642860   6.299   0.105   0.074  0.3215 -0.2881 -0.0197
  213MOL    H3742861   6.419   0.512   0.268 -0.3719  1.1293  0.2542
  213MOL    H3842862   6.309   0.542   0.135  0.7686  1.1673  1.1722
  213MOL    H3942863   6.266   0.317   0.007  0.3309  1.1372  0.8258
  213MOL    H4042864   6.359   0.053   0.149  1.2465  0.2405 -0.3893
  213MOL    H4142865   6.194   0.086   0.098 -0.2257  1.8073 -0.6366
  213MOL    C4242866   6.330   0.054   8.353 -0.6385 -0.1212  0.0846
  213MOL    C4342867   6.283   8.327   8.351 -0.2465 -0.2551 -0.3793
  213MOL   Cl4442868   6.136   8.304   8.262 -0.0885  0.0256 -0.1214
  213MOL    C4542869   6.348   8.229   8.416 -0.2862 -0.3989 -0.1791
  213MOL    C4642870   6.478   8.239   0.071  0.8006  0.5819  0.0637
  213MOL    H4742871   6.274   0.104   8.274  0.1477 -0.5404 -0.7495
  213MOL    H4842872   6.436   0.056   8.329 -1.1546 -1.3711 -2.4078
  213MOL    H4942873   6.303   8.131   8.411 -2.8967  0.8344 -1.4842
  213MOL    H5042874   6.542   8.163   0.027 -0.6306 -0.3440 -0.4357
  213MOL    H5142875   6.504   8.344   0.058  1.0811  0.8300  2.3969
  213MOL    C5242876   6.464   8.204   0.219  0.7131 -0.4582  0.0685
  213MOL    C5342877   6.594   8.243   0.288  0.7471 -0.1578 -0.3427
  213MOL   Cl5442878   6.643   8.099   0.367 -0.4441  0.0724  0.0268
  213MOL    C5542879   6.658   8.359   0.288  0.1585 -0.6645 -0.6623
  213MOL    C5642880   6.781   8.383   0.370 -0.0742  0.3759  0.0630
  213MOL    H5742881   6.387   8.255   0.277  0.1614 -0.7439 -0.4020
  213MOL    H5842882   6.443   8.097   0.222 -0.3462 -0.3160 -1.7233
  213MOL    H5942883   6.625   0.017   0.222 -1.3723  0.5889  1.5291
  213MOL    H6042884   6.762   0.051   0.429  2.3996  0.5919  0.6006
  213MOL    H6142885   6.804   8.312   0.450  0.4732  2.4892  1.8196
  213MOL    C6242886   6.908   8.394   0.276  0.1173  0.5883 -0.2273
  213MOL    C6342887   6.985   8.267   0.250 -0.4499 -0.8223  0.9102
  213MOL   Cl6442888   7.023   8.223   0.085 -0.1003  0.1790 -0.3673
  213MOL    C6542889   7.012   8.176   0.349 -0.3121 -0.3046  0.3841
  213MOL    C6642890   7.087   8.048   0.328  0.0634  0.5618  0.6507
  213MOL    H6742891   6.882   0.007   0.176 -1.0751  2.9390  0.8650
  213MOL    H6842892   6.978   0.043   0.321 -1.0433  1.6648 -0.0723
  213MOL    H6942893   6.979   8.201   0.449  1.4660  1.0856  0.6436
  213MOL    H7042894   7.182   8.062   0.381  0.3395 -0.4708  0.4390
  213MOL    H7142895   7.109   8.029   0.223  1.8109 -3.5573  1.6693
  213MOL    C7242896   7.017   7.920   0.377  0.5182  0.0625 -0.4105
  213MOL    C7342897   7.091   7.794   0.342 -0.1482 -0.0804  0.2258
  213MOL   Cl7442898   7.005   7.654   0.388  0.3396 -0.3773  0.1854
  213MOL    C7542899   7.207   7.779   0.271  0.8950  0.4699  0.8358
  213MOL    C7642900   7.274   7.646   0.244  0.8612 -0.3787 -0.0437
  213MOL    H7742901   6.916   7.911   0.338  0.3033  1.1197 -0.1140
  213MOL    H7842902   7.004   7.918   0.486  2.8496 -2.3942 -0.1298
  213MOL    H7942903   7.252   7.863   0.220 -0.2835  0.2203 -0.6494
  213MOL    H8042904   7.279   7.635   0.136 -1.1225 -2.3505  0.0351
  213MOL    H8142905   7.221   7.556   0.275  2.4939 -1.7036 -1.0064
  213MOL    C8242906   7.410   7.651   0.299 -0.3881  0.2956  0.3211
  213MOL    C8342907   7.491   7.533   0.242  0.2491 -0.0732  0.2668
  213MOL   Cl8442908   7.659   7.554   0.281  0.2838  0.0449  0.3886
  213MOL    C8542909   7.439   7.418   0.187 -0.3849 -0.0717 -0.4121
  213MOL    C8642910   7.518   7.305   0.126 -0.0498 -0.4373 -0.7900
  213MOL    H8742911   7.411   7.647   0.408  0.2985  0.1010  0.3098
  213MOL    H8842912   7.450   7.749   0.274 -1.5043  0.6328 -0.1886
  213MOL    H8942913   7.332   7.414   0.174 -0.2997 -2.2584 -0.5747
  213MOL    H9042914   7.624   7.322   0.146 -0.7417  1.5409  1.4273
  213MOL    H9142915   7.492   7.218   0.187 -1.3752  0.0234 -0.6902
  213MOL    C9242916   7.511   7.288   8.395  0.2377  0.7176  0.4828
  213MOL    C9342917   7.586   7.165   8.359 -0.8328 -0.5612  0.1437
  213MOL   Cl9442918   7.477   7.029   8.360 -0.2671  0.1616  0.2564
  213MOL    C9542919   7.718   7.155   8.327 -0.3146  0.3358  0.9562
  213MOL    C9642920   7.810   7.276   8.330 -0.6833  0.0958  0.7481
  213MOL    H9742921   7.543   7.374   8.337  0.4578  1.7545  2.0960
  213MOL    H9842922   7.407   7.265   8.373  0.1759  0.7344  0.7489
  213MOL    H9942923   7.749   7.055   8.300 -0.4509  0.3324  0.8066
  213MOL   H10042924   7.861   7.290   8.235  1.0247  1.7735  1.8708
  213MOL   H10142925   7.761   7.372   8.347  0.4198  0.9607 -0.7897
  213MOL   C10242926   7.904   7.255   0.025 -0.0300  0.3072 -0.5307
  213MOL   C10342927   8.001   7.375   0.036 -0.0505  0.1290 -0.1303
  213MOL  Cl10442928   8.150   7.321   8.387  0.3314 -0.3193 -0.0291
  213MOL   C10542929   7.981   7.502   0.086 -0.1055  1.1242 -0.0603
  213MOL   C10642930   8.073   7.619   0.104 -0.4964  0.8123 -0.2658
  213MOL   H10742931   7.845   7.245   0.116  3.0878 -0.3310  1.4872
  213MOL   H10842932   7.960   7.161   0.022 -0.6471 -0.1010  0.4022
  213MOL   H10942933   7.877   7.506   0.115 -0.0165 -2.8767  0.9989
  213MOL   H11042934   8.167   7.586   0.061 -2.1900 -2.6714 -1.5357
  213MOL   H11142935   8.045   7.701   0.038 -2.2800  0.3622 -0.1089
  213MOL   C11242936   8.083   7.675   0.247  0.1610 -0.2066 -0.1292
  213MOL   C11342937   8.176   7.795   0.256 -0.4222  0.2729 -0.4208
  213MOL  Cl11442938   8.334   7.736   0.244  0.3346  0.1257  0.0400
  213MOL   C11542939   8.136   7.924   0.236  0.0614 -0.1675 -0.3074
  213MOL   C11642940   7.987   7.972   0.240 -0.3782 -0.0714 -0.5856
  213MOL   H11742941   7.982   7.698   0.281 -0.0119 -0.7762 -0.2544
  213MOL   H11842942   8.127   7.607   0.320  0.9919  0.4096 -0.0464
  213MOL   H11942943   8.207   8.004   0.221  1.3549 -1.2871 -0.2645
  213MOL   H12042944   7.993   8.055   0.311  0.2809 -0.1471 -0.5434
  213MOL   H12142945   7.915   7.908   0.290 -0.1738  0.5036  0.4713
  213MOL   C12242946   7.948   8.025   0.096 -0.0160  0.7839 -0.3993
  213MOL   C12342947   7.808   8.081   0.081  0.7456 -0.6387  0.2046
  213MOL  Cl12442948   7.806   8.250   0.140 -0.1652 -0.3789 -0.0086
  213MOL   C12542949   7.693   8.025   0.036 -0.6175 -1.0016 -0.1643
  213MOL   C12642950   7.678   7.880   8.418  0.1193  0.6689 -0.1680
  213MOL   H12742951   8.018   8.097   0.055 -0.1542  1.5346  0.6769
  213MOL   H12842952   7.960   7.941   0.027  2.9904  0.1867  0.7803
  213MOL   H12942953   7.607   8.089   0.026 -1.1208 -1.2435  2.3838
  213MOL   H13042954   7.721   7.803   0.062  1.0372  0.7103 -0.7093
  213MOL   H13142955   7.572   7.878   0.020  0.7377  2.5346  3.2149
  213MOL   C13242956   7.718   7.855   8.272 -0.4934  0.0599 -0.9608
  213MOL   C13342957   7.699   7.714   8.230  1.0046 -0.0707 -0.8984
  213MOL  Cl13442958   7.842   7.618   8.208 -0.2251 -0.2583 -0.1027
  213MOL   C13542959   7.577   7.654   8.217  0.2677 -0.1178  0.2635
  213MOL   C13642960   7.439   7.722   8.227  0.3931 -0.1262 -0.0228
  213MOL   H13742961   7.666   7.918   8.200  1.4695 -0.6288 -3.0253
  213MOL   H13842962   7.824   7.876   8.268 -0.5752  0.6308 -0.2387
  213MOL   H13942963   7.563   7.549   8.200 -2.8177  0.3716 -0.5629
  213MOL   H14042964   7.407   7.726   8.331 -0.4362  2.2684 -0.3297
  213MOL   H14142965   7.435   7.820   8.180  2.6334  0.1180  0.2693
  213MOL   C14242966   7.330   7.662   8.144 -0.6124  0.0869 -0.5610
  213MOL   C14342967   7.193   7.661   8.211 -0.5871  0.6499 -0.1203
  213MOL  Cl14442968   7.153   7.495   8.261 -0.0473  0.1033  0.0040
  213MOL   C14542969   7.120   7.765   8.244 -0.9766  0.4493  0.5420
  213MOL   C14642970   6.985   7.754   8.311 -0.0555  0.1254  0.3869
  213MOL   H14742971   7.379   7.568   8.115  1.0942  0.2498  1.7197
  213MOL   H14842972   7.324   7.708   8.045  0.5086 -1.4614 -1.3823
  213MOL   H14942973   7.153   7.864   8.216  2.5153 -0.4379  1.2720
  213MOL   H15042974   6.933   7.662   8.284 -0.2742 -0.1101  1.5609
  213MOL   H15142975   7.006   7.743   8.418  1.2264 -1.0063  0.0295
  213MOL   C15242976   6.884   7.876   8.288  0.0774  0.4649  0.5208
  213MOL   C15342977   6.741   7.853   8.331 -0.7606  0.0547 -0.5152
  213MOL  Cl15442978   6.622   7.882   8.216 -0.0937  0.1423  0.1669
  213MOL   C15542979   6.715   7.797   0.033  0.3798  0.1751  0.0421
  213MOL   C15642980   6.580   7.745   0.078 -0.4293 -0.2030 -0.0490
  213MOL   H15742981   6.915   7.977   8.313 -2.9017  1.5474 -0.0014
  213MOL   H15842982   6.879   7.897   8.181 -0.0029 -0.8556  0.2578
  213MOL   H15942983   6.796   7.785   0.104  2.3824 -3.7518 -2.7053
  213MOL   H16042984   6.525   7.707   8.412  1.1623 -4.3984  0.6654
  213MOL   H16142985   6.515   7.818   0.126 -1.4085 -0.0798 -1.5209
  213MOL   C16242986   6.593   7.611   0.147  0.1599  0.3157 -0.6761
  213MOL   C16342987   6.668   7.502   0.069  0.0736 -0.5113  0.3425
  213MOL  Cl16442988   6.703   7.370   0.168 -0.3000  0.0624  0.0772
  213MOL   C16542989   6.692   7.501   8.360  0.2265 -0.2709 -0.4512
  213MOL   C16642990   6.757   7.391   8.276  0.3768  0.0229 -0.1514
  213MOL   H16742991   6.647   7.627   0.241 -2.4304 -1.9609  1.3101
  213MOL   H16842992   6.499   7.560   0.168  0.4966 -0.6760 -1.5407
  213MOL   H16942993   6.662   7.586   8.300 -1.8569  1.1183  2.4240
  213MOL   H17042994   6.860   7.408   8.246 -0.0617 -1.8603 -2.9076
  213MOL   H17142995   6.761   7.294   8.325 -2.6104 -0.3254 -0.4939
  213MOL   C17242996   6.680   7.378   8.146 -0.3109 -0.1084  0.0935
  213MOL   C17342997   6.726   7.263   8.053 -0.4024 -0.3411  0.0929
  213MOL  Cl17442998   6.607   7.150   8.015 -0.2335  0.2012  0.3169
  213MOL   C17542999   6.854   7.245   8.019 -0.8314  0.3471  0.4582
  213MOL   C17643000   6.919   7.123   7.957 -0.6207  0.4418  0.0237
  213MOL   H17743001   6.687   7.472   8.091 -2.3980  0.0890  0.1268
  213MOL   H17843002   6.575   7.357   8.168 -0.1745  1.3784  2.3652
  213MOL   H17943003   6.918   7.323   8.058 -1.3170 -0.8542  3.8039
  213MOL   H18043004   6.974   7.151   7.867 -1.3885 -1.4320 -1.0453
  213MOL   H18143005   6.837   7.057   7.932 -0.2953 -0.8076  2.1573
  213MOL   C18243006   7.008   7.060   8.066  0.0848 -0.4062 -0.5050
  213MOL   C18343007   7.060   6.922   8.037  0.4189  0.6765 -0.1442
  213MOL  Cl18443008   6.937   6.800   8.026 -0.1989 -0.3381 -0.4703
  213MOL   C18543009   7.192   6.893   8.027 -0.4756  0.0366  0.0191
  213MOL   C18643010   7.261   6.768   7.986 -0.1834  0.0557  0.5296
  213MOL   H18743011   7.089   7.128   8.093 -0.4783  0.7896 -1.7533
  213MOL   H18843012   6.960   7.066   8.164 -1.0038 -2.2610 -0.8894
  213MOL   H18943013   7.264   6.970   8.050 -0.4699 -0.3667  1.4040
  213MOL   H19043014   7.187   6.691   7.968  1.3413 -1.2798 -0.1296
  213MOL   H19143015   7.292   6.791   7.884  3.0659  0.6070  1.5983
  213MOL   C19243016   7.382   6.716   8.073 -0.1825  1.3681  0.2493
  213MOL   C19343017   7.519   6.734   8.009 -0.0399  0.0746 -0.3235
  213MOL  Cl19443018   7.616   6.838   8.104 -0.0915 -0.0082  0.0965
  213MOL   C19543019   7.566   6.673   7.897 -0.1758 -0.6003  0.0985
  213MOL   C19643020   7.486   6.581   7.809 -0.6640 -0.4089 -0.1739
  213MOL   H19743021   7.362   6.610   8.092  1.2765  0.7922 -1.3013
  213MOL   H19843022   7.387   6.750   8.176 -2.7905  0.8554  0.5824
  213MOL   H19943023   7.667   6.683   7.860 -0.7711  1.1436 -1.0826
  213MOL   H20043024   7.427   6.508   7.864 -3.0188  0.7811 -1.0742
  213MOL   H20143025   7.547   6.525   7.739  0.0956 -0.9140  0.8810
  213MOL   H20243026   7.413   6.637   7.750 -1.0107 -0.2622  0.3877
  214MOL     C143027   6.340   0.971   1.162  0.1144 -0.6719  0.3154
  214MOL     C243028   6.395   1.105   1.210  0.3386  0.6673 -0.1816
  214MOL    Cl343029   6.507   1.094   1.350  0.2505 -0.2379  0.0267
  214MOL     C443030   6.350   1.230   1.180  0.0785 -0.4120  0.3598
  214MOL     C543031   6.247   1.272   1.085 -1.1078 -0.4233  0.1675
  214MOL     H643032   6.295   0.909   1.240 -0.9605  0.5032  0.6514
  214MOL     H743033   6.425   0.927   1.110  0.0384  0.0135 -0.3877
  214MOL     H843034   6.385   1.313   1.239  0.0370 -1.6403  2.1495
  214MOL     H943035   6.294   1.288   0.988 -0.3025 -0.2523  0.5846
  214MOL    H1043036   6.184   1.187   1.059 -0.8279 -0.4400 -0.4688
  214MOL    H1143037   6.264   0.993   1.088  0.8981  0.4707 -0.1578
  214MOL    C1243038   6.143   1.387   1.124  0.9721 -0.3648  0.3233
  214MOL    C1343039   6.069   1.446   1.008 -0.0048  0.2422 -0.3753
  214MOL   Cl1443040   5.959   1.328   0.934 -0.4288  0.2081 -0.0904
  214MOL    C1543041   6.093   1.567   0.952 -0.3406 -0.2714  0.1203
  214MOL    C1643042   6.189   1.669   0.999  0.1522 -0.6680 -0.9021
  214MOL    H1743043   6.068   1.337   1.186  0.8846 -0.5441  0.0712
  214MOL    H1843044   6.192   1.464   1.183 -0.5838  0.3580  0.7015
  214MOL    H1943045   6.033   1.598   0.868 -1.6261 -2.5909  0.1339
  214MOL    H2043046   6.189   1.685   1.107  0.3021 -0.6381 -0.9065
  214MOL    H2143047   6.289   1.644   0.965 -0.0019 -1.3693 -0.8441
  214MOL    C2243048   6.155   1.804   0.931 -0.0340  0.6857 -0.2595
  214MOL    C2343049   6.237   1.921   0.985  0.2449 -0.3965  0.4465
  214MOL   Cl2443050   6.400   1.941   0.921  0.0576 -0.0498 -0.1930
  214MOL    C2543051   6.197   1.993   1.092 -0.5747  0.1291 -0.2158
  214MOL    C2643052   6.267   2.111   1.160 -0.3640 -0.4490  0.3360
  214MOL    H2743053   6.169   1.789   0.824  0.3087 -1.2010  0.0241
  214MOL    H2843054   6.056   1.844   0.952 -0.8931 -1.8501  0.7269
  214MOL    H2943055   6.103   1.974   1.142 -0.8895  1.0274 -0.4699
  214MOL    H3043056   6.272   2.095   1.268  1.8872 -1.3198  0.1340
  214MOL    H3143057   6.367   2.120   1.117  0.0207  1.4225  1.5922
  214MOL    C3243058   6.202   2.241   1.125  0.4299 -0.5681 -0.2883
  214MOL    C3343059   6.263   2.379   1.153 -0.0113  0.9656 -0.1172
  214MOL   Cl3443060   6.228   2.427   1.312 -0.2907  0.1000  0.0527
  214MOL    C3543061   6.316   2.463   1.058 -1.0134 -0.1496 -0.1921
  214MOL    C3643062   6.366   2.607   1.080  0.0809  0.3911  0.5479
  214MOL    H3743063   6.176   2.245   1.019 -0.1155 -4.2502 -0.3710
  214MOL    H3843064   6.101   2.240   1.167 -0.0515  1.8859 -1.3062
  214MOL    H3943065   6.325   2.432   0.954 -1.2736  0.2835 -0.3434
  214MOL    H4043066   6.396   2.632   1.182  2.4677  1.9101 -0.4713
  214MOL    H4143067   6.457   2.624   1.023 -0.1323 -1.2503 -0.3100
  214MOL    C4243068   6.268   2.711   1.029  0.0600 -0.3871  0.3426
  214MOL    C4343069   6.330   2.810   0.937  0.0522 -0.0724 -0.4778
  214MOL   Cl4443070   6.263   2.795   0.777 -0.1163  0.0378  0.0546
  214MOL    C4543071   6.417   2.909   0.971  0.2184 -0.2488  0.2350
  214MOL    C4643072   6.475   2.935   1.110 -1.4444 -0.4522 -0.0463
  214MOL    H4743073   6.189   2.655   0.979  0.9691 -0.1067 -1.4522
  214MOL    H4843074   6.209   2.768   1.101 -2.4693  0.5545 -2.3827
  214MOL    H4943075   6.442   2.977   0.892 -0.9445 -0.8428 -0.6631
  214MOL    H5043076   6.446   3.035   1.141  0.0192 -0.1502  0.4076
  214MOL    H5143077   6.436   2.854   1.171 -1.7824  0.3918  0.8816
  214MOL    C5243078   6.622   2.905   1.102  0.4687 -0.4542 -0.5497
  214MOL    C5343079   6.686   2.907   1.237  0.3055  1.1016  0.8334
  214MOL   Cl5443080   6.681   3.061   1.307 -0.1786 -0.0326  0.3209
  214MOL    C5543081   6.728   2.796   1.302 -0.3284  0.6855 -0.1538
  214MOL    C5643082   6.793   2.788   1.442  0.7190 -0.3173  0.0966
  214MOL    H5743083   6.636   2.806   1.057  0.4891 -1.1448  0.9404
  214MOL    H5843084   6.661   2.978   1.032 -1.9874 -0.0166 -1.5195
  214MOL    H5943085   6.719   2.696   1.263 -2.5424  0.6832  0.2982
  214MOL    H6043086   6.827   2.879   1.491 -0.3580 -0.1809  0.6189
  214MOL    H6143087   6.707   2.749   1.497 -0.1950  0.1312 -1.0060
  214MOL    C6243088   6.912   2.689   1.446 -0.1120 -0.3933  0.2736
  214MOL    C6343089   6.974   2.676   1.584 -0.1513  0.0967 -0.0179
  214MOL   Cl6443090   7.149   2.668   1.571  0.1520 -0.3510  0.3302
  214MOL    C6543091   6.908   2.672   1.700 -0.1685 -0.3672 -0.8959
  214MOL    C6643092   6.971   2.666   1.837  0.6524  0.1537  0.5907
  214MOL    H6743093   6.877   2.592   1.411 -1.1463  0.6356 -1.6246
  214MOL    H6843094   6.988   2.726   1.376  0.1471  1.3790  1.4338
  214MOL    H6943095   6.800   2.673   1.693 -0.1242 -0.3381 -1.5607
  214MOL    H7043096   6.959   2.766   1.878 -3.3243  0.6321 -1.4228
  214MOL    H7143097   7.078   2.649   1.835  0.6496  0.1613 -2.0223
  214MOL    C7243098   6.889   2.562   1.920 -0.3412 -0.2831  0.5974
  214MOL    C7343099   6.939   2.558   2.063  0.3256  0.8011 -0.1316
  214MOL   Cl7443100   7.011   2.410   2.102  0.0480  0.1993  0.1535
  214MOL    C7543101   6.942   2.657   2.156  0.1919  0.1309 -1.0442
  214MOL    C7643102   6.994   2.640   2.303 -0.6383  0.4292 -0.4096
  214MOL    H7743103   6.885   2.461   1.880 -0.6816  0.0268 -0.1619
  214MOL    H7843104   6.789   2.607   1.913 -0.3220 -0.1382  1.2605
  214MOL    H7943105   6.900   2.752   2.125  0.1706 -0.3205 -2.4118
  214MOL    H8043106   7.006   2.534   2.326  1.5080  0.6784 -0.3228
  214MOL    H8143107   6.917   2.668   2.376 -0.3313  0.8756 -0.2561
  214MOL    C8243108   7.127   2.704   2.330  0.0938 -0.2218 -0.2461
  214MOL    C8343109   7.115   2.852   2.344  0.5223 -0.6928 -0.5400
  214MOL   Cl8443110   7.104   2.895   2.512 -0.1990  0.2342 -0.2733
  214MOL    C8543111   7.113   2.946   2.250  0.0442  0.4658 -0.0270
  214MOL    C8643112   7.119   3.097   2.266  0.8031 -0.3021 -0.3635
  214MOL    H8743113   7.201   2.688   2.251 -0.0345  0.4523 -0.5076
  214MOL    H8843114   7.165   2.675   2.429 -2.3923  1.2915  1.2082
  214MOL    H8943115   7.111   2.897   2.154  1.0557 -0.4725  0.4311
  214MOL    H9043116   7.153   3.120   2.367 -2.0745  1.6803  0.2415
  214MOL    H9143117   7.189   3.135   2.193 -0.1713  0.4177 -0.9378
  214MOL    C9243118   6.982   3.168   2.226  0.0460 -0.3855  0.4040
  214MOL    C9343119   6.993   3.318   2.214  0.3226 -0.6208 -0.0785
  214MOL   Cl9443120   7.005   3.397   2.366  0.1870 -0.1805 -0.4336
  214MOL    C9543121   7.012   3.390   2.095  0.5790 -0.7636 -0.7727
  214MOL    C9643122   7.005   3.334   1.959  0.1196  0.0538 -0.7136
  214MOL    H9743123   6.891   3.140   2.278  0.0441  1.3003  1.3616
  214MOL    H9843124   6.966   3.122   2.128 -0.4887 -2.4246  1.4417
  214MOL    H9943125   7.032   3.496   2.093 -0.0115 -0.5628  2.0237
  214MOL   H10043126   6.935   3.252   1.971  0.0174  0.2897  0.3331
  214MOL   H10143127   6.947   3.400   1.894 -0.2372  0.6609  0.2098
  214MOL   C10243128   7.145   3.291   1.919 -0.3989  0.0200 -0.3897
  214MOL   C10343129   7.159   3.193   1.803 -0.1001 -0.3942 -0.1506
  214MOL  Cl10443130   7.272   3.063   1.831  0.4686 -0.1779  0.1306
  214MOL   C10543131   7.091   3.206   1.692  0.0920  0.7515 -0.3283
  214MOL   C10643132   7.092   3.099   1.581  0.0364  0.0684 -0.4660
  214MOL   H10743133   7.208   3.379   1.899  0.0618 -0.5202 -1.3992
  214MOL   H10843134   7.195   3.248   2.005  0.1315  1.6708  0.1457
  214MOL   H10943135   7.022   3.287   1.675  0.2083  1.1767  1.2244
  214MOL   H11043136   7.152   3.009   1.595  0.0147  0.0049 -0.7677
  214MOL   H11143137   6.989   3.062   1.577  0.2359 -0.4783 -0.6747
  214MOL   C11243138   7.139   3.160   1.446 -0.0176  0.0197  0.2909
  214MOL   C11343139   7.153   3.055   1.332 -0.3786 -0.6523 -0.1705
  214MOL  Cl11443140   7.032   3.076   1.208  0.2288 -0.1428  0.1266
  214MOL   C11543141   7.249   2.962   1.324 -0.1391 -0.2006 -0.2085
  214MOL   C11643142   7.366   2.927   1.426  0.3572 -0.7857  0.6990
  214MOL   H11743143   7.081   3.246   1.413 -1.7197 -1.1760  0.0741
  214MOL   H11843144   7.239   3.197   1.470 -1.3886  2.0059  3.2060
  214MOL   H11943145   7.235   2.893   1.242  0.3101  0.5243 -0.9068
  214MOL   H12043146   7.342   2.831   1.470 -1.0760 -1.0332 -0.5699
  214MOL   H12143147   7.376   2.996   1.510 -0.2448  1.2028 -0.8063
  214MOL   C12243148   7.502   2.942   1.349 -0.6660 -0.6322 -0.2558
  214MOL   C12343149   7.504   2.863   1.222  0.4218  0.4928 -0.3432
  214MOL  Cl12443150   7.529   2.695   1.251 -0.1061 -0.3929 -0.4504
  214MOL   C12543151   7.512   2.907   1.097 -0.5611 -0.3154  0.1117
  214MOL   C12643152   7.508   3.050   1.052  0.3457 -0.8108  1.5249
  214MOL   H12743153   7.523   3.047   1.325  3.0238 -0.3180  3.7371
  214MOL   H12843154   7.590   2.917   1.409 -0.6794  0.4293  0.2172
  214MOL   H12943155   7.518   2.829   1.022 -1.0248  2.1452 -2.5668
  214MOL   H13043156   7.411   3.088   1.021  1.3128 -0.0227 -0.6752
  214MOL   H13143157   7.547   3.103   1.138  0.2418  0.7183  0.6434
  214MOL   C13243158   7.601   3.063   0.931 -0.3751  0.1275  0.2789
  214MOL   C13343159   7.634   3.213   0.922 -0.2697  0.4054  0.2587
  214MOL  Cl13443160   7.800   3.239   0.918  0.1678 -0.0322  0.2515
  214MOL   C13543161   7.551   3.314   0.887  0.1178 -0.4196 -0.8925
  214MOL   C13643162   7.402   3.318   0.867 -0.1196  0.3825 -0.5904
  214MOL   H13743163   7.690   2.999   0.931  0.2323  0.9262 -1.7894
  214MOL   H13843164   7.551   3.024   0.842  0.6665 -0.4767 -0.0580
  214MOL   H13943165   7.589   3.409   0.853  0.3301 -0.2760 -0.2570
  214MOL   H14043166   7.371   3.216   0.845  1.6334 -0.2765 -0.0330
  214MOL   H14143167   7.357   3.358   0.959 -1.0681  1.9714 -1.7061
  214MOL   C14243168   7.344   3.407   0.753 -0.0922  0.3440  0.1990
  214MOL   C14343169   7.194   3.405   0.751  0.3325 -0.7014 -0.2679
  214MOL  Cl14443170   7.137   3.239   0.727  0.3953 -0.1956 -0.2073
  214MOL   C14543171   7.105   3.506   0.776 -0.4516 -0.1472 -0.5350
  214MOL   C14643172   6.959   3.496   0.790 -0.0070  0.1009 -0.0366
  214MOL   H14743173   7.367   3.377   0.650 -0.3245 -1.3588  0.6348
  214MOL   H14843174   7.377   3.512   0.753 -0.3237  0.4365  2.5690
  214MOL   H14943175   7.146   3.605   0.787 -0.9463 -0.1443  1.5695
  214MOL   H15043176   6.914   3.581   0.739 -0.2396  0.9012  1.4825
  214MOL   H15143177   6.931   3.411   0.728  1.3272 -2.2122  2.3950
  214MOL   C15243178   6.907   3.464   0.933  0.2410 -0.3109 -0.4895
  214MOL   C15343179   6.761   3.421   0.940 -0.1464 -1.0918 -1.0844
  214MOL  Cl15443180   6.674   3.455   0.797  0.0714  0.2956 -0.1928
  214MOL   C15543181   6.707   3.354   1.045  0.2044 -0.4979 -0.1233
  214MOL   C15643182   6.563   3.298   1.052  0.6076  0.6986  0.2818
  214MOL   H15743183   6.964   3.374   0.960 -0.4813 -0.4954  0.4217
  214MOL   H15843184   6.925   3.530   1.017  0.6275  1.2342 -1.7657
  214MOL   H15943185   6.779   3.325   1.120  0.0957 -0.6938 -0.0936
  214MOL   H16043186   6.577   3.191   1.046  0.2254  0.5697  1.5308
  214MOL   H16143187   6.495   3.328   0.972  1.3721 -1.9555 -1.3995
  214MOL   C16243188   6.498   3.330   1.185 -0.4021 -0.1951 -0.8433
  214MOL   C16343189   6.485   3.476   1.220  0.4923 -0.7345  0.7772
  214MOL  Cl16443190   6.449   3.580   1.084  0.1214 -0.4835 -0.1549
  214MOL   C16543191   6.505   3.524   1.346 -0.1063  0.1304 -0.5131
  214MOL   C16643192   6.515   3.673   1.380 -0.1358  0.1883 -0.8840
  214MOL   H16743193   6.395   3.300   1.164 -1.2487  0.2183  2.4889
  214MOL   H16843194   6.537   3.266   1.264 -1.2956  0.4349  0.1262
  214MOL   H16943195   6.528   3.465   1.433 -0.9815 -2.2871 -1.8999
  214MOL   H17043196   6.539   3.729   1.290  0.6140  4.2663  1.7584
  214MOL   H17143197   6.414   3.709   1.400  0.8754  2.4205  0.2951
  214MOL   C17243198   6.616   3.713   1.490  0.1375 -0.1434 -0.5970
  214MOL   C17343199   6.676   3.853   1.467 -0.4115 -0.0503  0.1220
  214MOL  Cl17443200   6.615   3.965   1.587 -0.3502 -0.0492  0.0103
  214MOL   C17543201   6.744   3.896   1.358 -0.1714 -0.8934 -0.2913
  214MOL   C17643202   6.792   4.038   1.324 -0.2040  0.0073 -0.1801
  214MOL   H17743203   6.704   3.649   1.499 -0.1667 -0.7468 -1.6912
  214MOL   H17843204   6.568   3.699   1.587  0.0743  0.8259 -0.4863
  214MOL   H17943205   6.761   3.821   1.283 -0.3526 -0.5451 -0.6823
  214MOL   H18043206   6.827   4.094   1.411  0.6209 -0.3349 -0.2789
  214MOL   H18143207   6.705   4.086   1.279  1.0882  0.9687 -1.7248
  214MOL   C18243208   6.905   4.038   1.222 -0.2069  0.2782  0.7146
  214MOL   C18343209   6.936   4.181   1.186  0.1879 -0.2820  0.4149
  214MOL  Cl18443210   6.851   4.240   1.044  0.0812  0.3112  0.1683
  214MOL   C18543211   7.020   4.256   1.254 -0.1236 -0.7972 -0.1106
  214MOL   C18643212   7.062   4.395   1.224 -0.6246 -0.0910 -0.9201
  214MOL   H18743213   6.998   3.995   1.260 -0.9409  0.1797  2.4716
  214MOL   H18843214   6.883   3.984   1.130  0.4569  1.3128 -0.0695
  214MOL   H18943215   7.060   4.209   1.343  0.3695 -1.6617 -0.7845
  214MOL   H19043216   7.163   4.371   1.193 -0.3423  0.1283 -0.1965
  214MOL   H19143217   7.015   4.439   1.137  0.8614  1.6655 -0.8708
  214MOL   C19243218   7.070   4.489   1.344  0.0637 -0.4570 -0.2859
  214MOL   C19343219   7.130   4.626   1.305  0.2512  0.2461  0.0588
  214MOL  Cl19443220   7.007   4.736   1.248  0.4758 -0.2393 -0.0102
  214MOL   C19543221   7.262   4.661   1.311 -0.1808 -0.4353 -0.0460
  214MOL   C19643222   7.374   4.571   1.344  0.0247 -0.3341 -0.3681
  214MOL   H19743223   7.142   4.451   1.417 -1.3602  0.4428  1.6284
  214MOL   H19843224   6.972   4.500   1.390  0.5191 -0.2567  0.6656
  214MOL   H19943225   7.285   4.763   1.285 -0.0253 -0.9543 -2.0236
  214MOL   H20043226   7.354   4.468   1.316 -0.1956 -1.1569  2.6456
  214MOL   H20143227   7.389   4.562   1.451  0.3058  0.7514 -0.3069
  214MOL   H20243228   7.469   4.592   1.295  1.2424 -1.7182  1.3331
  215MOL     C143229   5.789   3.556   0.963 -0.1697  0.1560  0.1277
  215MOL     C243230   5.654   3.498   0.936  0.5436 -0.4751 -0.7862
  215MOL    Cl343231   5.666   3.344   0.856  0.0093 -0.0815 -0.3485
  215MOL     C443232   5.527   3.536   0.969  0.1782  0.1856 -0.0352
  215MOL     C543233   5.485   3.663   1.042  0.5551 -0.5339  0.0541
  215MOL     H643234   5.791   3.602   1.062 -0.5071  0.4059  0.0231
  215MOL     H743235   5.812   3.632   0.888  2.3771  1.1606  1.8666
  215MOL     H843236   5.447   3.468   0.943  1.2714 -1.8605  1.8249
  215MOL     H943237   5.543   3.748   1.007 -1.2967  0.3580 -0.8917
  215MOL    H1043238   5.382   3.689   1.019  0.6964  2.1493  2.1366
  215MOL    H1143239   5.860   3.474   0.959 -0.9873 -0.6535  1.7169
  215MOL    C1243240   5.491   3.668   1.201 -0.0964 -0.7600 -0.4820
  215MOL    C1343241   5.474   3.807   1.264  0.0258  0.6486  0.1932
  215MOL   Cl1443242   5.624   3.878   1.309 -0.2570  0.0726  0.1132
  215MOL    C1543243   5.360   3.868   1.294 -0.4367 -0.1282  0.5881
  215MOL    C1643244   5.223   3.821   1.253  0.4094  0.3692 -0.2548
  215MOL    H1743245   5.415   3.608   1.251 -0.6557 -0.3675 -0.8465
  215MOL    H1843246   5.585   3.627   1.238  0.4103  3.7854  3.9268
  215MOL    H1943247   5.368   3.960   1.350 -0.6502 -0.7011  1.5647
  215MOL    H2043248   5.176   3.898   1.192 -1.2421 -0.1055  0.4063
  215MOL    H2143249   5.239   3.736   1.188  2.0045 -1.4550  2.4073
  215MOL    C2243250   5.127   3.780   1.370 -0.2466  0.6452 -0.3995
  215MOL    C2343251   4.989   3.725   1.330  0.4100 -0.2197  0.3442
  215MOL   Cl2443252   4.857   3.836   1.353  0.2754  0.3529  0.0619
  215MOL    C2543253   4.978   3.602   1.278 -0.8037  0.3227  0.0188
  215MOL    C2643254   4.848   3.535   1.223 -0.4096  0.4040  0.1413
  215MOL    H2743255   5.170   3.703   1.434  1.5622  2.4585  0.6018
  215MOL    H2843256   5.132   3.857   1.446 -0.7791  0.4067 -0.1167
  215MOL    H2943257   5.068   3.543   1.271 -1.6343 -1.2100  1.7074
  215MOL    H3043258   4.789   3.611   1.173  2.0373  1.5591 -1.0780
  215MOL    H3143259   4.874   3.455   1.155 -4.1175 -1.8218  1.1918
  215MOL    C3243260   4.768   3.459   1.333 -0.6155 -0.5293  0.1740
  215MOL    C3343261   4.623   3.430   1.299  0.0729  0.2534 -0.0118
  215MOL   Cl3443262   4.602   3.261   1.250  0.0570 -0.2387 -0.2379
  215MOL    C3543263   4.524   3.525   1.304  0.5469  0.5172  0.4048
  215MOL    C3643264   4.379   3.506   1.280  0.0865 -0.2097  0.3710
  215MOL    H3743265   4.808   3.363   1.365  1.1467  0.4366  1.0169
  215MOL    H3843266   4.778   3.528   1.417  2.4895 -2.1900  1.2480
  215MOL    H3943267   4.548   3.627   1.329  1.3840  0.0103  1.6604
  215MOL    H4043268   4.371   3.530   1.174 -0.7055  0.2076  0.5186
  215MOL    H4143269   4.356   3.400   1.278  5.2752 -1.4431 -0.5739
  215MOL    C4243270   4.291   3.600   1.367  0.0244 -0.2665  0.0753
  215MOL    C4343271   4.147   3.570   1.346 -0.3776 -0.5994 -0.2429
  215MOL   Cl4443272   4.096   3.446   1.463  0.1583  0.0274 -0.1901
  215MOL    C4543273   4.057   3.644   1.285  0.2829 -0.3043  0.4263
  215MOL    C4643274   4.072   3.777   1.203 -0.3206 -0.0855  0.1119
  215MOL    H4743275   4.306   3.589   1.474  1.7427 -2.2043 -0.3223
  215MOL    H4843276   4.307   3.704   1.340  0.0658 -0.8171 -2.1499
  215MOL    H4943277   3.956   3.605   1.287  0.9805 -2.3719 -2.3018
  215MOL    H5043278   3.974   3.823   1.221 -0.2146 -0.2704  1.1873
  215MOL    H5143279   4.141   3.845   1.253 -0.5598  1.3503 -1.4505
  215MOL    C5243280   4.114   3.749   1.058 -0.0055 -0.1208  0.2870
  215MOL    C5343281   4.063   3.854   0.965 -0.4817  0.1038 -0.8736
  215MOL   Cl5443282   4.198   3.927   0.873 -0.1586  0.0888 -0.0525
  215MOL    C5543283   3.938   3.881   0.943 -0.3781 -0.8291  0.7044
  215MOL    C5643284   3.883   3.979   0.839 -0.3797  0.1460  0.0580
  215MOL    H5743285   4.223   3.750   1.055  0.0812 -1.6601  1.8636
  215MOL    H5843286   4.098   3.648   1.019 -1.8494 -0.2472  1.3128
  215MOL    H5943287   3.865   3.823   0.997  0.3188  0.1258  2.7415
  215MOL    H6043288   3.806   4.036   0.891 -0.9510 -1.1843  0.6766
  215MOL    H6143289   3.955   4.057   0.814  0.0648  0.2060  1.4934
  215MOL    C6243290   3.815   3.903   0.732  0.9501  0.6640 -0.0189
  215MOL    C6343291   3.754   3.983   0.619 -0.1390 -0.4611  0.0605
  215MOL   Cl6443292   3.583   3.987   0.636 -0.0688 -0.1440  0.3275
  215MOL    C6543293   3.812   4.022   0.503 -0.3622  0.0454  0.1888
  215MOL    C6643294   3.740   4.104   0.399  0.7227  0.3154 -0.5924
  215MOL    H6743295   3.878   3.832   0.677 -0.1658  0.2438 -0.7831
  215MOL    H6843296   3.739   3.848   0.788  0.9066 -1.3277 -1.9486
  215MOL    H6943297   3.917   4.004   0.482 -0.1164  3.0279 -1.4195
  215MOL    H7043298   3.806   4.188   0.375  0.6307  1.3266  2.3895
  215MOL    H7143299   3.645   4.141   0.438 -0.1452 -0.4492 -1.9607
  215MOL    C7243300   3.708   4.008   0.280 -0.2595  0.3361 -0.0608
  215MOL    C7343301   3.605   4.084   0.189 -0.0768  0.0276 -0.1633
  215MOL   Cl7443302   3.674   4.205   0.090 -0.1342 -0.1050  0.0999
  215MOL    C7543303   3.472   4.050   0.185  0.6778 -0.7192  0.1111
  215MOL    C7643304   3.372   4.108   0.083 -0.2552  0.7001  0.0969
  215MOL    H7743305   3.674   3.910   0.315 -2.0992  0.5741 -1.1474
  215MOL    H7843306   3.800   3.994   0.223  0.5107  0.9586  1.0009
  215MOL    H7943307   3.422   3.976   0.245  1.6618 -1.2335  0.3052
  215MOL    H8043308   3.297   4.033   0.061 -1.0331  1.5949 -0.3553
  215MOL    H8143309   3.424   4.138   8.413  0.5108 -0.3088  0.1861
  215MOL    C8243310   3.298   4.227   0.136  0.0182 -0.2193  0.2274
  215MOL    C8343311   3.215   4.196   0.263  0.8551  0.7856  1.1224
  215MOL   Cl8443312   3.064   4.127   0.217 -0.0399  0.5599  0.0089
  215MOL    C8543313   3.236   4.237   0.391 -0.2177 -0.1808  0.0242
  215MOL    C8643314   3.150   4.206   0.512  0.0652 -0.3330  0.4600
  215MOL    H8743315   3.228   4.267   0.063  1.0181  0.1408 -0.5561
  215MOL    H8843316   3.372   4.305   0.157 -1.6711  1.8623 -1.2458
  215MOL    H8943317   3.325   4.297   0.408  0.1696 -0.6307 -0.4103
  215MOL    H9043318   3.083   4.125   0.482 -0.2502  1.4726 -4.0623
  215MOL    H9143319   3.214   4.176   0.594  1.5434  0.0135 -0.5538
  215MOL    C9243320   3.076   4.331   0.558  0.2961 -0.1809 -0.5165
  215MOL    C9343321   2.977   4.290   0.663 -0.2365 -0.4085 -0.1278
  215MOL   Cl9443322   2.816   4.273   0.614 -0.2785  0.0284  0.5556
  215MOL    C9543323   3.000   4.276   0.796 -0.1838 -0.0791  0.1356
  215MOL    C9643324   3.123   4.281   0.879  0.5855 -0.5287 -0.0043
  215MOL    H9743325   3.014   4.361   0.473 -1.1272 -0.7293  0.3187
  215MOL    H9843326   3.145   4.413   0.578 -1.0833  0.7951  0.3407
  215MOL    H9943327   2.906   4.254   0.845 -1.2565  1.5295 -1.1060
  215MOL   H10043328   3.123   4.182   0.925 -1.2069  0.2951  1.8622
  215MOL   H10143329   3.210   4.285   0.814 -0.0272 -2.8175 -0.9930
  215MOL   C10243330   3.121   4.401   0.984 -0.7990 -0.1135  0.2419
  215MOL   C10343331   3.033   4.405   1.103  0.1300  0.0846 -0.3086
  215MOL  Cl10443332   2.999   4.254   1.180  0.2255 -0.3035 -0.4599
  215MOL   C10543333   2.982   4.519   1.153 -0.3300 -0.1155  0.7510
  215MOL   C10643334   2.889   4.536   1.272  0.0985  0.3466 -0.0063
  215MOL   H10743335   3.221   4.407   1.027 -0.1537  2.0907 -1.4553
  215MOL   H10843336   3.111   4.491   0.924  0.9021 -1.0289 -1.5273
  215MOL   H10943337   3.002   4.615   1.108  2.6835 -0.6767  0.7336
  215MOL   H11043338   2.854   4.440   1.309 -0.6522  0.4997 -0.2881
  215MOL   H11143339   2.939   4.594   1.349 -0.0858  1.0323 -0.3905
  215MOL   C11243340   2.769   4.624   1.231 -0.0461 -0.3177 -0.6139
  215MOL   C11343341   2.695   4.678   1.353  0.0544 -1.5511 -0.8026
  215MOL  Cl11443342   2.804   4.797   1.427 -0.0490 -0.0620  0.0415
  215MOL   C11543343   2.569   4.659   1.387 -0.3058  0.2384 -0.0796
  215MOL   C11643344   2.470   4.563   1.319 -0.2215  0.3151  0.0911
  215MOL   H11743345   2.790   4.711   1.169  0.4400  0.5189  0.7017
  215MOL   H11843346   2.714   4.554   1.167 -0.0374 -0.3611 -0.5740
  215MOL   H11943347   2.528   4.708   1.474 -2.1383 -1.9904  0.3629
  215MOL   H12043348   2.464   4.468   1.372 -0.6987  0.1288 -0.2935
  215MOL   H12143349   2.501   4.556   1.215  1.9176  2.1383  0.5781
  215MOL   C12243350   2.326   4.615   1.337 -0.4778 -0.6307 -0.2843
  215MOL   C12343351   2.221   4.537   1.263  0.0059  0.5605  0.3481
  215MOL  Cl12443352   2.143   4.418   1.366 -0.0536 -0.0909 -0.2706
  215MOL   C12543353   2.191   4.547   1.134  0.1836  0.5413  0.1225
  215MOL   C12643354   2.262   4.643   1.040 -0.7924  0.6899 -0.1279
  215MOL   H12743355   2.330   4.604   1.445  0.6311  1.4944 -0.0668
  215MOL   H12843356   2.315   4.720   1.308 -0.3694 -0.8188 -1.0092
  215MOL   H12943357   2.108   4.491   1.092  1.6485 -0.5151 -1.4669
  215MOL   H13043358   2.286   4.737   1.088 -1.3969 -0.3788  2.3631
  215MOL   H13143359   2.350   4.596   0.996 -0.4242  1.8964 -0.6802
  215MOL   C13243360   2.154   4.677   0.927 -0.4168  0.0214 -0.6669
  215MOL   C13343361   2.045   4.773   0.977  0.3318  0.0887  0.2302
  215MOL  Cl13443362   1.893   4.686   1.002  0.1643 -0.0114 -0.3109
  215MOL   C13543363   2.057   4.906   1.007 -0.2324 -1.1330 -0.0381
  215MOL   C13643364   2.190   4.986   1.009 -0.3207  0.0622 -0.4503
  215MOL   H13743365   2.201   4.728   0.843 -1.1612 -0.2073 -1.2290
  215MOL   H13843366   2.117   4.585   0.882 -1.0121 -0.3464  0.5578
  215MOL   H13943367   1.963   4.952   1.034  1.2868  1.3982  1.0275
  215MOL   H14043368   2.274   4.928   0.973 -0.7922 -1.0432  0.1821
  215MOL   H14143369   2.169   5.076   0.951  0.6352  1.9925  2.0642
  215MOL   C14243370   2.212   5.036   1.152 -0.2234 -0.2523  0.7943
  215MOL   C14343371   2.335   5.123   1.151 -0.0157  0.3586 -0.1369
  215MOL  Cl14443372   2.459   5.050   1.248  0.1282 -0.2897  0.1329
  215MOL   C14543373   2.343   5.241   1.084  0.9416  0.0842  0.2720
  215MOL   C14643374   2.466   5.326   1.058  0.1643 -0.3566 -0.4343
  215MOL   H14743375   2.229   4.949   1.214  1.9733 -0.3461  0.1139
  215MOL   H14843376   2.125   5.091   1.189  0.2758  0.5374  0.8130
  215MOL   H14943377   2.256   5.288   1.041  0.1133 -0.5651  1.2076
  215MOL   H15043378   2.463   5.412   1.124 -0.8003 -0.0235 -0.9023
  215MOL   H15143379   2.559   5.280   1.091 -0.4896 -0.8312  0.7347
  215MOL   C15243380   2.484   5.372   0.915 -0.0097  0.3095 -0.6308
  215MOL   C15343381   2.607   5.460   0.895  0.3945  0.0338 -0.8098
  215MOL  Cl15443382   2.569   5.622   0.917  0.2457 -0.2786  0.0185
  215MOL   C15543383   2.729   5.416   0.869 -0.0804 -0.4158 -0.1002
  215MOL   C15643384   2.855   5.499   0.858 -0.3668  0.2417 -0.3219
  215MOL   H15743385   2.496   5.289   0.844  1.3751 -0.6359  0.6817
  215MOL   H15843386   2.396   5.428   0.881 -0.1261  1.3699  1.3555
  215MOL   H15943387   2.745   5.309   0.863  0.2036 -0.3097 -1.6025
  215MOL   H16043388   2.942   5.455   0.907  0.3575  0.9871 -0.9128
  215MOL   H16143389   2.846   5.589   0.920  1.7898 -0.6281  1.3369
  215MOL   C16243390   2.881   5.535   0.704 -0.4950  0.2598 -1.0295
  215MOL   C16343391   3.000   5.629   0.705  0.0752 -0.4350  0.3568
  215MOL  Cl16443392   3.163   5.559   0.718 -0.3240  0.2212 -0.2402
  215MOL   C16543393   2.994   5.764   0.705 -0.3431  0.0102 -0.3180
  215MOL   C16643394   3.102   5.865   0.722 -0.4068  0.3817 -0.3974
  215MOL   H16743395   2.909   5.449   0.643 -1.8695 -0.8182 -0.1952
  215MOL   H16843396   2.788   5.571   0.660 -1.3714 -1.3553 -0.5784
  215MOL   H16943397   2.892   5.802   0.698 -0.3698  0.0402  0.2506
  215MOL   H17043398   3.077   5.933   0.804  1.4738  0.9594 -0.2732
  215MOL   H17143399   3.199   5.823   0.751 -0.8734 -1.6628 -1.7183
  215MOL   C17243400   3.136   5.943   0.589 -0.3106  0.0809  0.0684
  215MOL   C17343401   3.280   5.991   0.587 -0.0182  0.2072 -0.7931
  215MOL  Cl17443402   3.303   6.139   0.687  0.2060  0.0336 -0.0187
  215MOL   C17543403   3.380   5.924   0.533 -0.3710 -0.3083 -0.3660
  215MOL   C17643404   3.519   5.977   0.525  0.2012  0.1899  0.0543
  215MOL   H17743405   3.078   6.035   0.582  0.4350  0.5015 -0.8496
  215MOL   H17843406   3.118   5.882   0.500  0.7684  0.4025 -0.3799
  215MOL   H17943407   3.358   5.828   0.489 -0.3978 -0.4731  0.0104
  215MOL   H18043408   3.586   5.899   0.561  1.7943  0.7856 -1.6001
  215MOL   H18143409   3.533   6.066   0.587 -0.3357  1.5393 -1.7276
  215MOL   C18243410   3.567   6.014   0.382 -0.5884  0.7186 -0.0652
  215MOL   C18343411   3.566   6.162   0.355  0.1007  0.2511  0.3798
  215MOL  Cl18443412   3.712   6.240   0.365 -0.4101  0.1495  0.0530
  215MOL   C18543413   3.448   6.221   0.320  0.2143 -0.1338 -0.1506
  215MOL   C18643414   3.427   6.370   0.295  0.4265  0.1304 -1.5310
  215MOL   H18743415   3.666   5.970   0.371 -1.0013  0.0948 -1.3994
  215MOL   H18843416   3.496   5.963   0.316 -1.6137 -0.5031  1.9284
  215MOL   H18943417   3.364   6.153   0.315  1.2719 -1.4334 -0.6584
  215MOL   H19043418   3.527   6.413   0.292  0.1634  1.2186  2.7492
  215MOL   H19143419   3.377   6.372   0.198  0.1877  1.7798 -1.3850
  215MOL   C19243420   3.334   6.442   0.394 -0.2519 -0.3240  0.0889
  215MOL   C19343421   3.339   6.589   0.384  0.8810  0.4299 -0.3925
  215MOL  Cl19443422   3.226   6.642   0.268 -0.0886  0.0370 -0.0326
  215MOL   C19543423   3.409   6.674   0.464 -0.2267  0.2614 -0.0147
  215MOL   C19643424   3.501   6.636   0.574 -0.5054 -0.2532 -0.1957
  215MOL   H19743425   3.353   6.430   0.501 -1.2111  1.7887  0.5163
  215MOL   H19843426   3.227   6.420   0.387 -0.4163  0.7940 -1.0731
  215MOL   H19943427   3.388   6.780   0.457 -0.1434  0.2890  0.1670
  215MOL   H20043428   3.574   6.716   0.586  0.0438 -0.6348 -0.9574
  215MOL   H20143429   3.554   6.544   0.550  0.1876  0.6345 -2.1068
  215MOL   H20243430   3.441   6.618   0.663 -0.0922 -0.1533  0.1060
  216MOL     C143431   1.695   0.959   4.723  0.0205  0.2528  0.4149
  216MOL     C243432   1.792   1.050   4.657 -0.5688 -0.4141 -0.1665
  216MOL    Cl343433   1.919   0.964   4.573 -0.0536  0.1135  0.0275
  216MOL     C443434   1.795   1.181   4.669 -0.1261  0.2316 -0.4405
  216MOL     C543435   1.696   1.263   4.750  0.6144 -0.6279 -0.7003
  216MOL     H643436   1.736   0.861   4.746 -0.1908 -1.0349 -4.2116
  216MOL     H743437   1.599   0.948   4.672  0.7890  0.4950 -1.1424
  216MOL     H843438   1.873   1.228   4.612  1.3170 -1.2475  0.2972
  216MOL     H943439   1.619   1.192   4.777 -0.6586  1.0824  0.3196
  216MOL    H1043440   1.764   1.302   4.826  0.3182 -0.1809 -0.6563
  216MOL    H1143441   1.670   1.004   4.819  1.0296 -0.2176  0.9086
  216MOL    C1243442   1.632   1.378   4.679  0.4391 -0.3144 -0.0648
  216MOL    C1343443   1.504   1.433   4.743  0.1743 -0.0987  0.8460
  216MOL   Cl1443444   1.361   1.332   4.717 -0.2958  0.2632  0.3712
  216MOL    C1543445   1.492   1.554   4.809  0.0636  0.3013  0.0253
  216MOL    C1643446   1.602   1.649   4.839 -0.1148 -0.0934  0.2955
  216MOL    H1743447   1.698   1.457   4.643  1.0057 -0.3267  0.9214
  216MOL    H1843448   1.593   1.339   4.585 -1.2139  0.2755  0.3589
  216MOL    H1943449   1.398   1.587   4.850  1.1396  0.9284  2.0651
  216MOL    H2043450   1.695   1.601   4.808 -1.1113 -1.0219 -1.3282
  216MOL    H2143451   1.585   1.743   4.787 -0.2343  1.0421  2.3527
  216MOL    C2243452   1.599   1.674   4.995  0.0369  0.8826  0.2416
  216MOL    C2343453   1.710   1.763   5.050 -0.2581  0.6317 -1.0899
  216MOL   Cl2443454   1.796   1.675   5.169 -0.3147 -0.2580 -0.3269
  216MOL    C2543455   1.741   1.886   5.010  0.0331 -0.1274  0.0374
  216MOL    C2643456   1.847   1.977   5.064  0.5583 -0.0466  0.2376
  216MOL    H2743457   1.505   1.710   5.035 -1.1642  1.0624 -2.5884
  216MOL    H2843458   1.624   1.573   5.028 -0.5032 -0.5068 -3.3442
  216MOL    H2943459   1.683   1.916   4.924  0.4313  1.5205  0.3403
  216MOL    H3043460   1.876   1.935   5.160 -2.0506  3.0617  2.5281
  216MOL    H3143461   1.934   1.965   5.000  0.7426 -0.3937  0.5529
  216MOL    C3243462   1.794   2.119   5.091  0.2716  0.0126 -0.6136
  216MOL    C3343463   1.896   2.203   5.166  0.2602  0.3660  0.0354
  216MOL   Cl3443464   2.028   2.238   5.064 -0.2568 -0.1412 -0.2426
  216MOL    C3543465   1.882   2.239   5.294 -0.5706  0.2058  0.3218
  216MOL    C3643466   1.973   2.333   5.382 -0.5060 -0.5035 -0.4561
  216MOL    H3743467   1.757   2.157   4.996  0.4049  0.2513 -0.5711
  216MOL    H3843468   1.707   2.096   5.154  0.4062 -1.1248 -0.8329
  216MOL    H3943469   1.788   2.211   5.339 -1.4758  2.0443 -0.3685
  216MOL    H4043470   2.007   2.269   5.463  2.5599  1.6523  0.0278
  216MOL    H4143471   2.062   2.363   5.328  0.8110 -0.8681  1.4797
  216MOL    C4243472   1.892   2.459   5.424  0.2550  0.1749  0.5057
  216MOL    C4343473   1.962   2.537   5.531  0.2061  0.5090 -0.7339
  216MOL   Cl4443474   1.862   2.553   5.670 -0.0809  0.6522  0.7346
  216MOL    C4543475   2.083   2.605   5.525  0.1068  0.4962 -0.1863
  216MOL    C4643476   2.185   2.612   5.415  0.3843  0.8011  0.1257
  216MOL    H4743477   1.851   2.519   5.343 -1.8626 -1.3354  0.4166
  216MOL    H4843478   1.801   2.417   5.465  0.0573  0.1349  0.0289
  216MOL    H4943479   2.113   2.660   5.613 -0.8865  0.1224  0.3923
  216MOL    H5043480   2.143   2.562   5.328  2.0704 -2.9216  1.3419
  216MOL    H5143481   2.211   2.714   5.385 -0.8022  1.0807  0.0487
  216MOL    C5243482   2.315   2.551   5.470 -0.1622  0.8195 -0.3204
  216MOL    C5343483   2.425   2.520   5.371  0.2052 -0.3515  0.3825
  216MOL   Cl5443484   2.558   2.628   5.402 -0.1189 -0.0264  0.3751
  216MOL    C5543485   2.433   2.419   5.280  0.2269 -0.3660  0.4855
  216MOL    C5643486   2.557   2.387   5.202 -0.0202  0.3312  0.3432
  216MOL    H5743487   2.355   2.611   5.552 -0.8805  0.4307  0.3229
  216MOL    H5843488   2.282   2.456   5.512  1.1210 -1.3155 -3.9113
  216MOL    H5943489   2.355   2.347   5.262 -0.2897  0.9159 -2.6666
  216MOL    H6043490   2.640   2.445   5.242  0.1744  1.0898 -1.1317
  216MOL    H6143491   2.579   2.280   5.204 -0.3417  0.2518 -0.0375
  216MOL    C6243492   2.535   2.428   5.053 -0.3356  0.3219 -0.2901
  216MOL    C6343493   2.661   2.399   4.965  0.4227  0.1709  0.1991
  216MOL   Cl6443494   2.625   2.296   4.833 -0.2603 -0.0553  0.7801
  216MOL    C6543495   2.780   2.450   4.986 -0.4775 -0.1974  0.0590
  216MOL    C6643496   2.909   2.423   4.902  0.0100 -0.0193 -0.6704
  216MOL    H6743497   2.455   2.362   5.019 -0.2333 -0.6787  1.3883
  216MOL    H6843498   2.514   2.532   5.027 -0.6850  0.2570 -0.2645
  216MOL    H6943499   2.796   2.519   5.067  0.0816  0.1025 -0.3047
  216MOL    H7043500   2.898   2.327   4.851  1.3437 -0.1958 -0.6559
  216MOL    H7143501   2.993   2.419   4.973  0.0387 -4.2967 -0.7689
  216MOL    C7243502   2.923   2.519   4.785  0.3322 -0.5331  0.0542
  216MOL    C7343503   3.026   2.462   4.695 -0.3142  0.7094  0.0261
  216MOL   Cl7443504   2.949   2.387   4.557  0.3135  0.1890 -0.3588
  216MOL    C7543505   3.160   2.466   4.701 -0.1938 -0.0424  0.6225
  216MOL    C7643506   3.254   2.417   4.596  0.7193 -0.6818  0.3558
  216MOL    H7743507   2.948   2.613   4.832  1.5197  0.2523 -2.0596
  216MOL    H7843508   2.836   2.549   4.726 -0.4835 -1.6291  0.6840
  216MOL    H7943509   3.207   2.513   4.786  1.3865  0.5073 -0.5195
  216MOL    H8043510   3.322   2.499   4.572 -0.4215 -0.2109 -1.3897
  216MOL    H8143511   3.207   2.385   4.503  1.7442  0.6408 -0.6333
  216MOL    C8243512   3.337   2.295   4.644 -0.1682  0.5177  0.2589
  216MOL    C8343513   3.424   2.223   4.539 -1.3627 -0.4055  0.1325
  216MOL   Cl8443514   3.522   2.118   4.631  0.4092  0.0842 -0.3975
  216MOL    C8543515   3.454   2.264   4.417  0.7118  0.1477  0.7812
  216MOL    C8643516   3.557   2.206   4.328 -0.2023 -0.4278 -0.0309
  216MOL    H8743517   3.267   2.220   4.679 -2.3575  1.5096 -1.8392
  216MOL    H8843518   3.407   2.327   4.721  1.5592  0.1553 -1.1154
  216MOL    H8943519   3.399   2.347   4.375  0.6480 -0.1554  0.2680
  216MOL    H9043520   3.606   2.126   4.384 -1.6079 -1.1004  0.2707
  216MOL    H9143521   3.512   2.167   4.237  2.0617 -0.7001 -1.0759
  216MOL    C9243522   3.661   2.313   4.295  1.0395 -0.2605  0.2573
  216MOL    C9343523   3.768   2.259   4.209 -0.0078 -0.3681  0.4178
  216MOL   Cl9443524   3.929   2.236   4.277  0.4401  0.1227 -0.1301
  216MOL    C9543525   3.747   2.241   4.076 -0.1797  0.5722  0.0257
  216MOL    C9643526   3.623   2.258   3.997 -0.0952 -0.3608  0.5355
  216MOL    H9743527   3.702   2.351   4.388 -0.8516  1.8746  0.2618
  216MOL    H9843528   3.620   2.397   4.239 -0.2286 -1.4649 -0.6744
  216MOL    H9943529   3.838   2.217   4.023  0.6655  1.0516  1.2357
  216MOL   H10043530   3.544   2.297   4.061 -0.9612  0.7171 -1.1506
  216MOL   H10143531   3.638   2.340   3.928  0.1940  0.3679  1.4573
  216MOL   C10243532   3.594   2.130   3.919  0.1577 -0.1671  0.7653
  216MOL   C10343533   3.485   2.157   3.819 -0.1949  1.0712 -0.2016
  216MOL  Cl10443534   3.329   2.104   3.882 -0.2566 -0.0096  0.6317
  216MOL   C10543535   3.503   2.212   3.699 -0.4133 -0.7098 -0.2734
  216MOL   C10643536   3.403   2.231   3.588  0.7242  0.3084 -0.2690
  216MOL   H10743537   3.681   2.101   3.861 -0.0667 -0.1262  0.4081
  216MOL   H10843538   3.566   2.057   3.995 -0.9243 -2.0397 -1.3847
  216MOL   H10943539   3.604   2.250   3.687 -1.1050  1.3112  0.0666
  216MOL   H11043540   3.311   2.180   3.615  0.0324  1.5872 -0.1551
  216MOL   H11143541   3.394   2.338   3.571 -0.3648 -0.1984 -3.3428
  216MOL   C11243542   3.463   2.154   3.471  0.1799 -0.2525 -0.5484
  216MOL   C11343543   3.368   2.149   3.351  0.2769 -0.5254 -0.9032
  216MOL  Cl11443544   3.372   2.299   3.267  0.0245  0.1684  0.0693
  216MOL   C11543545   3.297   2.043   3.314  0.3494  0.3720  0.7046
  216MOL   C11643546   3.287   1.910   3.383 -0.4934 -0.1524  0.0248
  216MOL   H11743547   3.556   2.199   3.434 -1.2752  1.4943 -2.1608
  216MOL   H11843548   3.497   2.055   3.503  0.1162 -0.3077 -0.6534
  216MOL   H11943549   3.241   2.042   3.221 -0.5985 -0.8040  1.2737
  216MOL   H12043550   3.183   1.888   3.410 -0.4240  0.6992  0.9738
  216MOL   H12143551   3.345   1.902   3.474  1.1509 -1.2068 -1.0878
  216MOL   C12243552   3.326   1.799   3.288 -0.2030 -0.2735  0.8475
  216MOL   C12343553   3.369   1.665   3.353 -0.2382  0.2622 -0.6586
  216MOL  Cl12443554   3.234   1.548   3.357  0.0795  0.3404 -0.0001
  216MOL   C12543555   3.493   1.637   3.403  0.2011 -0.0862  0.1712
  216MOL   C12643556   3.621   1.721   3.390  0.6427  0.3841  0.1980
  216MOL   H12743557   3.243   1.779   3.220  0.5484 -2.4002  0.5024
  216MOL   H12843558   3.409   1.838   3.228 -0.8280 -0.1398  0.0538
  216MOL   H12943559   3.507   1.542   3.453 -1.2177 -0.5640 -0.3096
  216MOL   H13043560   3.689   1.689   3.311 -0.0136  0.4261 -0.3819
  216MOL   H13143561   3.600   1.822   3.354  0.9401  0.6356  0.7170
  216MOL   C13243562   3.689   1.728   3.522  0.0592  0.1181 -0.5053
  216MOL   C13343563   3.811   1.814   3.516 -0.0993 -0.2904 -0.0724
  216MOL  Cl13443564   3.778   1.962   3.594  0.1594 -0.0098 -0.2120
  216MOL   C13543565   3.931   1.777   3.463 -0.0398  0.9273  0.1024
  216MOL   C13643566   3.969   1.647   3.407 -0.0052 -0.1006  0.1576
  216MOL   H13743567   3.617   1.786   3.580 -0.7590  0.8700 -2.2502
  216MOL   H13843568   3.731   1.636   3.562 -1.2857 -0.6437 -0.8283
  216MOL   H13943569   4.012   1.849   3.462  0.5550  0.2501 -0.7172
  216MOL   H14043570   3.901   1.566   3.431 -0.7280  0.1107 -1.1437
  216MOL   H14143571   3.984   1.673   3.302  1.1051 -2.1250 -0.2172
  216MOL   C14243572   4.104   1.611   3.463 -1.0633  0.0300  0.0680
  216MOL   C14343573   4.148   1.475   3.417  0.3164  0.1769 -0.5858
  216MOL  Cl14443574   4.197   1.374   3.550 -0.2649 -0.1806 -0.1079
  216MOL   C14543575   4.168   1.438   3.288  0.5408  0.1626 -0.6593
  216MOL   C14643576   4.221   1.306   3.240 -0.3805 -0.5890 -0.8832
  216MOL   H14743577   4.101   1.627   3.571 -1.3382 -0.5098  0.1390
  216MOL   H14843578   4.187   1.673   3.430 -0.5616 -1.2480 -1.0682
  216MOL   H14943579   4.149   1.508   3.208 -1.4716 -0.1823 -0.5161
  216MOL   H15043580   4.228   1.241   3.327  0.1546 -1.6396 -1.6982
  216MOL   H15143581   4.146   1.257   3.178  1.0602  0.0003 -3.1659
  216MOL   C15243582   4.349   1.312   3.168  0.2708 -0.4057  0.1346
  216MOL   C15343583   4.464   1.341   3.261  0.0119  0.2734 -0.3177
  216MOL  Cl15443584   4.534   1.504   3.248  0.0595 -0.4286  0.2569
  216MOL   C15543585   4.512   1.254   3.348  0.2292  0.1919 -0.8795
  216MOL   C15643586   4.631   1.273   3.446  0.5502  0.8650 -0.2290
  216MOL   H15743587   4.365   1.216   3.119  0.7542 -1.4283  2.2639
  216MOL   H15843588   4.341   1.386   3.087  1.2011 -0.3877  0.0474
  216MOL   H15943589   4.469   1.156   3.355  3.0652 -1.0290  0.1098
  216MOL   H16043590   4.668   1.375   3.438  1.4162  0.3686 -2.8382
  216MOL   H16143591   4.711   1.211   3.406 -0.1650 -0.8511  0.9284
  216MOL   C16243592   4.597   1.243   3.597  0.3391 -0.3385 -0.3757
  216MOL   C16343593   4.548   1.096   3.621  0.2776 -0.0037 -0.5094
  216MOL  Cl16443594   4.651   0.972   3.561  0.1514 -0.0602 -0.4048
  216MOL   C16543595   4.435   1.076   3.696 -0.5277  0.3192 -0.1564
  216MOL   C16643596   4.377   0.945   3.752  0.1151  0.6414 -0.1957
  216MOL   H16743597   4.684   1.255   3.662 -0.9049  0.7196  1.1386
  216MOL   H16843598   4.519   1.315   3.623  1.9598  2.2683 -2.5222
  216MOL   H16943599   4.385   1.168   3.724  1.7819  1.0636  1.6481
  216MOL   H17043600   4.428   0.860   3.707 -0.0228 -0.9938  2.6797
  216MOL   H17143601   4.386   0.943   3.860 -0.5837  1.2740 -0.1168
  216MOL   C17243602   4.231   0.922   3.705 -0.5341 -0.8862 -0.1506
  216MOL   C17343603   4.133   1.008   3.787  0.3209  0.1774  1.3574
  216MOL  Cl17443604   4.129   0.962   3.954 -0.1706  0.0466 -0.0830
  216MOL   C17543605   4.058   1.111   3.741  0.0928  0.5526 -0.2653
  216MOL   C17643606   3.977   1.202   3.827  0.3824  0.2313  0.0706
  216MOL   H17743607   4.191   0.822   3.724 -1.7223 -0.1136  1.5184
  216MOL   H17843608   4.228   0.938   3.598  0.4623 -0.4724 -0.1152
  216MOL   H17943609   4.068   1.140   3.637 -0.8456 -1.8184 -1.0333
  216MOL   H18043610   3.921   1.136   3.894  1.3116 -1.0548 -0.4102
  216MOL   H18143611   3.905   1.247   3.759 -0.3171 -1.6752 -0.4984
  216MOL   C18243612   4.043   1.324   3.901 -0.3548 -0.0790  0.0537
  216MOL   C18343613   3.946   1.385   3.993 -0.2648  0.3556  0.0389
  216MOL  Cl18443614   3.814   1.453   3.901  0.1554  0.2979 -0.2151
  216MOL   C18543615   3.961   1.387   4.130  0.0017  0.1757 -0.1022
  216MOL   C18643616   3.866   1.455   4.233  0.3192 -0.0055  0.3544
  216MOL   H18743617   4.139   1.304   3.949  1.1671  3.3582 -1.3293
  216MOL   H18843618   4.062   1.391   3.817 -1.0810  2.1488  1.6064
  216MOL   H18943619   4.047   1.344   4.180  1.0375  1.3144 -0.8754
  216MOL   H19043620   3.930   1.517   4.297 -0.5254  0.3416  0.8766
  216MOL   H19143621   3.805   1.528   4.181  1.8100 -0.3491 -1.9654
  216MOL   C19243622   3.781   1.357   4.314 -0.2857  0.2307 -0.2177
  216MOL   C19343623   3.689   1.429   4.405  0.0777 -0.3209 -0.1631
  216MOL  Cl19443624   3.746   1.426   4.564 -0.0315  0.3346  0.3295
  216MOL   C19543625   3.569   1.486   4.381  0.1165 -0.4088  0.3421
  216MOL   C19643626   3.493   1.476   4.250 -0.6878 -0.2266  0.2039
  216MOL   H19743627   3.851   1.295   4.369  0.1555 -0.6241 -1.7225
  216MOL   H19843628   3.726   1.295   4.243  0.7767  1.8125 -2.4699
  216MOL   H19943629   3.522   1.545   4.458  0.4917  0.5546 -0.1620
  216MOL   H20043630   3.428   1.560   4.226 -0.4171 -0.3745 -1.1298
  216MOL   H20143631   3.431   1.386   4.244 -0.0976 -0.5506 -1.6107
  216MOL   H20243632   3.559   1.473   4.163 -0.1091 -0.9427  0.6676
  217MOL     C143633   7.320   0.436   5.820  0.3874 -0.4705 -0.0321
  217MOL     C243634   7.421   0.552   5.833  0.6475 -0.1615 -0.2725
  217MOL    Cl343635   7.360   0.675   5.938  0.0700 -0.0284 -0.1836
  217MOL     C443636   7.533   0.560   5.767  0.3083 -0.1465 -0.0346
  217MOL     C543637   7.581   0.464   5.660 -0.5831  0.3950 -0.5080
  217MOL     H643638   7.239   0.453   5.891  0.7168 -0.8910  0.4469
  217MOL     H743639   7.358   0.337   5.844 -2.4849 -1.2679  1.3884
  217MOL     H843640   7.595   0.644   5.791 -0.1305 -0.5463  2.5704
  217MOL     H943641   7.505   0.387   5.649 -0.4988  0.5796 -2.5738
  217MOL    H1043642   7.587   0.503   5.558  1.6552  1.1556 -0.1057
  217MOL    H1143643   7.274   0.430   5.722  1.2499 -1.6435 -0.3707
  217MOL    C1243644   7.695   0.379   5.708 -0.4131  1.0136  0.0253
  217MOL    C1343645   7.737   0.278   5.604 -0.4677 -0.2342 -1.2165
  217MOL   Cl1443646   7.659   0.119   5.630  0.1586  0.0634 -0.1347
  217MOL    C1543647   7.836   0.294   5.516 -0.7379 -0.4598 -0.8096
  217MOL    C1643648   7.904   0.425   5.487 -0.3869 -0.4028  0.4442
  217MOL    H1743649   7.780   0.429   5.754 -1.4804  2.5059  0.4227
  217MOL    H1843650   7.656   0.323   5.793  0.7921  0.7394  0.4056
  217MOL    H1943651   7.872   0.211   5.458  1.5246  0.5456 -0.8884
  217MOL    H2043652   7.906   0.506   5.559  0.3420 -1.2012  1.3358
  217MOL    H2143653   8.009   0.395   5.490 -0.5881 -1.3740 -1.3311
  217MOL    C2243654   7.855   0.465   5.348  0.3453 -0.5391 -0.3610
  217MOL    C2343655   7.921   0.593   5.291 -0.4564  0.1504  0.5393
  217MOL   Cl2443656   8.085   0.619   5.331  0.1335  0.0565 -0.0649
  217MOL    C2543657   7.854   0.676   5.204  0.1898  0.1932  0.4508
  217MOL    C2643658   7.923   0.797   5.138 -0.1029 -0.4500 -0.5183
  217MOL    H2743659   7.878   0.384   5.279  1.9359 -1.3441  1.0729
  217MOL    H2843660   7.750   0.491   5.360  0.3576 -0.8303  0.3607
  217MOL    H2943661   7.750   0.653   5.186  0.7309 -3.0284  1.1011
  217MOL    H3043662   7.899   0.881   5.203  1.0855  0.6747 -1.5053
  217MOL    H3143663   8.030   0.776   5.135  0.1441  0.3759  1.9715
  217MOL    C3243664   7.854   0.814   4.998  0.6568 -0.0371  0.2091
  217MOL    C3343665   7.713   0.873   4.985  0.0746  0.0842  0.3327
  217MOL   Cl3443666   7.609   0.772   4.892  0.1285  0.0851  0.0097
  217MOL    C3543667   7.666   0.984   5.043  0.4964  0.4631  0.0158
  217MOL    C3643668   7.522   1.029   5.024  0.4735 -0.1967 -1.1336
  217MOL    H3743669   7.918   0.873   4.933  0.2509 -2.2446 -2.2698
  217MOL    H3843670   7.865   0.713   4.957 -0.0914  0.0245 -0.1703
  217MOL    H3943671   7.739   1.041   5.098  1.1465 -0.7172  0.3816
  217MOL    H4043672   7.513   1.077   4.926 -0.9891  1.4809 -0.2006
  217MOL    H4143673   7.449   0.949   5.020 -1.7626  1.5974  1.8068
  217MOL    C4243674   7.471   1.137   5.118  0.0231  0.2072 -0.4469
  217MOL    C4343675   7.514   1.271   5.079 -0.4637 -0.1342 -1.3714
  217MOL   Cl4443676   7.636   1.333   5.188 -0.3125 -0.1787  0.1219
  217MOL    C4543677   7.461   1.348   4.984 -0.7402  0.7609  0.6698
  217MOL    C4643678   7.348   1.319   4.887 -0.0390 -0.2609 -0.1344
  217MOL    H4743679   7.366   1.128   5.146  1.0519 -0.5946  3.4373
  217MOL    H4843680   7.521   1.119   5.213 -2.2720  0.5046  0.8631
  217MOL    H4943681   7.504   1.446   4.978 -0.7197  0.7294  0.2403
  217MOL    H5043682   7.313   1.218   4.906  0.0159 -0.1121  0.7704
  217MOL    H5143683   7.263   1.381   4.916  0.1875  0.4375 -0.9413
  217MOL    C5243684   7.380   1.325   4.741 -0.4452 -0.1876  0.3232
  217MOL    C5343685   7.271   1.269   4.652 -0.4806  0.5340  0.8058
  217MOL   Cl5443686   7.264   1.098   4.660  0.3912 -0.0396 -0.0047
  217MOL    C5543687   7.186   1.342   4.577 -0.1203  0.5771  0.0774
  217MOL    C5643688   7.081   1.300   4.478 -0.2323 -0.4155  0.4184
  217MOL    H5743689   7.396   1.429   4.713  0.0889 -0.6543 -1.1693
  217MOL    H5843690   7.469   1.267   4.718 -0.2476 -0.0794  0.8309
  217MOL    H5943691   7.185   1.450   4.584 -2.0055  0.6114 -0.4397
  217MOL    H6043692   7.122   1.336   4.383 -0.9687 -0.3423  0.1248
  217MOL    H6143693   7.072   1.193   4.459  1.8697 -0.3267 -1.2410
  217MOL    C6243694   6.939   1.373   4.483  0.2681  0.4202 -0.9304
  217MOL    C6343695   6.892   1.425   4.346 -0.0735 -0.1330 -0.3564
  217MOL   Cl6443696   6.855   1.591   4.348 -0.1230  0.2193  0.3341
  217MOL    C6543697   6.882   1.349   4.232  0.2312  0.4798 -0.0898
  217MOL    C6643698   6.836   1.391   4.100  0.4086 -0.2046 -0.4323
  217MOL    H6743699   6.867   1.307   4.532  0.6802  0.3577 -0.3981
  217MOL    H6843700   6.941   1.459   4.550  3.0546  0.0898 -0.5536
  217MOL    H6943701   6.908   1.245   4.239  1.0118  0.7103  0.5417
  217MOL    H7043702   6.925   1.405   4.038  1.5588  1.8136  1.5642
  217MOL    H7143703   6.791   1.490   4.104 -1.7628 -1.2150  1.4082
  217MOL    C7243704   6.727   1.295   4.040 -0.0036 -0.0230 -0.1832
  217MOL    C7343705   6.693   1.345   3.899 -0.1901  0.4963  0.4023
  217MOL   Cl7443706   6.827   1.336   3.791 -0.1120 -0.1846 -0.1615
  217MOL    C7543707   6.571   1.393   3.870  0.1655  0.1532 -0.4039
  217MOL    C7643708   6.525   1.444   3.742 -0.7184 -0.0844 -0.6479
  217MOL    H7743709   6.642   1.286   4.109  0.5464 -1.1313  0.3605
  217MOL    H7843710   6.785   1.203   4.034 -1.9582 -1.1849 -1.9737
  217MOL    H7943711   6.495   1.384   3.946 -0.5629 -0.9653 -1.2335
  217MOL    H8043712   6.609   1.453   3.673 -0.2758  0.1732 -0.0868
  217MOL    H8143713   6.479   1.539   3.770 -1.0259 -0.6081  0.6592
  217MOL    C8243714   6.418   1.352   3.686 -0.2680  0.0650 -0.5703
  217MOL    C8343715   6.346   1.413   3.567 -0.6303  0.0265  0.4598
  217MOL   Cl8443716   6.176   1.397   3.568  0.0789  0.2604  0.2588
  217MOL    C8543717   6.408   1.456   3.455 -0.0913  0.6258 -0.4000
  217MOL    C8643718   6.335   1.494   3.326 -0.1692  0.0918 -0.0038
  217MOL    H8743719   6.344   1.343   3.766  0.1030 -1.6204 -0.3973
  217MOL    H8843720   6.457   1.252   3.667 -3.2047 -1.5568  1.4294
  217MOL    H8943721   6.516   1.463   3.452  0.1335 -0.8166  2.3708
  217MOL    H9043722   6.230   1.466   3.333 -0.1891 -0.6834 -2.7060
  217MOL    H9143723   6.329   1.602   3.318 -1.4993  0.0082 -0.1746
  217MOL    C9243724   6.393   1.435   3.197  0.1485  0.2497 -0.1433
  217MOL    C9343725   6.295   1.398   3.080  0.0048  0.4334  0.1993
  217MOL   Cl9443726   6.305   1.237   3.030 -0.0110 -0.5017  0.2583
  217MOL    C9543727   6.200   1.471   3.026  0.1731 -0.4430 -0.4097
  217MOL    C9643728   6.161   1.610   3.063 -0.3485 -0.5412 -0.0430
  217MOL    H9743729   6.440   1.339   3.221  0.1844 -0.0231 -1.2613
  217MOL    H9843730   6.476   1.503   3.177 -0.3279  1.4713  1.8571
  217MOL    H9943731   6.139   1.419   2.954  2.9880  0.4678 -3.5618
  217MOL   H10043732   6.084   1.596   3.139  0.0178 -1.1367  0.2209
  217MOL   H10143733   6.237   1.671   3.111 -1.5656  3.1591 -2.5456
  217MOL   C10243734   6.089   1.694   2.954  0.4033  0.3772  0.8262
  217MOL   C10343735   6.041   1.823   3.023 -0.1045 -0.6523  0.3804
  217MOL  Cl10443736   5.866   1.809   3.050  0.0373 -0.1431 -0.0428
  217MOL   C10543737   6.105   1.938   3.040  0.3213  0.7713  0.2766
  217MOL   C10643738   6.045   2.072   3.084  0.0370 -0.2832  0.4455
  217MOL   H10743739   6.158   1.714   2.872 -1.4701  1.3021 -0.5570
  217MOL   H10843740   6.005   1.643   2.907 -0.6051  1.9516  0.8894
  217MOL   H10943741   6.212   1.938   3.025  0.7890 -2.0745  3.1268
  217MOL   H11043742   6.038   2.129   2.992  0.5983 -0.7038  0.1383
  217MOL   H11143743   5.946   2.043   3.118  0.2567 -2.7874 -0.9079
  217MOL   C11243744   6.124   2.136   3.201 -0.3364  0.1396  0.5696
  217MOL   C11343745   6.065   2.264   3.240  0.6447  0.2267  0.2525
  217MOL  Cl11443746   6.097   2.377   3.117 -0.0342 -0.1968  0.2177
  217MOL   C11543747   6.005   2.304   3.357 -0.2346 -0.2080  0.2656
  217MOL   C11643748   5.978   2.209   3.474 -0.5234 -0.3739 -0.2249
  217MOL   H11743749   6.143   2.062   3.279 -1.3271 -0.2859  0.4158
  217MOL   H11843750   6.228   2.149   3.173 -0.7980 -1.4214 -2.0785
  217MOL   H11943751   5.973   2.407   3.358 -0.6653 -0.3496  1.2839
  217MOL   H12043752   6.058   2.218   3.548 -0.8451  0.4202  0.0330
  217MOL   H12143753   5.987   2.108   3.433  1.8442 -0.4919  0.4979
  217MOL   C12243754   5.839   2.216   3.539 -0.5690  0.0480  0.5511
  217MOL   C12343755   5.719   2.227   3.446  0.5070 -0.2998  0.2206
  217MOL  Cl12443756   5.709   2.109   3.320  0.1723 -0.0069 -0.0912
  217MOL   C12543757   5.616   2.311   3.456 -0.4379  0.2431 -0.6554
  217MOL   C12643758   5.614   2.431   3.551  0.3643  0.5116  0.3582
  217MOL   H12743759   5.818   2.137   3.611  0.4110  0.5666  1.4085
  217MOL   H12843760   5.838   2.300   3.608  1.4749 -0.5977  1.3885
  217MOL   H12943761   5.533   2.302   3.387 -0.9042  0.8862 -0.1811
  217MOL   H13043762   5.513   2.460   3.580 -0.9150 -2.0248 -1.3677
  217MOL   H13143763   5.660   2.407   3.647  0.0797 -1.8785 -0.0540
  217MOL   C13243764   5.692   2.554   3.500  0.1232 -0.1523 -0.2900
  217MOL   C13343765   5.775   2.616   3.614  0.3624  0.1756  0.3496
  217MOL  Cl13443766   5.935   2.572   3.584 -0.0049 -0.1454  0.1774
  217MOL   C13543767   5.750   2.703   3.710 -0.2232  0.3844  0.2827
  217MOL   C13643768   5.613   2.756   3.740 -0.0530 -0.3787  0.0550
  217MOL   H13743769   5.746   2.510   3.416 -0.0264 -2.0772  0.5811
  217MOL   H13843770   5.628   2.623   3.445 -0.0503 -0.2809 -0.2486
  217MOL   H13943771   5.826   2.742   3.776  0.8178 -3.0842  1.1816
  217MOL   H14043772   5.626   2.852   3.790  0.5804 -1.3769  1.8486
  217MOL   H14143773   5.552   2.763   3.650 -0.2015  0.6194  0.2290
  217MOL   C14243774   5.541   2.656   3.827  0.5138 -0.1464 -0.2406
  217MOL   C14343775   5.395   2.691   3.856  0.3832  0.1246  0.5199
  217MOL  Cl14443776   5.292   2.622   3.738 -0.0418  0.0225 -0.0541
  217MOL   C14543777   5.351   2.760   3.960  0.2612  0.4003 -0.8810
  217MOL   C14643778   5.211   2.801   3.991  0.4380 -0.4478 -0.1739
  217MOL   H14743779   5.589   2.640   3.924  2.3171  2.7679 -0.5907
  217MOL   H14843780   5.545   2.556   3.785 -2.0595 -0.8198  1.0384
  217MOL   H14943781   5.418   2.793   4.038 -1.1697  0.4412  0.3690
  217MOL   H15043782   5.206   2.910   4.000 -0.8459 -0.4612 -0.6697
  217MOL   H15143783   5.145   2.774   3.909  2.4765 -1.5335 -1.5176
  217MOL   C15243784   5.163   2.729   4.122  0.2455  0.5976 -0.5976
  217MOL   C15343785   5.038   2.786   4.187  0.0575  0.6809 -0.0610
  217MOL  Cl15443786   5.061   2.831   4.356  0.3471 -0.1799 -0.0465
  217MOL   C15543787   4.916   2.782   4.129 -0.5316  0.5305  0.6043
  217MOL   C15643788   4.784   2.818   4.198  0.1849  0.5665  0.3254
  217MOL   H15743789   5.152   2.624   4.095  1.1414  0.2604  0.3275
  217MOL   H15843790   5.245   2.721   4.194 -1.2434 -3.0398  0.7971
  217MOL   H15943791   4.909   2.751   4.026 -2.1462  1.0974  0.5246
  217MOL   H16043792   4.744   2.911   4.158 -0.5663  0.6746  1.3073
  217MOL   H16143793   4.805   2.828   4.305  2.0069 -0.1722  0.0548
  217MOL   C16243794   4.688   2.693   4.181  0.1258  0.4177  0.2750
  217MOL   C16343795   4.541   2.730   4.203 -0.0174  0.2872 -0.3835
  217MOL  Cl16443796   4.441   2.627   4.115 -0.1081 -0.0088 -0.0657
  217MOL   C16543797   4.497   2.821   4.293  0.9004  0.0928 -1.2504
  217MOL   C16643798   4.343   2.837   4.314 -0.7567 -0.4758  0.0298
  217MOL   H16743799   4.693   2.651   4.080 -1.3052  0.2591  0.2562
  217MOL   H16843800   4.728   2.604   4.231  1.6315  0.1081 -1.4278
  217MOL   H16943801   4.556   2.887   4.354 -0.6667 -0.0654  0.4728
  217MOL   H17043802   4.287   2.800   4.228  2.9715 -1.9365 -1.8600
  217MOL   H17143803   4.325   2.763   4.392  0.3920 -0.5308  0.2489
  217MOL   C17243804   4.311   2.981   4.366 -0.0047 -0.4627  0.2615
  217MOL   C17343805   4.172   2.995   4.432 -0.1250 -0.3700 -0.4882
  217MOL  Cl17443806   4.052   2.986   4.305  0.0358 -0.1914 -0.7080
  217MOL   C17543807   4.150   3.018   4.561 -0.6429 -0.3345 -0.4553
  217MOL   C17643808   4.015   3.029   4.610  1.0119 -0.3533 -0.6172
  217MOL   H17743809   4.316   3.050   4.281  0.8738  1.4899  1.8604
  217MOL   H17843810   4.393   3.016   4.429  0.2109 -0.2082 -0.1534
  217MOL   H17943811   4.225   3.030   4.638  1.2336  1.1480 -2.4365
  217MOL   H18043812   4.020   3.010   4.717  0.0450 -1.4463 -0.7583
  217MOL   H18143813   3.957   2.955   4.555  0.1488  1.5337 -2.3031
  217MOL   C18243814   3.956   3.171   4.589  0.2503  0.2589  0.4928
  217MOL   C18343815   3.809   3.163   4.611 -0.2595  0.3884 -0.6717
  217MOL  Cl18443816   3.761   3.265   4.747 -0.0264  0.5629  0.1164
  217MOL   C18543817   3.729   3.083   4.546  0.1016  0.0861 -0.4575
  217MOL   C18643818   3.577   3.076   4.574 -0.2381  0.5890 -0.3205
  217MOL   H18743819   4.007   3.245   4.650  0.0461 -0.4065  1.4780
  217MOL   H18843820   3.987   3.198   4.488  0.6960 -1.3830  0.1782
  217MOL   H18943821   3.771   3.018   4.472  1.2364  0.2339  0.0422
  217MOL   H19043822   3.550   2.972   4.590  2.9809 -0.2885 -0.1171
  217MOL   H19143823   3.546   3.119   4.670 -2.6928  2.7968 -2.0631
  217MOL   C19243824   3.512   3.124   4.444 -0.4322 -0.3168 -0.1246
  217MOL   C19343825   3.357   3.104   4.448 -0.6741  0.1098  0.0102
  217MOL  Cl19443826   3.286   3.221   4.552  0.1949 -0.2910 -0.0830
  217MOL   C19543827   3.283   3.023   4.366  0.4264  0.7443 -0.1681
  217MOL   C19643828   3.346   2.934   4.256  0.0447  0.1574  0.1318
  217MOL   H19743829   3.554   3.083   4.352  0.9593 -0.2352  0.4544
  217MOL   H19843830   3.536   3.230   4.431 -0.8958 -0.1264  0.5638
  217MOL   H19943831   3.175   3.030   4.362  0.4071  1.6949  1.6615
  217MOL   H20043832   3.280   2.848   4.247 -0.0766  0.2815 -0.1878
  217MOL   H20143833   3.446   2.904   4.286 -0.4173 -0.8764  0.6295
  217MOL   H20243834   3.338   2.977   4.156  0.1205  0.3037  0.1886
  218MOL     C143835   6.478   8.161   6.454 -0.0465  0.2551  0.3437
  218MOL     C243836   6.560   8.159   6.331 -0.6138  0.7204 -0.1359
  218MOL    Cl343837   6.570   7.996   6.265  0.1009  0.0082 -0.1222
  218MOL     C443838   6.627   8.256   6.273  0.4496  0.1722 -0.0739
  218MOL     C543839   6.626   8.406   6.303 -0.3788  0.2908 -0.8291
  218MOL     H643840   6.544   8.201   6.532 -0.6493  1.3568  0.2934
  218MOL     H743841   6.448   8.059   6.480  5.0730 -1.1541  1.4549
  218MOL     H843842   6.688   8.224   6.190 -0.8126  0.3829 -1.0822
  218MOL     H943843   6.617   0.010   6.409  1.0269  2.4446 -1.1766
  218MOL    H1043844   6.717   0.029   6.262  0.9009 -0.6076  1.0255
  218MOL    H1143845   6.395   8.231   6.459 -1.4510 -1.2887 -1.0879
  218MOL    C1243846   6.506   0.053   6.235 -0.2255 -1.2555  0.6441
  218MOL    C1343847   6.519   0.033   6.084  0.4798 -0.1759 -0.0725
  218MOL   Cl1443848   6.623   0.145   6.007 -0.2326 -0.0745 -0.5138
  218MOL    C1543849   6.449   8.364   6.008 -0.3803  0.4310 -0.5700
  218MOL    C1643850   6.340   8.275   6.063  0.5097 -0.3952 -0.2606
  218MOL    H1743851   6.406   0.024   6.267 -0.7939 -1.2509 -1.1121
  218MOL    H1843852   6.510   0.159   6.257  1.4130 -1.5574  1.9190
  218MOL    H1943853   6.466   8.354   5.902 -1.2407  0.2844 -0.7048
  218MOL    H2043854   6.382   8.195   6.123 -0.8587  0.3203  1.7046
  218MOL    H2143855   6.277   8.321   6.140 -0.5546  0.1882 -1.4720
  218MOL    C2243856   6.265   8.220   5.945  0.5570  0.3982  0.9170
  218MOL    C2343857   6.138   8.151   6.002  0.2418 -0.3024  0.2276
  218MOL   Cl2443858   6.151   7.983   5.988  0.1729  0.4473  0.2767
  218MOL    C2543859   6.022   8.215   6.035 -0.4139  0.2318 -0.2893
  218MOL    C2643860   5.896   8.136   6.078 -0.3002  0.1011 -0.3678
  218MOL    H2743861   6.233   8.284   5.863 -3.8382 -0.7408  1.6331
  218MOL    H2843862   6.324   8.140   5.901  1.8359  0.6446  2.1376
  218MOL    H2943863   6.017   8.322   6.024 -0.7946  0.1062 -1.3707
  218MOL    H3043864   5.806   8.194   6.059  0.1310  0.4568 -1.4023
  218MOL    H3143865   5.894   8.051   6.009  0.2061 -0.0264 -0.2230
  218MOL    C3243866   5.899   8.092   6.223 -0.2085 -0.3566 -0.4018
  218MOL    C3343867   5.817   7.966   6.245 -0.0442  0.4161  0.5020
  218MOL   Cl3443868   5.908   7.820   6.193 -0.2950  0.1075  0.3208
  218MOL    C3543869   5.692   7.956   6.290  0.0398 -0.2531 -0.3132
  218MOL    C3643870   5.611   7.829   6.307 -0.5893 -0.3039 -0.1851
  218MOL    H3743871   5.999   8.065   6.258 -0.2118 -1.1268 -0.9670
  218MOL    H3843872   5.866   8.174   6.286  2.1165  1.0347 -0.9330
  218MOL    H3943873   5.633   8.039   6.328 -2.8772 -2.1930 -0.4324
  218MOL    H4043874   5.508   7.849   6.279 -1.0466  2.8315  3.2540
  218MOL    H4143875   5.649   7.755   6.238 -0.2015  1.5225 -1.9637
  218MOL    C4243876   5.633   7.776   6.454 -0.8002  0.8933 -0.3251
  218MOL    C4343877   5.538   7.669   6.505  0.0790 -0.5999  0.3859
  218MOL   Cl4443878   5.399   7.649   6.405  0.1035  0.2677  0.3346
  218MOL    C4543879   5.554   7.586   6.605 -0.7462  0.1879 -0.2123
  218MOL    C4643880   5.686   7.562   6.686 -0.2596  0.2379  0.2161
  218MOL    H4743881   5.728   7.724   6.452 -1.1131  0.3481 -0.9919
  218MOL    H4843882   5.647   7.849   6.535 -1.6657  0.6080  0.0906
  218MOL    H4943883   5.470   7.519   6.621  0.4449 -1.3537 -0.3289
  218MOL    H5043884   5.739   7.477   6.644 -0.7722 -0.1551  0.3574
  218MOL    H5143885   5.753   7.647   6.686 -2.2499  1.8452  0.7635
  218MOL    C5243886   5.644   7.536   6.830  0.2629  0.0482  0.6577
  218MOL    C5343887   5.757   7.540   6.928 -0.7419  0.3768  0.0766
  218MOL   Cl5443888   5.746   7.661   7.053  0.0798 -0.2508  0.0607
  218MOL    C5543889   5.867   7.466   6.913 -0.1287  0.2277 -0.0140
  218MOL    C5643890   5.998   7.472   6.991  0.6407 -0.2788 -0.0017
  218MOL    H5743891   5.583   7.621   6.860  0.3378  0.3871 -0.1490
  218MOL    H5843892   5.593   7.440   6.834  1.4668 -0.5898  1.1909
  218MOL    H5943893   5.860   7.394   6.833  0.9736 -0.5232  0.5505
  218MOL    H6043894   5.990   7.540   7.076 -1.3534 -1.2474  0.6121
  218MOL    H6143895   6.021   7.373   7.029  0.3443 -0.8523 -1.2615
  218MOL    C6243896   6.108   7.505   6.902 -0.7477 -0.0013  0.5832
  218MOL    C6343897   6.110   7.648   6.849 -0.1048  0.4882 -0.3877
  218MOL   Cl6443898   6.193   7.755   6.962  0.0100  0.0947 -0.0859
  218MOL    C6543899   6.070   7.691   6.724 -0.0246 -0.2053 -0.1184
  218MOL    C6643900   6.072   7.832   6.682  0.4644  0.1633 -0.4591
  218MOL    H6743901   6.207   7.479   6.940 -1.2353  0.4949  2.2087
  218MOL    H6843902   6.087   7.434   6.822  0.3130  0.8469 -0.4676
  218MOL    H6943903   6.029   7.621   6.652  0.6447 -1.7740  0.9973
  218MOL    H7043904   6.156   7.842   6.613  1.1338  1.1813  0.4921
  218MOL    H7143905   6.100   7.891   6.769  0.7495 -0.4223 -0.1501
  218MOL    C7243906   5.932   7.875   6.620  0.4658 -0.5362  0.2749
  218MOL    C7343907   5.909   8.025   6.616 -0.2614 -0.0306 -0.9259
  218MOL   Cl7443908   5.752   8.072   6.676  0.4761 -0.2241 -0.5289
  218MOL    C7543909   5.998   8.113   6.572  0.2093 -0.1604 -0.2765
  218MOL    C7643910   5.988   8.270   6.576 -0.0065 -0.1445  0.0410
  218MOL    H7743911   5.852   7.844   6.688  0.3711 -0.2041  0.3174
  218MOL    H7843912   5.916   7.825   6.525  2.6823 -0.4695 -0.1496
  218MOL    H7943913   6.095   8.083   6.533  0.9674  1.0457  0.6357
  218MOL    H8043914   6.054   8.292   6.660  0.6627 -0.5766 -0.3623
  218MOL    H8143915   5.888   8.307   6.597 -0.2044 -0.6469 -0.0077
  218MOL    C8243916   6.052   8.346   6.458 -0.5609 -0.1337  0.1054
  218MOL    C8343917   6.078   0.075   6.490 -0.0095 -0.0324  0.0800
  218MOL   Cl8443918   5.944   0.182   6.471 -0.1027 -0.5715  0.1306
  218MOL    C8543919   6.199   0.113   6.545 -0.4444  0.4683 -0.1999
  218MOL    C8643920   6.247   0.253   6.595  0.0228  0.7550  0.1902
  218MOL    H8743921   5.994   8.330   6.367 -3.2257  2.4584  1.2510
  218MOL    H8843922   6.149   8.304   6.435 -0.4907 -1.0490  1.9854
  218MOL    H8943923   6.271   0.034   6.559  0.3798  0.8839 -1.9752
  218MOL    H9043924   6.166   0.324   6.583  0.4892  1.3062  0.2698
  218MOL    H9143925   6.265   0.245   6.702 -1.4974  1.6767  0.5273
  218MOL    C9243926   6.355   0.319   6.512  0.3970  0.0469 -0.0612
  218MOL    C9343927   6.395   0.455   6.559  0.0287  0.1736 -0.0895
  218MOL   Cl9443928   6.369   0.583   6.451 -0.2381 -0.1676 -0.1807
  218MOL    C9543929   6.476   0.476   6.666  0.1612  0.4337 -1.1116
  218MOL    C9643930   6.523   0.369   6.771 -0.0945 -0.4238  0.1289
  218MOL    H9743931   6.323   0.329   6.408  1.3429  0.4204 -0.3180
  218MOL    H9843932   6.440   0.252   6.518 -0.5811 -1.2363 -0.3577
  218MOL    H9943933   6.510   0.577   6.682 -1.2130  0.2995  3.4490
  218MOL   H10043934   6.463   0.399   6.856 -1.1604 -0.6673 -0.5275
  218MOL   H10143935   6.493   0.267   6.746  0.5447  0.2642 -3.8917
  218MOL   C10243936   6.673   0.387   6.779 -0.3508  0.1406 -0.2944
  218MOL   C10343937   6.717   0.308   6.898  0.2937 -0.2426 -0.0341
  218MOL  Cl10443938   6.714   0.415   7.034 -0.6013 -0.2916 -0.4003
  218MOL   C10543939   6.771   0.179   6.902  0.2280  0.3426  0.2495
  218MOL   C10643940   6.822   0.110   7.023 -0.6812  0.3060  0.1708
  218MOL   H10743941   6.734   0.361   6.692 -1.3872  4.0800 -2.3184
  218MOL   H10843942   6.708   0.489   6.793 -0.5482  0.1393  0.2193
  218MOL   H10943943   6.780   0.119   6.813 -1.7909 -0.7056  0.7166
  218MOL   H11043944   6.898   0.048   6.975 -1.7939 -0.7815 -0.2139
  218MOL   H11143945   6.880   0.173   7.089  1.4132 -0.5735 -0.7619
  218MOL   C11243946   6.714   0.017   7.089  0.0066  1.0279 -0.2578
  218MOL   C11343947   6.768   8.373   7.215 -0.1695  0.0905  0.0146
  218MOL  Cl11443948   6.872   8.240   7.182 -0.5309 -0.1148 -0.4586
  218MOL   C11543949   6.742   8.407   7.343  0.7754  0.7377 -0.2945
  218MOL   C11643950   6.656   0.103   7.390 -0.0338 -0.0472  0.0382
  218MOL   H11743951   6.632   0.079   7.126  1.2564  2.4336  0.2092
  218MOL   H11843952   6.675   8.372   7.012 -0.3188  1.3882 -0.4033
  218MOL   H11943953   6.779   8.346   7.425  2.7857  0.2838 -1.4905
  218MOL   H12043954   6.592   0.056   7.465  2.3045 -2.6669  0.4563
  218MOL   H12143955   6.595   0.146   7.310 -0.3893  0.8415  0.7633
  218MOL   C12243956   6.746   0.213   7.463 -0.2348  0.3122  0.0725
  218MOL   C12343957   6.669   0.309   7.555 -0.4191  0.3257 -0.3523
  218MOL  Cl12443958   6.650   0.470   7.483 -0.0642  0.2847 -0.4688
  218MOL   C12543959   6.608   0.282   7.675 -0.6495  0.3404 -0.2817
  218MOL   C12643960   6.618   0.146   7.748 -0.3046  0.4245  0.2603
  218MOL   H12743961   6.808   0.158   7.535  0.7815  0.0148 -1.0159
  218MOL   H12843962   6.807   0.262   7.387  1.0744 -0.3614  0.6653
  218MOL   H12943963   6.556   0.361   7.729  1.4409 -0.5085  3.1637
  218MOL   H13043964   6.664   0.065   7.690  0.1859  1.2594 -0.5262
  218MOL   H13143965   6.687   0.166   7.829  1.0186  2.4991 -1.3317
  218MOL   C13243966   6.477   0.098   7.790 -0.2076  0.4771 -0.2871
  218MOL   C13343967   6.478   8.388   7.866  1.0666 -0.7962  0.0151
  218MOL  Cl13443968   6.451   8.415   8.034  0.0965 -0.0606 -0.0471
  218MOL   C13543969   6.498   8.267   7.823 -0.7389  0.6428 -0.0614
  218MOL   C13643970   6.534   8.225   7.675  1.0251  0.1553 -0.2815
  218MOL   H13743971   6.424   0.174   7.847 -3.2262 -2.7014  1.2942
  218MOL   H13843972   6.409   0.094   7.705  1.7922 -0.0092 -1.8955
  218MOL   H13943973   6.498   8.188   7.896  0.0676  1.6284  1.0114
  218MOL   H14043974   6.569   8.311   7.617  0.5722 -0.8318 -2.0814
  218MOL   H14143975   6.614   8.153   7.664  1.7793  0.8899  0.3424
  218MOL   C14243976   6.398   8.178   7.608 -0.1305 -0.1714 -0.7015
  218MOL   C14343977   6.392   8.192   7.467 -0.1786 -0.0312  0.0675
  218MOL  Cl14443978   6.346   8.344   7.417  0.2461  0.0974 -0.1566
  218MOL   C14543979   6.400   8.084   7.383  0.1564 -0.4030  0.2774
  218MOL   C14643980   6.387   8.081   7.233  0.4627  0.1358 -0.3368
  218MOL   H14743981   6.311   8.233   7.645 -0.7271  1.0735 -3.7704
  218MOL   H14843982   6.360   8.082   7.642 -1.1099 -0.0187 -1.3259
  218MOL   H14943983   6.419   7.990   7.433 -1.1999 -0.7907  0.0781
  218MOL   H15043984   6.290   8.040   7.207  0.6647 -1.1120  0.8818
  218MOL   H15143985   6.397   8.181   7.189 -0.1557 -1.2281 -3.7122
  218MOL   C15243986   6.492   7.988   7.183 -0.2229  0.3630  0.5380
  218MOL   C15343987   6.507   7.999   7.033  0.1302  0.4437 -0.3324
  218MOL  Cl15443988   6.672   8.005   6.985  0.2618 -0.2970  0.4650
  218MOL   C15543989   6.409   8.037   6.951  0.6356 -0.0177  0.2745
  218MOL   C15643990   6.413   8.077   6.802  0.1149 -0.2620 -0.4794
  218MOL   H15743991   6.586   8.018   7.230 -0.6166  1.0089  0.9319
  218MOL   H15843992   6.471   7.883   7.200 -2.2007  1.0116  2.3896
  218MOL   H15943993   6.311   8.042   6.997  0.9269  0.6168  0.8387
  218MOL   H16043994   6.384   7.995   6.736 -0.7991 -0.9472  0.7464
  218MOL   H16143995   6.518   8.090   6.779  0.0010  0.0996 -0.7901
  218MOL   C16243996   6.322   8.191   6.768 -0.2561 -0.5439  0.4344
  218MOL   C16343997   6.357   8.327   6.836  0.0566  0.5417 -0.3177
  218MOL  Cl16443998   6.488   8.405   6.752  0.1312 -0.1428  0.3071
  218MOL   C16543999   6.309   8.368   6.953 -0.0896  0.2379  0.1399
  218MOL   C16644000   6.356   0.075   7.019  0.5414 -0.4045  0.3865
  218MOL   H16744001   6.314   8.212   6.661 -1.4444 -0.1042  0.6065
  218MOL   H16844002   6.220   8.162   6.791 -0.1811 -1.6666 -0.5855
  218MOL   H16944003   6.237   8.307   7.004  0.4426 -1.7032 -1.3464
  218MOL   H17044004   6.414   0.037   7.103 -0.1932 -2.4369  0.0126
  218MOL   H17144005   6.417   0.137   6.954  1.9721 -2.3934 -0.2261
  218MOL   C17244006   6.238   0.137   7.103 -0.1912  0.7315  0.0337
  218MOL   C17344007   6.290   0.228   7.218 -0.0516  0.0321  0.7974
  218MOL  Cl17444008   6.422   0.321   7.164 -0.6827 -0.5751  0.3415
  218MOL   C17544009   6.255   0.211   7.347 -0.2742  0.0619 -0.0025
  218MOL   C17644010   6.316   0.289   7.461  0.3618 -0.2582 -0.7649
  218MOL   H17744011   6.179   0.058   7.149 -2.0692  1.6114 -0.7931
  218MOL   H17844012   6.177   0.204   7.042  0.0382 -0.8053 -1.9329
  218MOL   H17944013   6.174   0.145   7.373 -1.2933  0.7039 -1.4757
  218MOL   H18044014   6.418   0.321   7.439  0.3104 -1.0972 -2.3708
  218MOL   H18144015   6.316   0.226   7.550  2.5518 -0.5823 -0.9569
  218MOL   C18244016   6.229   0.410   7.506 -0.7768  0.0064  0.2167
  218MOL   C18344017   6.295   0.482   7.628 -0.1146  0.3017 -0.0379
  218MOL  Cl18444018   6.269   0.391   7.770  0.1153  0.4286  0.5535
  218MOL   C18544019   6.339   0.609   7.631 -0.0464 -0.0305 -0.1095
  218MOL   C18644020   6.399   0.680   7.752 -0.0100 -0.7011  0.0541
  218MOL   H18744021   6.220   0.487   7.430  0.7216 -1.0458 -1.0604
  218MOL   H18844022   6.132   0.370   7.536  0.1208 -2.3822  0.0329
  218MOL   H18944023   6.341   0.669   7.542 -0.1728  0.0635 -0.0476
  218MOL   H19044024   6.393   0.617   7.841  0.8819  0.5826  1.0394
  218MOL   H19144025   6.502   0.706   7.732  0.2535 -1.7226  0.0471
  218MOL   C19244026   6.316   0.808   7.780 -0.6045  0.8337  0.1570
  218MOL   C19344027   6.351   0.887   7.902  0.0986 -0.2076  0.3128
  218MOL  Cl19444028   6.484   0.990   7.878  0.1676  0.3139  0.0174
  218MOL   C19544029   6.299   0.874   8.024 -0.6682  0.2179 -0.3157
  218MOL   C19644030   6.197   0.768   8.065  0.2877  0.4904 -0.2748
  218MOL   H19744031   6.211   0.785   7.795 -1.0819  1.4305 -2.0991
  218MOL   H19844032   6.314   0.872   7.692 -1.9886  1.2136  0.4507
  218MOL   H19944033   6.334   0.934   8.107 -0.1597 -1.4974  0.7517
  218MOL   H20044034   6.192   0.687   7.994 -1.0496  0.1109  0.2262
  218MOL   H20144035   6.092   0.800   8.070  1.0209  3.3107 -1.6738
  218MOL   H20244036   6.227   0.724   8.160  2.9413 -2.1558 -2.2729
  219MOL     C144037   7.130   1.126   7.157 -0.4838  0.5255 -0.8747
  219MOL     C244038   7.267   1.063   7.165 -0.0684 -0.5769 -0.5055
  219MOL    Cl344039   7.312   1.068   7.334 -0.1229 -0.1052  0.0727
  219MOL     C444040   7.334   1.000   7.068  0.6099  0.1825  0.1308
  219MOL     C544041   7.281   0.987   6.926 -0.3180  0.4544 -0.8577
  219MOL     H644042   7.053   1.052   7.134 -2.4147  2.7998 -2.0378
  219MOL     H744043   7.127   1.204   7.081 -1.2320  1.5105  0.1454
  219MOL     H844044   7.429   0.959   7.099  1.1906  0.9399 -0.6254
  219MOL     H944045   7.256   0.882   6.910 -1.3622  0.3843  0.9953
  219MOL    H1044046   7.185   1.037   6.910  0.4117  2.0086 -0.4217
  219MOL    H1144047   7.112   1.167   7.257 -0.1580 -1.2290 -0.0709
  219MOL    C1244048   7.375   1.056   6.821  0.1402 -0.7814 -0.0095
  219MOL    C1344049   7.507   0.982   6.814  0.0173 -0.5440 -0.3463
  219MOL   Cl1444050   7.487   0.816   6.781 -0.1962  0.0689  0.1490
  219MOL    C1544051   7.628   1.039   6.831 -0.5279  0.4863  0.1520
  219MOL    C1644052   7.656   1.186   6.841  0.1900  0.0386 -0.2190
  219MOL    H1744053   7.330   1.052   6.722  0.5726 -0.1565 -0.2330
  219MOL    H1844054   7.386   1.159   6.853  1.0522 -1.3036  1.4113
  219MOL    H1944055   7.719   0.982   6.823  0.3174  1.7898  0.2384
  219MOL    H2044056   7.757   1.205   6.805  0.8006 -1.0759  0.8956
  219MOL    H2144057   7.578   1.224   6.775  1.1913 -0.9986 -2.0431
  219MOL    C2244058   7.633   1.242   6.984 -0.1330  0.4801  0.7430
  219MOL    C2344059   7.648   1.388   7.000 -0.3684 -0.6051  0.0412
  219MOL   Cl2444060   7.578   1.468   6.875  0.2249  0.2225 -0.1774
  219MOL    C2544061   7.698   1.458   7.099  1.0746 -0.1358  0.2481
  219MOL    C2644062   7.714   1.613   7.096  0.4584  0.8640  0.1084
  219MOL    H2744063   7.532   1.219   7.020  0.0699 -0.5989  0.6380
  219MOL    H2844064   7.699   1.181   7.046  2.5538  0.6885 -1.8128
  219MOL    H2944065   7.730   1.401   7.185 -0.2458 -1.2302  0.0400
  219MOL    H3044066   7.802   1.639   7.037  0.3199 -0.5827 -0.7585
  219MOL    H3144067   7.617   1.646   7.056 -0.3376 -0.5590  0.8237
  219MOL    C3244068   7.733   1.657   7.240 -0.0221  0.3312  0.4961
  219MOL    C3344069   7.746   1.810   7.265 -1.5136  0.2544  0.2538
  219MOL   Cl3444070   7.593   1.883   7.272 -0.3352 -0.1088 -0.0999
  219MOL    C3544071   7.862   1.873   7.292 -0.0847  0.0532  0.5432
  219MOL    C3644072   7.893   2.019   7.325 -1.0359 -0.3246 -0.0033
  219MOL    H3744073   7.657   1.625   7.311 -1.1343  1.2878 -0.2494
  219MOL    H3844074   7.823   1.601   7.264 -2.0136 -3.7469 -1.0228
  219MOL    H3944075   7.949   1.809   7.297 -1.5280 -1.9369  0.6632
  219MOL    H4044076   7.808   2.087   7.326  1.1709  2.5248  1.5342
  219MOL    H4144077   7.942   2.022   7.422 -2.0358 -0.9292  0.5373
  219MOL    C4244078   7.996   2.081   7.230  0.0263 -0.0988  0.0359
  219MOL    C4344079   7.980   2.226   7.206  0.0559 -0.0286  0.7682
  219MOL   Cl4444080   8.056   2.328   7.324 -0.1776 -0.1569  0.1967
  219MOL    C4544081   7.920   2.284   7.101  0.1109  0.4026 -0.6378
  219MOL    C4644082   7.846   2.219   6.986 -0.2565  0.4967  0.0956
  219MOL    H4744083   8.098   2.073   7.269 -0.4831 -2.6228  0.9427
  219MOL    H4844084   7.999   2.030   7.134 -0.3315 -0.9035  0.4427
  219MOL    H4944085   7.922   2.392   7.103  4.3654  0.4015 -1.8589
  219MOL    H5044086   7.890   2.255   6.893  0.4448  2.0171  0.9861
  219MOL    H5144087   7.857   2.111   6.990 -1.8310  0.2752 -1.1931
  219MOL    C5244088   7.692   2.255   6.988 -0.1102 -0.7356 -0.2212
  219MOL    C5344089   7.622   2.177   6.886  0.0877 -0.5563  0.0990
  219MOL   Cl5444090   7.602   2.267   6.735 -0.0066  0.0811  0.3040
  219MOL    C5544091   7.593   2.043   6.903 -0.0143  0.0899 -0.2933
  219MOL    C5644092   7.534   1.941   6.805  0.7033 -0.4527 -0.6830
  219MOL    H5744093   7.644   2.229   7.082  0.1641  1.2087  0.4951
  219MOL    H5844094   7.659   2.358   6.976 -1.6086 -1.3463 -1.5482
  219MOL    H5944095   7.611   2.001   7.001  0.0548 -1.3168 -0.8996
  219MOL    H6044096   7.450   1.899   6.860  1.1368  0.6557  0.8580
  219MOL    H6144097   7.494   1.995   6.719 -1.7350  0.3955  0.9429
  219MOL    C6244098   7.634   1.834   6.749 -0.5186 -0.0025  0.0047
  219MOL    C6344099   7.579   1.742   6.644  0.3279 -0.4255  0.1625
  219MOL   Cl6444100   7.701   1.684   6.533  0.2618 -0.3538 -0.1676
  219MOL    C6544101   7.447   1.723   6.621  0.0263 -0.1052  0.6579
  219MOL    C6644102   7.396   1.638   6.513  1.0559 -0.6391 -0.0792
  219MOL    H6744103   7.717   1.886   6.702 -0.3208 -1.3505 -1.1622
  219MOL    H6844104   7.670   1.776   6.834 -2.5772  0.8420  1.5093
  219MOL    H6944105   7.375   1.755   6.695  1.1344  1.5827  1.0306
  219MOL    H7044106   7.294   1.606   6.535  0.5450  1.4076  0.6729
  219MOL    H7144107   7.447   1.542   6.520  3.8415  0.9371  2.6012
  219MOL    C7244108   7.390   1.702   6.370  0.2468 -0.5744 -0.2363
  219MOL    C7344109   7.355   1.615   6.259  1.0553 -0.5274  0.4736
  219MOL   Cl7444110   7.367   1.703   6.113  0.0516 -0.2948  0.1540
  219MOL    C7544111   7.336   1.481   6.263 -0.0478  0.6527 -0.3323
  219MOL    C7644112   7.299   1.395   6.147  0.7049  0.2105  0.6119
  219MOL    H7744113   7.484   1.752   6.347  1.1783 -1.2903  1.8993
  219MOL    H7844114   7.327   1.791   6.370  1.1478  0.1027 -2.3422
  219MOL    H7944115   7.341   1.428   6.357 -0.6081  4.3733  1.9181
  219MOL    H8044116   7.354   1.302   6.156 -0.5637 -0.7032 -0.8460
  219MOL    H8144117   7.338   1.432   6.053 -2.4877 -2.0658 -1.7237
  219MOL    C8244118   7.146   1.362   6.130 -1.2046 -0.0441  0.0449
  219MOL    C8344119   7.118   1.259   6.025 -0.2481  0.5796  0.4984
  219MOL   Cl8444120   6.950   1.241   5.989  0.0870 -0.0120 -0.2478
  219MOL    C8544121   7.203   1.184   5.950 -0.7066 -0.3736  0.7190
  219MOL    C8644122   7.161   1.091   5.836  0.3222 -0.3399 -0.3571
  219MOL    H8744123   7.105   1.459   6.101  0.7219  1.1701  1.2387
  219MOL    H8844124   7.101   1.326   6.223 -0.3733 -0.3013  0.3558
  219MOL    H8944125   7.310   1.177   5.964 -0.4141  1.7402 -0.2092
  219MOL    H9044126   7.229   1.005   5.834 -2.6278 -2.8333  1.9266
  219MOL    H9144127   7.067   1.046   5.868  0.3764  0.4133  0.9215
  219MOL    C9244128   7.163   1.160   5.697  0.4304 -0.4016 -0.4185
  219MOL    C9344129   7.098   1.077   5.592 -0.1255 -0.2697 -0.3051
  219MOL   Cl9444130   6.927   1.088   5.605  0.3941 -0.2640 -0.0061
  219MOL    C9544131   7.160   1.005   5.499 -0.5630 -0.2541  0.2207
  219MOL    C9644132   7.306   0.995   5.473  0.4815 -0.5339 -0.4627
  219MOL    H9744133   7.265   1.189   5.672 -0.1373  1.0233 -1.1240
  219MOL    H9844134   7.116   1.258   5.704  0.4382 -0.2771 -1.9894
  219MOL    H9944135   7.097   0.949   5.431  0.8286 -1.6801  0.0683
  219MOL   H10044136   7.320   1.027   5.369  0.0704  1.2101 -0.0054
  219MOL   H10144137   7.375   1.048   5.539 -0.0036 -0.7334  0.2033
  219MOL   C10244138   7.348   0.847   5.493  0.6659 -0.4030 -0.0980
  219MOL   C10344139   7.493   0.819   5.459 -0.6845 -0.2927  0.5624
  219MOL  Cl10444140   7.507   0.781   5.295 -0.6262  0.1730 -0.3031
  219MOL   C10544141   7.590   0.811   5.551 -0.1284 -0.7379  0.1465
  219MOL   C10644142   7.740   0.779   5.529  0.2232  0.1638 -0.2819
  219MOL   H10744143   7.330   0.806   5.592  0.1141  3.0817  1.3445
  219MOL   H10844144   7.285   0.798   5.419  0.1802  1.0164 -0.6426
  219MOL   H10944145   7.568   0.827   5.656 -0.1321  0.5132 -0.0393
  219MOL   H11044146   7.769   0.682   5.568  0.0953  0.3498  0.2838
  219MOL   H11144147   7.740   0.777   5.420 -0.5470 -0.9487 -0.2679
  219MOL   C11244148   7.818   0.890   5.607  0.7498  0.1636  0.1408
  219MOL   C11344149   7.961   0.869   5.607  0.3673 -0.0231 -0.7226
  219MOL  Cl11444150   8.015   0.733   5.703 -0.1592  0.1702 -0.3908
  219MOL   C11544151   8.052   0.946   5.544  0.4291 -1.1002  0.0927
  219MOL   C11644152   8.026   1.063   5.451 -0.5272  0.1220  0.3651
  219MOL   H11744153   7.778   0.985   5.569 -0.6294  0.2668  1.7910
  219MOL   H11844154   7.775   0.896   5.707  0.0621  2.9355 -0.2743
  219MOL   H11944155   8.158   0.926   5.555  1.3700  1.6328 -2.9816
  219MOL   H12044156   7.930   1.105   5.482 -0.0654  1.2578  0.2834
  219MOL   H12144157   8.017   1.034   5.347  0.1388  1.4495 -0.0804
  219MOL   C12244158   8.120   1.182   5.467  0.5114 -0.1396  0.2675
  219MOL   C12344159   8.068   1.312   5.411  0.4418  0.0833  0.0850
  219MOL  Cl12444160   8.037   1.296   5.237 -0.0774 -0.3377 -0.2427
  219MOL   C12544161   8.013   1.417   5.476  0.1441  0.7108 -0.3959
  219MOL   C12644162   8.016   1.444   5.624  0.6137 -0.2510 -0.3592
  219MOL   H12744163   8.160   1.192   5.568 -0.2626 -0.3858  0.5985
  219MOL   H12844164   8.219   1.166   5.423  0.5211  2.7622 -0.9069
  219MOL   H12944165   7.960   1.489   5.415  0.0334  2.1778  1.4155
  219MOL   H13044166   7.915   1.442   5.667  1.3997 -0.8316  1.5445
  219MOL   H13144167   8.068   1.361   5.673  2.9517  0.7198 -1.1862
  219MOL   C13244168   8.072   1.588   5.650  0.1222 -0.5656  0.0723
  219MOL   C13344169   8.224   1.599   5.624  0.2096  0.0711  0.5241
  219MOL  Cl13444170   8.319   1.488   5.716 -0.1927  0.2253 -0.1563
  219MOL   C13544171   8.283   1.712   5.570 -0.5581  0.3460 -0.8742
  219MOL   C13644172   8.218   1.830   5.499  0.0577 -0.6794 -0.1917
  219MOL   H13744173   8.012   1.651   5.585 -3.0730 -1.3304  2.1870
  219MOL   H13844174   8.051   1.620   5.752  0.8189 -2.8201  0.9735
  219MOL   H13944175   8.391   1.712   5.570 -0.5479 -1.0148 -0.0843
  219MOL   H14044176   8.276   1.836   5.407  1.4877  2.8815  0.8797
  219MOL   H14144177   8.112   1.810   5.482 -0.2569  0.4873  0.3091
  219MOL   C14244178   8.237   1.964   5.572 -0.6890  0.1102  0.0555
  219MOL   C14344179   8.182   2.088   5.512  0.3960  0.2319  0.1863
  219MOL  Cl14444180   8.298   2.187   5.441 -0.0862 -0.4801 -0.0448
  219MOL   C14544181   8.056   2.133   5.514  0.0886  0.6014 -0.6163
  219MOL   C14644182   8.001   2.269   5.479 -0.4167 -0.5448 -0.5626
  219MOL   H14744183   8.341   1.988   5.592  0.1586 -1.0566 -2.7256
  219MOL   H14844184   8.195   1.961   5.673  1.9329  1.3963  1.2085
  219MOL   H14944185   7.981   2.069   5.558 -0.0105 -0.3597 -2.1443
  219MOL   H15044186   8.073   2.333   5.429 -2.8897  1.0517 -2.2031
  219MOL   H15144187   7.921   2.245   5.408 -0.3037  1.1526 -1.2750
  219MOL   C15244188   7.941   2.334   5.601  0.3392  0.0441  0.1467
  219MOL   C15344189   7.873   2.468   5.567 -0.1082  0.0305 -0.1076
  219MOL  Cl15444190   7.984   2.599   5.556  0.4222  0.4511 -0.4282
  219MOL   C15544191   7.738   2.476   5.564 -0.4399  0.0390  0.0862
  219MOL   C15644192   7.645   2.598   5.554 -0.4180  0.4413  0.6074
  219MOL   H15744193   7.876   2.254   5.636 -2.4454  1.8148 -0.8089
  219MOL   H15844194   8.008   2.358   5.684  0.3742 -1.1843  0.4749
  219MOL   H15944195   7.686   2.381   5.562 -1.1836  0.4361 -2.2068
  219MOL   H16044196   7.588   2.572   5.464  1.2649 -1.3489  0.0286
  219MOL   H16144197   7.694   2.693   5.534  2.5873 -0.8749  1.5265
  219MOL   C16244198   7.552   2.605   5.672 -0.4371  0.3117 -0.0065
  219MOL   C16344199   7.465   2.733   5.674  0.2093  0.3087  0.2430
  219MOL  Cl16444200   7.299   2.706   5.620 -0.0830 -0.3288 -0.2740
  219MOL   C16544201   7.510   2.854   5.719 -0.4589  0.1528  0.3144
  219MOL   C16644202   7.419   2.975   5.725 -0.8129  0.0853  0.0498
  219MOL   H16744203   7.485   2.519   5.664  0.6163 -0.4949 -0.1908
  219MOL   H16844204   7.607   2.601   5.766 -3.2713  3.1193  1.8756
  219MOL   H16944205   7.611   2.861   5.756 -0.3499 -0.6924  0.1799
  219MOL   H17044206   7.470   3.062   5.684  0.7980 -0.5869  0.6061
  219MOL   H17144207   7.328   2.948   5.672 -0.5850  0.9130 -0.7626
  219MOL   C17244208   7.400   3.008   5.876  0.2509  0.3781 -0.2596
  219MOL   C17344209   7.304   3.127   5.901 -0.4393 -0.4079  0.4472
  219MOL  Cl17444210   7.284   3.165   6.073 -0.0186  0.1802  0.3930
  219MOL   C17544211   7.241   3.209   5.811 -0.0446  0.2362  0.1086
  219MOL   C17644212   7.170   3.337   5.846  0.0776  0.2329 -0.3137
  219MOL   H17744213   7.492   3.021   5.933  0.1827 -1.9284  0.4366
  219MOL   H17844214   7.364   2.927   5.939  0.3434 -0.3421 -1.1274
  219MOL   H17944215   7.242   3.184   5.707 -3.1042 -0.0923  0.1086
  219MOL   H18044216   7.197   3.374   5.945 -0.7004  0.2072 -0.0889
  219MOL   H18144217   7.062   3.325   5.855 -0.1693  1.5292 -1.3963
  219MOL   C18244218   7.211   3.450   5.746 -0.4434 -0.3795  0.8262
  219MOL   C18344219   7.146   3.583   5.779 -0.5198  0.2091  0.3574
  219MOL  Cl18444220   6.996   3.595   5.689  0.2018 -0.1062 -0.0943
  219MOL   C18544221   7.184   3.668   5.874 -0.1058  0.3321  0.3461
  219MOL   C18644222   7.109   3.799   5.913  0.0617  0.2380  0.9562
  219MOL   H18744223   7.319   3.464   5.753 -0.2593 -1.0365 -0.5927
  219MOL   H18844224   7.191   3.424   5.642 -0.6886  0.6154  0.6136
  219MOL   H18944225   7.270   3.648   5.936 -1.4756  0.0133  2.2202
  219MOL   H19044226   7.119   3.878   5.839 -0.3164 -2.7022 -2.3646
  219MOL   H19144227   7.006   3.768   5.927  0.1007  0.3928  1.5920
  219MOL   C19244228   7.159   3.858   6.048  0.4956  0.0720 -0.2724
  219MOL   C19344229   7.149   3.765   6.167 -0.1501 -1.0452  0.3563
  219MOL  Cl19444230   7.309   3.707   6.215  0.0623 -0.2773  0.1974
  219MOL   C19544231   7.040   3.714   6.225  0.0349  0.2380 -0.1366
  219MOL   C19644232   6.895   3.752   6.196 -1.0107 -0.2125 -0.2620
  219MOL   H19744233   7.097   3.941   6.081 -0.3929 -0.1983 -1.2408
  219MOL   H19844234   7.260   3.899   6.041  0.5332  0.1070  0.4237
  219MOL   H19944235   7.053   3.636   6.299  1.7268  0.4651 -0.1706
  219MOL   H20044236   6.852   3.811   6.277  0.3859  1.0864 -0.4483
  219MOL   H20144237   6.843   3.657   6.186  2.0696 -2.2532  2.0987
  219MOL   H20244238   6.884   3.829   6.119  2.2367 -1.1610 -1.7573
  220MOL     C144239   5.278   6.547   1.496  0.0152 -0.1841 -0.0969
  220MOL     C244240   5.149   6.583   1.556 -0.0291 -0.0635 -0.7504
  220MOL    Cl344241   5.166   6.656   1.711 -0.2895  0.5099 -0.1961
  220MOL     C444242   5.028   6.571   1.502  0.1822 -0.8072  0.0383
  220MOL     C544243   4.999   6.510   1.358  0.2072  0.0605  0.0767
  220MOL     H644244   5.355   6.570   1.569 -1.6701  0.7319  1.4098
  220MOL     H744245   5.295   6.619   1.416 -0.3714  1.1496  1.0161
  220MOL     H844246   4.938   6.600   1.556  0.1430 -0.3046 -0.2940
  220MOL     H944247   5.084   6.474   1.300  0.4783 -1.6058  1.4747
  220MOL    H1044248   4.944   6.416   1.365 -1.4888  0.9357 -1.0965
  220MOL    H1144249   5.276   6.445   1.456  0.6265  0.1725 -1.0533
  220MOL    C1244250   4.921   6.618   1.278 -0.4994  0.5780 -0.2075
  220MOL    C1344251   4.927   6.591   1.123  0.6510 -0.4564 -0.4069
  220MOL   Cl1444252   5.012   6.708   1.030  0.3538 -0.2942 -0.0683
  220MOL    C1544253   4.870   6.488   1.052 -0.3525 -0.3672 -0.1386
  220MOL    C1644254   4.778   6.384   1.112 -0.5956 -0.1063 -0.0083
  220MOL    H1744255   4.818   6.616   1.314 -0.2275 -0.7527  0.5220
  220MOL    H1844256   4.954   6.719   1.302  1.3403 -0.1627  0.3874
  220MOL    H1944257   4.890   6.477   0.946 -0.6934 -1.2932 -0.1057
  220MOL    H2044258   4.805   6.364   1.216  0.0149 -2.4118 -0.5878
  220MOL    H2144259   4.672   6.408   1.118 -0.2876  1.0943  0.7838
  220MOL    C2244260   4.779   6.254   1.031 -0.3944 -0.4944  0.4534
  220MOL    C2344261   4.727   6.135   1.106  0.4441  1.0095 -0.6727
  220MOL   Cl2444262   4.554   6.160   1.140 -0.3021 -0.1182 -0.2959
  220MOL    C2544263   4.802   6.037   1.165  0.0815  0.0913  0.5333
  220MOL    C2644264   4.741   5.931   1.257  0.1363  0.6579 -0.2530
  220MOL    H2744265   4.728   6.273   0.936 -3.0672  1.1038  2.1584
  220MOL    H2844266   4.883   6.237   1.003 -0.0949  0.6094  0.8851
  220MOL    H2944267   4.910   6.037   1.151  0.0964 -1.5707  0.5378
  220MOL    H3044268   4.637   5.909   1.235  0.4475 -1.5115  0.3023
  220MOL    H3144269   4.797   5.839   1.236 -0.0987  0.9490 -2.2082
  220MOL    C3244270   4.738   5.962   1.407 -0.1518  0.3563 -0.2825
  220MOL    C3344271   4.707   5.851   1.502  0.7663  0.5269  0.4662
  220MOL   Cl3444272   4.546   5.801   1.494  0.2145 -0.2851  0.0298
  220MOL    C3544273   4.802   5.815   1.595  0.4265  0.3544  0.1370
  220MOL    C3644274   4.773   5.722   1.709  0.2595  0.3237  0.1519
  220MOL    H3744275   4.841   5.989   1.433 -0.8563  1.0185  1.9644
  220MOL    H3844276   4.682   6.052   1.431  0.2651  1.2072 -2.3866
  220MOL    H3944277   4.903   5.852   1.603  1.3540 -1.5419 -2.3058
  220MOL    H4044278   4.779   5.772   1.806 -3.0460 -0.0831  0.6179
  220MOL    H4144279   4.675   5.677   1.694  1.3735 -2.1239 -0.0205
  220MOL    C4244280   4.857   5.591   1.716  0.6505 -0.4274  0.2103
  220MOL    C4344281   4.803   5.490   1.818 -0.1294 -0.2321  0.9976
  220MOL   Cl4444282   4.846   5.532   1.981  0.0649  0.0549 -0.2946
  220MOL    C4544283   4.717   5.390   1.789 -0.7620 -0.3857  0.1507
  220MOL    C4644284   4.662   5.357   1.656 -0.3722  0.5467 -0.7214
  220MOL    H4744285   4.868   5.532   1.625  0.8252 -2.1283  1.3200
  220MOL    H4844286   4.963   5.611   1.733  1.3192 -2.2267 -1.5926
  220MOL    H4944287   4.682   5.325   1.868  2.3568  0.2096  2.0930
  220MOL    H5044288   4.689   5.426   1.577  0.5844  0.3239 -0.5994
  220MOL    H5144289   4.704   5.262   1.623 -0.5098 -0.1971  1.1714
  220MOL    C5244290   4.514   5.347   1.649  0.4902  0.2581  0.4018
  220MOL    C5344291   4.466   5.287   1.510  0.3993 -0.2206 -0.5419
  220MOL   Cl5444292   4.407   5.418   1.415 -0.1469 -0.1361 -0.2737
  220MOL    C5544293   4.464   5.157   1.484  0.0871 -0.5917 -0.5840
  220MOL    C5644294   4.431   5.096   1.347 -0.1927  0.2180  0.1128
  220MOL    H5744295   4.475   5.289   1.733  1.6670 -0.6196  0.3528
  220MOL    H5844296   4.469   5.446   1.652  0.2618  0.2050 -0.8749
  220MOL    H5944297   4.490   5.097   1.570  1.8774  0.5418 -0.3190
  220MOL    H6044298   4.373   5.164   1.284  0.1767 -0.3376 -0.8255
  220MOL    H6144299   4.520   5.076   1.288 -1.1641 -1.5583 -0.7800
  220MOL    C6244300   4.348   4.964   1.357  0.0140 -0.4904  0.0871
  220MOL    C6344301   4.356   4.884   1.224 -0.4351 -0.2301 -0.2395
  220MOL   Cl6444302   4.229   4.915   1.110 -0.3960 -0.2581 -0.0136
  220MOL    C6544303   4.436   4.778   1.207  0.4667  0.2123 -0.2753
  220MOL    C6644304   4.421   4.667   1.109 -0.2054  0.5135  0.2589
  220MOL    H6744305   4.390   4.907   1.440  2.2452 -0.0699 -0.7217
  220MOL    H6844306   4.245   4.978   1.389 -0.4237 -1.7329 -0.7462
  220MOL    H6944307   4.510   4.772   1.285  1.2883  0.7964 -0.9980
  220MOL    H7044308   4.516   4.659   1.057 -0.9545  1.0643 -1.2088
  220MOL    H7144309   4.336   4.685   1.043  0.8772  1.3876 -0.8975
  220MOL    C7244310   4.391   4.527   1.179 -0.7524 -0.1638 -0.0562
  220MOL    C7344311   4.359   4.410   1.084  0.3648  0.5056 -0.4997
  220MOL   Cl7444312   4.505   4.318   1.055 -0.2645 -0.4672 -0.0990
  220MOL    C7544313   4.233   4.389   1.036 -0.6014 -0.1720  0.3703
  220MOL    C7644314   4.204   4.280   0.937  0.2865  0.0155 -0.1491
  220MOL    H7744315   4.308   4.540   1.248  0.4499  0.1845  1.3470
  220MOL    H7844316   4.476   4.499   1.241  0.8495  1.4669 -1.4495
  220MOL    H7944317   4.149   4.450   1.065 -1.2573 -0.7293 -0.3547
  220MOL    H8044318   4.129   4.204   0.958  1.1930 -0.4730  1.3873
  220MOL    H8144319   4.289   4.213   0.928 -0.8766 -1.4409 -0.3932
  220MOL    C8244320   4.171   4.339   0.799 -0.3096 -0.2492  0.0350
  220MOL    C8344321   4.043   4.396   0.767 -0.1783  0.8607  0.1575
  220MOL   Cl8444322   4.069   4.506   0.633  0.1972  0.1598 -0.0478
  220MOL    C8544323   3.928   4.365   0.819  0.3585  0.1739 -0.1288
  220MOL    C8644324   3.796   4.436   0.776 -0.4596  0.0748 -0.4021
  220MOL    H8744325   4.201   4.256   0.734  0.4230  0.8935 -1.1240
  220MOL    H8844326   4.252   4.411   0.782 -0.0705 -1.0468 -2.5336
  220MOL    H8944327   3.914   4.293   0.898  1.1331  0.1361 -0.0285
  220MOL    H9044328   3.780   4.503   0.860 -3.0700 -1.7333  0.6265
  220MOL    H9144329   3.810   4.494   0.685  0.0475 -2.4307 -1.9580
  220MOL    C9244330   3.672   4.341   0.762  0.1241 -0.1156  0.9127
  220MOL    C9344331   3.551   4.419   0.712  0.5685  1.0557  0.3784
  220MOL   Cl9444332   3.438   4.455   0.840  0.2414  0.2986 -0.1579
  220MOL    C9544333   3.534   4.468   0.591 -0.5650 -0.3514 -0.2735
  220MOL    C9644334   3.626   4.438   0.465  0.4835  0.6024 -0.9229
  220MOL    H9744335   3.642   4.291   0.854 -0.5602 -2.8019 -0.7131
  220MOL    H9844336   3.695   4.257   0.696  2.2231 -0.5629  2.1708
  220MOL    H9944337   3.447   4.531   0.584  0.0517  0.4648 -0.6624
  220MOL   H10044338   3.704   4.366   0.490  0.0906  0.6086  0.3314
  220MOL   H10144339   3.557   4.376   0.407 -1.4220  2.8952 -1.2068
  220MOL   C10244340   3.679   4.552   0.378  1.0113  0.3642 -0.3889
  220MOL   C10344341   3.765   4.510   0.260 -0.0094 -0.2563  0.2630
  220MOL  Cl10444342   3.697   4.572   0.116  0.0732 -0.1712 -0.4089
  220MOL   C10544343   3.883   4.452   0.259 -0.1497  0.1299 -0.6701
  220MOL   C10644344   3.975   4.428   0.134  0.9255 -0.3373  0.0963
  220MOL   H10744345   3.599   4.617   0.343 -0.4008 -0.1328  1.7702
  220MOL   H10844346   3.750   4.610   0.438 -0.0391  0.7656  0.4929
  220MOL   H10944347   3.937   4.422   0.347 -2.3465  0.9797  0.9873
  220MOL   H11044348   3.984   4.320   0.123 -3.4064 -0.7990  0.3592
  220MOL   H11144349   3.921   4.461   0.046  1.1260  0.8799  0.4197
  220MOL   C11244350   4.108   4.503   0.145 -0.6271  0.3014 -0.1156
  220MOL   C11344351   4.204   4.466   0.033  0.4358  0.7829  0.1320
  220MOL  Cl11444352   4.264   4.305   0.047  0.2787 -0.1070 -0.5001
  220MOL   C11544353   4.228   4.543   8.350 -0.0909 -0.1061 -0.6515
  220MOL   C11644354   4.175   4.684   8.318 -0.1179 -0.3982 -0.4712
  220MOL   H11744355   4.094   4.609   0.163  0.7537  0.0484  2.7042
  220MOL   H11844356   4.164   4.465   0.230 -0.4266 -0.6322 -0.6597
  220MOL   H11944357   4.296   4.516   8.270  2.1353  0.2941  1.0303
  220MOL   H12044358   4.090   4.704   8.383  1.4745 -0.2838  1.6355
  220MOL   H12144359   4.138   4.696   8.217 -0.7576 -0.9750 -0.3141
  220MOL   C12244360   4.296   4.781   8.346  0.5753 -0.4656 -0.0714
  220MOL   C12344361   4.256   4.929   8.335 -0.2387 -0.2934  0.7018
  220MOL  Cl12444362   4.285   4.983   8.172  0.1832  0.1820 -0.1114
  220MOL   C12544363   4.197   5.012   0.004 -0.3085 -0.3622  0.1715
  220MOL   C12644364   4.171   4.970   0.150 -0.0038 -0.2215 -0.2167
  220MOL   H12744365   4.351   4.758   0.016  0.5699 -2.3812 -0.5456
  220MOL   H12844366   4.369   4.761   8.268  1.5029  0.4435  0.5404
  220MOL   H12944367   4.157   5.110   8.401 -0.3052  0.2576  2.5659
  220MOL   H13044368   4.160   4.864   0.170 -0.8888 -0.4369 -1.7811
  220MOL   H13144369   4.250   5.002   0.218  0.9819 -1.4363 -0.7707
  220MOL   C13244370   4.056   5.041   0.217 -0.0625 -0.4901 -0.4457
  220MOL   C13344371   3.922   5.023   0.146 -0.1626 -0.3909 -0.4081
  220MOL  Cl13444372   3.884   4.856   0.131 -0.1494 -0.1137 -0.2221
  220MOL   C13544373   3.843   5.119   0.095 -0.2603 -0.3227 -0.6757
  220MOL   C13644374   3.881   5.261   0.104 -0.0634  0.3557  0.0332
  220MOL   H13744375   4.050   4.995   0.316 -0.3015 -0.4907 -0.4592
  220MOL   H13844376   4.076   5.146   0.237  1.4205 -0.6754 -0.8942
  220MOL   H13944377   3.751   5.091   0.046 -0.9432  1.8272 -0.6867
  220MOL   H14044378   3.807   5.307   0.169  0.6498  1.3087  0.1765
  220MOL   H14144379   3.983   5.280   0.136 -0.1963 -0.6761  1.0991
  220MOL   C14244380   3.866   5.314   8.383 -0.0459  1.1034  0.4029
  220MOL   C14344381   3.900   5.463   8.372  0.2797 -0.4299  0.1639
  220MOL  Cl14444382   3.756   5.558   8.402 -0.3630 -0.3756 -0.4771
  220MOL   C14544383   4.020   5.509   8.328 -0.1168  0.3357 -0.6861
  220MOL   C14644384   4.072   5.654   8.327 -0.0660  0.3302 -0.3010
  220MOL   H14744385   3.760   5.310   8.356  0.4395  0.1643 -1.4816
  220MOL   H14844386   3.932   5.258   8.316 -0.7916  0.3583  0.2788
  220MOL   H14944387   4.092   5.431   8.306  2.1672  2.3759 -0.7396
  220MOL   H15044388   3.981   5.713   8.327 -0.7435 -0.6946 -0.9990
  220MOL   H15144389   4.135   5.687   8.410  1.7733 -0.7624 -1.2424
  220MOL   C15244390   4.155   5.694   8.198 -0.3981 -0.1580 -0.2506
  220MOL   C15344391   4.240   5.819   8.219 -0.6623  0.3738  0.1056
  220MOL  Cl15444392   4.179   5.956   8.141 -0.0906  0.0661 -0.3092
  220MOL   C15544393   4.360   5.822   8.286 -0.5250  0.5940  0.0601
  220MOL   C15644394   4.443   5.943   8.301  0.0671 -0.1423  0.1026
  220MOL   H15744395   4.226   5.612   8.192  0.3043  0.3560  0.8930
  220MOL   H15844396   4.096   5.695   8.106 -2.0197 -1.9564  0.7354
  220MOL   H15944397   4.392   5.736   8.342 -0.2435 -0.0468 -1.0890
  220MOL   H16044398   4.374   6.027   8.299  0.7849  0.4247 -2.3628
  220MOL   H16144399   4.513   5.963   8.220 -0.0657 -1.1850 -0.2770
  220MOL   C16244400   4.522   5.940   0.006 -0.3689 -0.7709  0.0336
  220MOL   C16344401   4.449   5.973   0.132  0.0204 -0.2307  0.1550
  220MOL  Cl16444402   4.426   5.827   0.223 -0.0365 -0.0270  0.4253
  220MOL   C16544403   4.391   6.087   0.173  0.5035 -0.3709  0.6298
  220MOL   C16644404   4.306   6.110   0.297 -0.5300  0.1298 -0.2267
  220MOL   H16744405   4.576   5.847   0.020 -1.4350 -1.7876 -2.3232
  220MOL   H16844406   4.595   6.018   8.405 -0.7777 -0.2324  0.5730
  220MOL   H16944407   4.406   6.175   0.111 -1.0716 -0.3587  0.2418
  220MOL   H17044408   4.211   6.155   0.269 -0.3723  0.5548 -0.0853
  220MOL   H17144409   4.281   6.011   0.336  0.8251 -0.0492  0.2406
  220MOL   C17244410   4.384   6.195   0.399  0.5142  0.8017 -0.3696
  220MOL   C17344411   4.443   6.319   0.336 -0.3394 -0.2954  0.3857
  220MOL  Cl17444412   4.326   6.429   0.276  0.2373 -0.2692 -0.2287
  220MOL   C17544413   4.579   6.332   0.336 -0.3699 -0.8480 -0.4700
  220MOL   C17644414   4.645   6.458   0.273 -0.1945  0.5099  0.6523
  220MOL   H17744415   4.453   6.125   0.446  0.0746  0.9821  0.5713
  220MOL   H17844416   4.325   6.245   0.476 -0.0542  1.1887 -1.0497
  220MOL   H17944417   4.645   6.258   0.379 -0.2271 -0.3700  0.1355
  220MOL   H18044418   4.702   6.505   0.353 -0.5787  0.9947  0.6444
  220MOL   H18144419   4.560   6.527   0.271  0.6019  1.4702 -1.4648
  220MOL   C18244420   4.704   6.450   0.132 -0.2113 -0.2058  0.1396
  220MOL   C18344421   4.774   6.583   0.087 -0.9086  0.0107 -0.1727
  220MOL  Cl18444422   4.825   6.551   8.344 -0.2352  0.6713  0.6072
  220MOL   C18544423   4.788   6.704   0.152  0.1011  0.7348 -0.1198
  220MOL   C18644424   4.858   6.834   0.116  0.0503  0.2112 -0.5697
  220MOL   H18744425   4.776   6.369   0.117  1.3974  0.7081  2.5281
  220MOL   H18844426   4.620   6.421   0.070 -1.6966  0.8542  1.6264
  220MOL   H18944427   4.744   6.700   0.250  0.2567  1.1151 -0.0336
  220MOL   H19044428   4.965   6.827   0.134 -0.2604 -0.8779  0.9492
  220MOL   H19144429   4.860   6.841   0.007 -2.0393 -2.5262 -0.8524
  220MOL   C19244430   4.791   6.958   0.170  0.1512  0.7934  0.2208
  220MOL   C19344431   4.866   7.075   0.114 -0.6276 -0.2723 -0.5836
  220MOL  Cl19444432   4.786   7.140   8.400 -0.0566 -0.1201 -0.2984
  220MOL   C19544433   4.981   7.132   0.164 -0.0675 -0.7895 -0.2135
  220MOL   C19644434   5.059   7.079   0.283  0.3756  0.3305  0.3564
  220MOL   H19744435   4.797   6.958   0.279 -0.0584  1.0711  0.2307
  220MOL   H19844436   4.687   6.973   0.141 -0.0300  0.2760  0.5831
  220MOL   H19944437   5.015   7.220   0.111  1.5107 -2.0848 -1.3742
  220MOL   H20044438   4.995   7.011   0.339  0.7492 -1.6893 -1.5653
  220MOL   H20144439   5.084   7.157   0.355 -1.1347  0.6366  0.5663
  220MOL   H20244440   5.150   7.031   0.247 -1.2792 -1.7092 -1.2643
  221MOL     C144441   4.412   0.164   6.921 -0.7843  0.4682  0.1031
  221MOL     C244442   4.325   0.226   6.815  0.2583  0.3427  0.1716
  221MOL    Cl344443   4.307   0.396   6.841 -0.3957  0.3475  0.5196
  221MOL     C444444   4.273   0.169   6.711  0.2241  0.7081  0.3615
  221MOL     C544445   4.282   0.017   6.681 -0.6158 -0.1150  0.2087
  221MOL     H644446   4.409   0.058   6.944 -0.2562  0.7138  1.3717
  221MOL     H744447   4.393   0.228   7.007 -0.2675  0.2440  0.3839
  221MOL     H844448   4.220   0.237   6.645  0.5894 -0.4079 -1.0991
  221MOL     H944449   4.354   8.418   6.602  0.7421 -0.3031  1.4793
  221MOL    H1044450   4.323   8.399   6.774  1.2163 -2.8945 -1.6800
  221MOL    H1144451   4.517   0.187   6.900 -0.9370  1.0078 -0.0814
  221MOL    C1244452   4.145   8.377   6.653 -0.5751  0.5891 -0.7474
  221MOL    C1344453   4.152   8.227   6.671 -0.5231 -0.4795 -0.6816
  221MOL   Cl1444454   4.145   8.177   6.838  0.3355 -0.1357  0.1263
  221MOL    C1544455   4.165   8.139   6.574 -0.6285  0.5139  0.6176
  221MOL    C1644456   4.179   8.173   6.424  1.0373  0.0050 -0.1397
  221MOL    H1744457   4.083   8.419   6.733 -0.2699  1.2608 -0.8591
  221MOL    H1844458   4.113   8.392   6.550 -1.7275 -2.6706 -0.9107
  221MOL    H1944459   4.162   8.032   6.591 -0.5398  0.2396 -1.0312
  221MOL    H2044460   4.075   8.174   6.390  0.4535  0.0838  1.5621
  221MOL    H2144461   4.225   8.271   6.429 -1.5425  1.1879  1.8855
  221MOL    C2244462   4.261   8.080   6.335 -0.4384  0.2478 -0.4548
  221MOL    C2344463   4.246   8.137   6.189 -1.0151  0.7964 -0.2186
  221MOL   Cl2444464   4.399   8.196   6.127  0.1130 -0.1159  0.0896
  221MOL    C2544465   4.133   8.125   6.116 -0.2190  0.4596  0.1272
  221MOL    C2644466   4.114   8.157   5.970 -0.0219 -0.5468  0.2655
  221MOL    H2744467   4.368   8.089   6.353 -0.5124  0.0973  0.0661
  221MOL    H2844468   4.231   7.976   6.331  0.8349 -0.2480  2.1699
  221MOL    H2944469   4.043   8.088   6.164  0.1461  0.4579  0.8163
  221MOL    H3044470   4.199   8.196   5.915 -0.2564  1.1005  1.0473
  221MOL    H3144471   4.103   8.066   5.912 -2.6614  0.0896 -0.3136
  221MOL    C3244472   3.998   8.247   5.958 -0.0306  0.2734 -0.1857
  221MOL    C3344473   3.947   8.279   5.818  0.2101  0.0084 -0.2467
  221MOL   Cl3444474   3.891   0.022   5.818 -0.0386 -0.3141  0.1393
  221MOL    C3544475   3.967   8.207   5.705  0.0486  0.3860 -0.1935
  221MOL    C3644476   3.933   8.258   5.560  0.2632 -0.3729  0.7545
  221MOL    H3744477   3.923   8.201   6.023  1.0933 -2.0031 -0.4187
  221MOL    H3844478   4.026   8.340   6.008 -0.4855 -0.2666  1.1031
  221MOL    H3944479   4.012   8.110   5.718 -1.5905 -0.2193  1.1884
  221MOL    H4044480   3.836   8.306   5.564 -0.7574 -2.2373 -0.7928
  221MOL    H4144481   4.009   8.334   5.538 -2.9033  2.7140 -0.0000
  221MOL    C4244482   3.937   8.149   5.456  0.2997 -0.0731  0.6627
  221MOL    C4344483   3.884   8.168   5.320  0.0254  0.4855 -0.2503
  221MOL   Cl4444484   3.926   8.330   5.266  0.0306  0.0581 -0.1620
  221MOL    C4544485   3.817   8.080   5.241  0.7109  0.1260 -0.2746
  221MOL    C4644486   3.784   7.933   5.263  0.0007  0.7781 -0.0512
  221MOL    H4744487   4.043   8.133   5.437  0.2169 -2.3750  2.0283
  221MOL    H4844488   3.896   8.052   5.483  0.7715  0.1614  2.2150
  221MOL    H4944489   3.781   8.123   5.149  0.7289  0.0928 -0.2969
  221MOL    H5044490   3.834   7.893   5.351 -2.4702 -2.2053  0.0733
  221MOL    H5144491   3.676   7.937   5.278  0.2829  3.2104  1.8873
  221MOL    C5244492   3.836   7.852   5.143  0.7260  0.4970  0.0001
  221MOL    C5344493   3.814   7.702   5.166  0.7962 -0.0691  0.2681
  221MOL   Cl5444494   3.930   7.610   5.256 -0.0290  0.3167 -0.1015
  221MOL    C5544495   3.707   7.640   5.111  0.2183 -0.1396 -0.0346
  221MOL    C5644496   3.675   7.491   5.128 -0.0460 -0.0881  0.8232
  221MOL    H5744497   3.788   7.891   5.053  2.4522  2.2240 -0.2116
  221MOL    H5844498   3.944   7.861   5.130  0.6109  3.9754  0.7323
  221MOL    H5944499   3.640   7.695   5.047  1.9049  0.8512 -0.9901
  221MOL    H6044500   3.652   7.442   5.033 -0.4209  2.3033 -0.3605
  221MOL    H6144501   3.761   7.430   5.156  0.1526 -0.6891 -1.0480
  221MOL    C6244502   3.558   7.470   5.221 -0.5474  0.4985 -0.5278
  221MOL    C6344503   3.608   7.468   5.360 -0.5766 -0.2761  0.1284
  221MOL   Cl6444504   3.640   7.307   5.418 -0.2729 -0.3318  0.4726
  221MOL    C6544505   3.613   7.574   5.440 -0.6899 -0.7225 -0.2439
  221MOL    C6644506   3.650   7.568   5.583 -0.5148 -0.4471 -0.9183
  221MOL    H6744507   3.490   7.555   5.210  0.7439  1.3749 -1.9272
  221MOL    H6844508   3.499   7.385   5.187 -1.2861  1.0099 -0.5290
  221MOL    H6944509   3.573   7.665   5.399  1.3537  0.9374  1.3840
  221MOL    H7044510   3.659   7.462   5.607  1.4254 -0.1183 -0.1530
  221MOL    H7144511   3.564   7.594   5.644 -0.4164 -1.6213 -0.2782
  221MOL    C7244512   3.777   7.652   5.599 -0.7608 -0.4222  0.0533
  221MOL    C7344513   3.825   7.653   5.744  0.0280 -0.0331 -0.0744
  221MOL   Cl7444514   3.947   7.775   5.772  0.2913  0.1603  0.1157
  221MOL    C7544515   3.783   7.566   5.840  0.6874 -0.2999 -0.6015
  221MOL    C7644516   3.820   7.561   5.987 -0.1490 -0.2503  0.2708
  221MOL    H7744517   3.753   7.749   5.557 -1.7708 -0.6227  0.1516
  221MOL    H7844518   3.857   7.601   5.545 -0.1375  2.5159 -1.8743
  221MOL    H7944519   3.723   7.479   5.818  0.2885 -0.4231  0.9673
  221MOL    H8044520   3.886   7.643   6.014  0.2088 -0.0933 -1.0839
  221MOL    H8144521   3.880   7.470   5.997  0.0182 -0.0961  0.7052
  221MOL    C8244522   3.698   7.562   6.080 -0.2768  0.2616 -0.0012
  221MOL    C8344523   3.728   7.504   6.213 -0.6756  0.1717 -0.2666
  221MOL   Cl8444524   3.736   7.330   6.199 -0.2206 -0.0261 -0.1044
  221MOL    C8544525   3.747   7.571   6.325  0.4408 -0.3541  0.4172
  221MOL    C8644526   3.780   7.515   6.458 -1.0202  0.3417  0.1695
  221MOL    H8744527   3.615   7.510   6.032  0.3190 -0.0030 -0.7580
  221MOL    H8844528   3.680   7.668   6.097 -1.2713 -0.0679  1.0448
  221MOL    H8944529   3.735   7.677   6.311  1.9645 -0.3577 -1.1278
  221MOL    H9044530   3.824   7.415   6.452 -0.4683  0.5682  0.4237
  221MOL    H9144531   3.849   7.585   6.506 -0.9190 -0.2753  0.9430
  221MOL    C9244532   3.644   7.513   6.532 -0.1035  0.2304 -0.4375
  221MOL    C9344533   3.668   7.475   6.676 -0.7595 -0.4022 -0.2468
  221MOL   Cl9444534   3.680   7.302   6.699 -0.0350 -0.0209  0.0156
  221MOL    C9544535   3.691   7.560   6.778  0.1162 -0.4376  0.0149
  221MOL    C9644536   3.693   7.716   6.778 -0.7459  0.0662 -0.9906
  221MOL    H9744537   3.570   7.444   6.490 -0.0483 -0.1358  0.0590
  221MOL    H9844538   3.595   7.610   6.529 -0.4595  0.1129  1.0736
  221MOL    H9944539   3.701   7.521   6.878 -2.3276  0.6157  0.7201
  221MOL   H10044540   3.798   7.730   6.800 -1.2198  1.4147  0.5514
  221MOL   H10144541   3.666   7.743   6.676 -1.3665 -0.0218 -0.8582
  221MOL   C10244542   3.609   7.776   6.881 -0.1353  0.8150 -0.0042
  221MOL   C10344543   3.616   7.930   6.869  0.2957 -0.0670  0.0678
  221MOL  Cl10444544   3.777   7.983   6.893  0.3015 -0.1345 -0.1450
  221MOL   C10544545   3.515   8.018   6.847 -0.3169 -0.0085 -0.3905
  221MOL   C10644546   3.525   8.169   6.840 -0.6966 -0.4900  0.3842
  221MOL   H10744547   3.504   7.751   6.867 -0.5607  2.2786  0.5044
  221MOL   H10844548   3.634   7.734   6.978  2.2811  0.2957 -0.8124
  221MOL   H10944549   3.415   7.976   6.841 -1.2671  2.2299 -0.5374
  221MOL   H11044550   3.602   8.202   6.771 -1.1001 -0.6920 -0.1632
  221MOL   H11144551   3.432   8.205   6.795 -0.2199 -0.1282 -0.3268
  221MOL   C11244552   3.534   8.230   6.981  0.2930  0.3056 -0.3229
  221MOL   C11344553   3.550   8.382   6.964  0.2721 -0.1329 -0.1355
  221MOL  Cl11444554   3.402   0.047   6.999  0.2982 -0.1623 -0.0943
  221MOL   C11544555   3.668   0.032   6.967  0.4513 -0.1451  0.6638
  221MOL   C11644556   3.804   8.391   6.960  0.3004  0.1964  0.1696
  221MOL   H11744557   3.441   8.226   7.037  0.8139 -1.0822  0.4704
  221MOL   H11844558   3.614   8.185   7.040 -0.1016  2.8660  2.2758
  221MOL   H11944559   3.674   0.139   6.978  1.0749 -0.2156  1.0099
  221MOL   H12044560   3.852   0.019   6.875  2.8492  0.0403  1.4716
  221MOL   H12144561   3.806   8.282   6.958  0.1713  0.2018 -0.2381
  221MOL   C12244562   3.877   0.010   7.098 -0.3552  0.3288  0.1238
  221MOL   C12344563   4.020   8.392   7.095 -0.3196  1.0981  0.8598
  221MOL  Cl12444564   4.122   0.100   7.061 -0.1451 -0.2166  0.2818
  221MOL   C12544565   4.065   8.273   7.134 -0.8994  0.2563  0.4556
  221MOL   C12644566   3.980   8.150   7.170  0.6002 -0.5832  0.0116
  221MOL   H12744567   3.858   0.116   7.118 -1.5355  0.4252 -1.3463
  221MOL   H12844568   3.831   8.381   7.183  0.6721 -1.9510 -0.6382
  221MOL   H12944569   4.171   8.254   7.144 -0.6577 -0.1278 -2.4430
  221MOL   H13044570   3.874   8.160   7.147  1.0860  1.3450 -1.5176
  221MOL   H13144571   4.019   8.072   7.104  0.7270  1.0188 -1.8321
  221MOL   C13244572   3.974   8.111   7.318 -0.4185 -0.6660  0.0468
  221MOL   C13344573   3.946   8.233   7.400 -0.4292 -0.5103 -0.2855
  221MOL  Cl13444574   4.096   8.313   7.434  0.4800  0.2393  0.1719
  221MOL   C13544575   3.829   8.281   7.439 -0.3350  0.1062 -0.0283
  221MOL   C13644576   3.692   8.219   7.411  0.4074  0.1595 -0.1663
  221MOL   H13744577   3.894   8.040   7.341  0.0465 -1.3337 -0.4110
  221MOL   H13844578   4.070   8.068   7.345  0.9075  1.4476 -1.1727
  221MOL   H13944579   3.828   8.370   7.500  0.1578 -1.6461  2.6345
  221MOL   H14044580   3.697   8.125   7.357  1.2772  0.1143 -0.0189
  221MOL   H14144581   3.655   8.186   7.509  1.1828 -1.5792 -0.4426
  221MOL   C14244582   3.595   8.325   7.345 -0.6799  0.0850  0.0330
  221MOL   C14344583   3.452   8.290   7.372 -0.2785 -0.1258 -0.6974
  221MOL  Cl14444584   3.363   8.417   7.462  0.6925  0.4962  0.0412
  221MOL   C14544585   3.397   8.174   7.346 -0.1016 -0.3713 -0.5853
  221MOL   C14644586   3.254   8.132   7.392  0.2266 -0.1487 -0.5273
  221MOL   H14744587   3.616   8.328   7.238 -0.4923 -1.9689 -0.0147
  221MOL   H14844588   3.605   0.009   7.370 -3.5108  0.6883 -1.2282
  221MOL   H14944589   3.459   8.102   7.295 -1.1294 -1.2435 -0.6128
  221MOL   H15044590   3.250   8.034   7.438 -0.3356 -0.8242 -1.9965
  221MOL   H15144591   3.222   8.202   7.469 -1.0419 -1.8508  0.5258
  221MOL   C15244592   3.154   8.149   7.275  0.9592 -0.0389  0.1378
  221MOL   C15344593   3.016   8.142   7.331 -0.2518  0.3668 -0.3257
  221MOL  Cl15444594   2.998   7.990   7.419 -0.5359  0.8002  0.1810
  221MOL   C15544595   2.927   8.238   7.335 -0.4789 -0.4690 -0.2856
  221MOL   C15644596   2.789   8.233   7.407 -0.6655 -0.6941 -0.4341
  221MOL   H15744597   3.177   8.247   7.234 -0.5233 -0.0576 -0.7647
  221MOL   H15844598   3.159   8.066   7.205 -0.0483  0.9169 -1.1054
  221MOL   H15944599   2.942   8.331   7.281  0.2874 -0.3322  0.1631
  221MOL   H16044600   2.763   8.130   7.434 -2.4245 -0.0608  0.3219
  221MOL   H16144601   2.707   8.265   7.342 -0.2333 -0.6703 -0.9695
  221MOL   C16244602   2.789   8.335   7.527 -0.0872  0.5486 -0.0819
  221MOL   C16344603   2.800   0.061   7.484  0.3302 -0.0165  0.6475
  221MOL  Cl16444604   2.930   0.154   7.564  0.1752  0.2013 -0.1050
  221MOL   C16544605   2.725   0.102   7.382 -0.7829 -0.0211 -1.5051
  221MOL   C16644606   2.742   0.240   7.339  0.1204 -0.2997 -0.1479
  221MOL   H16744607   2.698   8.323   7.586  1.5046  0.7299  2.4976
  221MOL   H16844608   2.872   8.305   7.591 -0.3490 -0.7567 -0.3378
  221MOL   H16944609   2.644   0.044   7.339 -0.1038 -0.0542 -2.7472
  221MOL   H17044610   2.679   0.310   7.396 -3.0743 -1.5484 -2.0140
  221MOL   H17144611   2.848   0.266   7.344 -0.0874  1.0079 -2.0094
  221MOL   C17244612   2.693   0.259   7.194  0.4447 -0.6952  0.4307
  221MOL   C17344613   2.705   0.414   7.166  0.4159 -0.0196 -0.1523
  221MOL  Cl17444614   2.549   0.488   7.174  0.3359  0.1712 -0.0001
  221MOL   C17544615   2.816   0.473   7.127 -0.6233 -0.2985 -0.0793
  221MOL   C17644616   2.819   0.619   7.086 -0.4345 -0.3084  0.7477
  221MOL   H17744617   2.590   0.226   7.188  0.6436 -1.2544  0.0719
  221MOL   H17844618   2.746   0.201   7.119  0.5584 -0.6659  0.4877
  221MOL   H17944619   2.909   0.418   7.121  0.4185  1.2470  1.1686
  221MOL   H18044620   2.886   0.671   7.155  3.6703 -3.0820 -0.9623
  221MOL   H18144621   2.725   0.673   7.097 -1.1461 -2.0692  4.0009
  221MOL   C18244622   2.863   0.627   6.944 -0.6879 -1.1936 -0.0861
  221MOL   C18344623   2.854   0.769   6.885  0.1397 -0.1695 -0.3674
  221MOL  Cl18444624   2.778   0.762   6.726 -0.2418  0.2585  0.2652
  221MOL   C18544625   2.922   0.878   6.927  0.0995 -0.2980  0.3874
  221MOL   C18644626   2.919   1.019   6.855  0.5759  0.1539 -0.8974
  221MOL   H18744627   2.967   0.600   6.928  0.3208  3.1324 -1.4564
  221MOL   H18844628   2.800   0.550   6.899 -1.3298 -1.0336  0.5154
  221MOL   H18944629   2.983   0.874   7.017 -0.3196  1.3663  0.7543
  221MOL   H19044630   2.842   1.023   6.778 -2.1048  1.3229  1.7487
  221MOL   H19144631   2.885   1.081   6.938  1.0611 -0.0499 -0.5404
  221MOL   C19244632   3.056   1.075   6.812  0.5256  0.9282 -0.4177
  221MOL   C19344633   3.095   1.035   6.673  0.8733 -0.5720 -0.5293
  221MOL  Cl19444634   3.212   0.902   6.674  0.1923 -0.1285 -0.1565
  221MOL   C19544635   3.056   1.085   6.551  0.1970  0.4860  0.0723
  221MOL   C19644636   2.955   1.192   6.527 -0.1912 -0.8299 -0.1451
  221MOL   H19744637   3.130   1.042   6.884 -0.1823 -0.7402 -0.4279
  221MOL   H19844638   3.055   1.184   6.814 -1.3617  0.9401 -0.3034
  221MOL   H19944639   3.096   1.045   6.459  2.5532  2.9542 -0.0116
  221MOL   H20044640   2.879   1.141   6.468 -0.2127  1.6994 -2.4314
  221MOL   H20144641   2.988   1.283   6.476  1.4586 -0.6424  1.2192
  221MOL   H20244642   2.903   1.227   6.616 -0.4855  0.1629 -0.6925
  222MOL     C144643   4.531   8.054   3.506 -0.1786  0.1741 -0.3013
  222MOL     C244644   4.596   8.048   3.642  0.3497 -0.1247  0.0796
  222MOL    Cl344645   4.718   8.167   3.650 -0.1980 -0.1680  0.3942
  222MOL     C444646   4.549   7.989   3.752  0.7655  0.3874 -0.8573
  222MOL     C544647   4.432   7.888   3.753 -0.3204 -1.2384  0.1081
  222MOL     H644648   4.563   8.132   3.437 -1.8077  1.4488  0.3324
  222MOL     H744649   4.424   8.068   3.525  0.5938  2.1784  2.9269
  222MOL     H844650   4.596   8.007   3.847 -1.1396  1.8099 -0.1418
  222MOL     H944651   4.345   7.951   3.770  1.8386  1.4773  1.4898
  222MOL    H1044652   4.434   7.834   3.658  2.7262 -0.9614 -0.0577
  222MOL    H1144653   4.559   7.957   3.465  1.6876  0.7667 -0.4795
  222MOL    C1244654   4.455   7.794   3.874 -0.7020 -0.1056 -0.4577
  222MOL    C1344655   4.357   7.687   3.891  0.4093  0.8726 -0.3243
  222MOL   Cl1444656   4.220   7.729   3.992 -0.3635 -0.2906  0.0609
  222MOL    C1544657   4.384   7.558   3.861 -0.9555  0.1530  0.2526
  222MOL    C1644658   4.506   7.493   3.798 -1.1040 -0.1757  0.4488
  222MOL    H1744659   4.553   7.748   3.862 -0.8396  0.0833 -2.4680
  222MOL    H1844660   4.473   7.842   3.970 -1.6058 -0.6106 -0.0296
  222MOL    H1944661   4.312   7.483   3.888  1.6225 -1.9631  1.5187
  222MOL    H2044662   4.464   7.407   3.747 -0.8072  0.3766 -0.7356
  222MOL    H2144663   4.542   7.573   3.733  0.3530 -0.1587  1.2512
  222MOL    C2244664   4.607   7.444   3.896  0.8194  0.3473 -0.0336
  222MOL    C2344665   4.739   7.394   3.839  0.0299  1.1239 -0.1054
  222MOL   Cl2444666   4.867   7.406   3.956 -0.2161 -0.0218  0.1735
  222MOL    C2544667   4.755   7.342   3.713 -0.0673  0.4725 -0.6293
  222MOL    C2644668   4.891   7.315   3.648 -0.1174  0.8017 -0.0516
  222MOL    H2744669   4.628   7.515   3.977  0.0421 -1.3020  1.6494
  222MOL    H2844670   4.566   7.354   3.940 -1.5534 -0.4606 -3.6924
  222MOL    H2944671   4.673   7.326   3.646  0.8222  0.9416 -1.8462
  222MOL    H3044672   4.973   7.351   3.710  0.7237  0.3935 -0.9088
  222MOL    H3144673   4.899   7.206   3.657  0.0211  0.8674  0.7032
  222MOL    C3244674   4.902   7.360   3.501 -0.1443  0.8642 -0.4118
  222MOL    C3344675   5.019   7.304   3.428  0.7094  0.0507 -0.5312
  222MOL   Cl3444676   5.116   7.426   3.367 -0.1169  0.1204  0.3133
  222MOL    C3544677   5.042   7.167   3.417 -0.4207 -0.5828  0.1907
  222MOL    C3644678   5.155   7.097   3.348 -0.1924 -0.1141  0.0425
  222MOL    H3744679   4.812   7.335   3.444 -0.6166 -0.5625  0.9409
  222MOL    H3844680   4.902   7.469   3.500  2.3518  0.9642  2.8898
  222MOL    H3944681   4.977   7.099   3.470 -1.8400 -0.5337 -1.4598
  222MOL    H4044682   5.208   7.173   3.291  1.7136 -0.3306  1.4785
  222MOL    H4144683   5.228   7.064   3.420  0.1211  2.3217  0.8813
  222MOL    C4244684   5.110   6.974   3.259  0.0476 -0.2764  0.2301
  222MOL    C4344685   5.178   6.845   3.279 -0.0941 -1.1245 -1.3536
  222MOL   Cl4444686   5.304   6.822   3.163  0.1678  0.2594  0.3200
  222MOL    C4544687   5.136   6.760   3.373 -0.1276  0.4008  0.5756
  222MOL    C4644688   5.030   6.774   3.478  0.1103  0.6902  0.8519
  222MOL    H4744689   5.002   6.961   3.262  0.0599  0.0085  3.0095
  222MOL    H4844690   5.131   6.999   3.155 -0.7037  1.3283  0.4367
  222MOL    H4944691   5.192   6.668   3.362  1.9415  1.4833  1.6757
  222MOL    H5044692   4.984   6.873   3.475 -1.2598  0.0280 -1.1333
  222MOL    H5144693   4.949   6.717   3.433  1.4025  1.0661 -2.0700
  222MOL    C5244694   5.084   6.731   3.619 -0.0301 -0.0144 -0.2897
  222MOL    C5344695   4.974   6.740   3.729 -0.1146  0.1703 -0.2302
  222MOL   Cl5444696   4.944   6.580   3.784  0.2145 -0.0431 -0.1969
  222MOL    C5544697   4.923   6.859   3.778  0.4322  0.5524  0.3486
  222MOL    C5644698   4.804   6.878   3.882 -0.3458  0.3336  0.0563
  222MOL    H5744699   5.121   6.629   3.613 -0.2740 -0.0762 -0.7426
  222MOL    H5844700   5.154   6.805   3.657  1.2146 -0.2319 -2.1136
  222MOL    H5944701   4.965   6.940   3.722  0.6464  0.7273  0.7646
  222MOL    H6044702   4.811   6.790   3.947 -0.1372  0.6213  0.4251
  222MOL    H6144703   4.839   6.960   3.944  2.4487 -0.1283 -0.8362
  222MOL    C6244704   4.664   6.893   3.820 -0.4650 -0.0552 -0.4664
  222MOL    C6344705   4.598   6.774   3.747  0.2263  0.2464  0.2012
  222MOL   Cl6444706   4.437   6.747   3.794  0.4785 -0.2678 -0.2702
  222MOL    C6544707   4.647   6.707   3.637 -0.2623  0.3553  0.4115
  222MOL    C6644708   4.593   6.588   3.563 -0.6337 -0.5789 -0.1989
  222MOL    H6744709   4.604   6.916   3.908  1.6989  0.4447  0.9310
  222MOL    H6844710   4.682   6.976   3.752 -0.3712 -1.3126 -1.9961
  222MOL    H6944711   4.736   6.739   3.586  1.6237  0.0360  3.3526
  222MOL    H7044712   4.569   6.623   3.462 -0.8477 -0.6780 -0.1837
  222MOL    H7144713   4.501   6.560   3.613 -0.2629  2.6886  2.5132
  222MOL    C7244714   4.692   6.468   3.565 -0.2003 -0.6301  0.2706
  222MOL    C7344715   4.645   6.347   3.482  0.2763  0.3457  0.1531
  222MOL   Cl7444716   4.535   6.247   3.563 -0.3071  0.0783  0.7302
  222MOL    C7544717   4.682   6.324   3.352  0.4049  0.4396 -0.3169
  222MOL    C7644718   4.637   6.202   3.266  0.1060 -0.2983  0.2174
  222MOL    H7744719   4.704   6.437   3.668 -2.7537 -1.7624  0.2780
  222MOL    H7844720   4.787   6.510   3.531  0.1126 -1.8990 -0.4462
  222MOL    H7944721   4.750   6.384   3.293 -2.0924  2.2606 -1.4525
  222MOL    H8044722   4.599   6.118   3.325  0.4171  0.1118  0.9968
  222MOL    H8144723   4.722   6.174   3.203  1.4777 -1.2335  2.4051
  222MOL    C8244724   4.528   6.245   3.168 -0.4142 -0.4818 -0.4142
  222MOL    C8344725   4.503   6.154   3.051 -0.0402 -1.0762 -0.2816
  222MOL   Cl8444726   4.569   6.221   2.896  0.0995 -0.5512 -0.0027
  222MOL    C8544727   4.438   6.038   3.056  0.2084 -0.2735 -0.0659
  222MOL    C8644728   4.403   5.948   2.941  0.4040 -0.1902 -0.4115
  222MOL    H8744729   4.562   6.345   3.142  1.9125 -1.4533 -1.2338
  222MOL    H8844730   4.434   6.264   3.218 -0.6751 -0.3219 -0.9584
  222MOL    H8944731   4.390   6.005   3.147  0.0058  1.4678  0.4743
  222MOL    H9044732   4.294   5.949   2.931  0.5724  1.0040 -2.2237
  222MOL    H9144733   4.440   5.980   2.845  0.2873  0.0118 -0.3887
  222MOL    C9244734   4.468   5.810   2.968  0.0639 -0.0130  0.3086
  222MOL    C9344735   4.447   5.704   2.855 -0.1076  0.3790  0.0379
  222MOL   Cl9444736   4.585   5.710   2.740 -0.2981  0.1918 -0.1754
  222MOL    C9544737   4.347   5.617   2.841  0.3634  0.4755  0.7878
  222MOL    C9644738   4.223   5.609   2.934  0.5822 -0.2021  0.5026
  222MOL    H9744739   4.429   5.772   3.063  1.2280 -1.4028  0.2470
  222MOL    H9844740   4.576   5.828   2.967  0.4084 -1.8917  0.2144
  222MOL    H9944741   4.353   5.543   2.763 -0.1550  2.2252 -0.9475
  222MOL   H10044742   4.211   5.701   2.991 -1.1248 -0.2653  0.2619
  222MOL   H10144743   4.133   5.624   2.874  0.7437 -1.5151 -0.0823
  222MOL   C10244744   4.233   5.480   3.016  0.3982  0.0395 -0.3395
  222MOL   C10344745   4.106   5.399   3.028 -0.1282 -1.0487 -0.5573
  222MOL  Cl10444746   4.088   5.336   3.196 -0.0982 -0.0616 -0.0197
  222MOL   C10544747   4.022   5.364   2.927 -0.5831 -0.0934 -0.1250
  222MOL   C10644748   3.902   5.284   2.930  0.3092 -0.1931  0.0998
  222MOL   H10744749   4.301   5.407   2.972  0.4503 -0.4630  0.5687
  222MOL   H10844750   4.272   5.499   3.116  1.0255  1.3859 -0.8269
  222MOL   H10944751   4.052   5.399   2.829  1.0294  0.3943  0.5306
  222MOL   H11044752   3.920   5.194   2.871 -0.8523 -0.0417 -0.4952
  222MOL   H11144753   3.872   5.245   3.028 -2.8079  0.9923 -0.3135
  222MOL   C11244754   3.793   5.367   2.866  1.0004 -0.0843  0.7557
  222MOL   C11344755   3.664   5.288   2.864  0.7415 -0.0079 -0.3433
  222MOL  Cl11444756   3.647   5.197   2.713  0.0976 -0.3683 -0.0274
  222MOL   C11544757   3.561   5.291   2.957  0.0178  0.5861 -0.0920
  222MOL   C11644758   3.566   5.361   3.089 -0.3387  0.1327 -0.4507
  222MOL   H11744759   3.783   5.457   2.926  1.8454  0.9155 -0.5904
  222MOL   H11844760   3.820   5.388   2.763  1.3940 -3.3154  0.1415
  222MOL   H11944761   3.483   5.219   2.938 -3.1132  3.4172  1.5901
  222MOL   H12044762   3.504   5.448   3.070 -1.1541 -0.2556  0.3815
  222MOL   H12144763   3.667   5.391   3.115 -0.3839 -0.0342 -0.0770
  222MOL   C12244764   3.521   5.288   3.220  0.4350  0.3888  0.3883
  222MOL   C12344765   3.621   5.181   3.257  0.6628 -0.6151 -0.1656
  222MOL  Cl12444766   3.757   5.261   3.340  0.2123  0.5238 -0.0206
  222MOL   C12544767   3.629   5.053   3.211 -0.3338 -0.6243  0.3749
  222MOL   C12644768   3.531   4.978   3.120  0.5518 -0.0232  0.0779
  222MOL   H12744769   3.498   5.359   3.299  0.9234  0.2441  0.6568
  222MOL   H12844770   3.427   5.239   3.194 -0.0192  1.5529 -0.2071
  222MOL   H12944771   3.717   4.997   3.237  0.1073  0.2542  0.7876
  222MOL   H13044772   3.492   4.896   3.180 -0.0156 -0.5498 -0.9951
  222MOL   H13144773   3.445   5.038   3.089 -0.3081 -1.3170 -0.0410
  222MOL   C13244774   3.599   4.915   2.991 -0.2744  0.8223 -0.0989
  222MOL   C13344775   3.513   4.826   2.906  0.3653 -0.3884 -0.3048
  222MOL  Cl13444776   3.397   4.919   2.816 -0.0984  0.4771  0.2722
  222MOL   C13544777   3.521   4.692   2.898  0.8200 -0.1476  0.3549
  222MOL   C13644778   3.620   4.601   2.978 -0.0908  0.2780 -0.5771
  222MOL   H13744779   3.639   4.994   2.926  1.6518  1.5442  1.9142
  222MOL   H13844780   3.684   4.857   3.027 -2.4307 -2.4074 -0.0840
  222MOL   H13944781   3.461   4.634   2.830 -0.5023  1.3367  0.2263
  222MOL   H14044782   3.708   4.593   2.914  0.1459 -1.8366 -0.0281
  222MOL   H14144783   3.650   4.655   3.068  0.5139  3.7180 -2.7548
  222MOL   C14244784   3.571   4.470   3.033  0.5114  0.1844 -0.1935
  222MOL   C14344785   3.673   4.380   3.106  0.3735  0.3599 -0.1329
  222MOL  Cl14444786   3.632   4.356   3.275  0.0304 -0.3924  0.0300
  222MOL   C14544787   3.786   4.335   3.053  0.3792 -0.5940 -0.0814
  222MOL   C14644788   3.895   4.265   3.130  0.0387 -0.2635  0.5985
  222MOL   H14744789   3.507   4.415   2.964 -1.9465  1.4101  1.0594
  222MOL   H14844790   3.497   4.492   3.109 -0.3147  0.2167 -1.0057
  222MOL   H14944791   3.815   4.346   2.950  1.3120  0.0837  0.2437
  222MOL   H15044792   3.984   4.316   3.093 -0.1853 -1.0472 -1.0220
  222MOL   H15144793   3.891   4.280   3.238  1.7000 -0.4675  0.6982
  222MOL   C15244794   3.894   4.114   3.101  0.0583 -0.4007  0.8440
  222MOL   C15344795   3.946   4.092   2.960  0.0268 -0.4184 -0.0506
  222MOL  Cl15444796   3.814   4.076   2.844  0.4707  0.0422 -0.1698
  222MOL   C15544797   4.077   4.086   2.929  0.1303 -0.0965  0.0066
  222MOL   C15644798   4.129   4.074   2.788 -0.0449  0.0772  0.5006
  222MOL   H15744799   3.958   4.052   3.164 -0.9650 -0.0262  2.2699
  222MOL   H15844800   3.792   4.079   3.118 -0.1143 -0.0917  0.4748
  222MOL   H15944801   4.149   4.095   3.009  2.0779  5.2972 -2.1170
  222MOL   H16044802   4.170   4.173   2.767 -1.2352  0.2863 -0.8720
  222MOL   H16144803   4.053   4.062   2.711 -0.0639 -1.3913  0.7253
  222MOL   C16244804   4.240   3.971   2.781  0.5464  0.3101  0.9548
  222MOL   C16344805   4.310   3.959   2.642 -0.4309 -0.0864  0.5198
  222MOL  Cl16444806   4.438   3.857   2.641 -0.1533  0.0038  0.0886
  222MOL   C16544807   4.290   4.050   2.541  0.1111  0.2007 -0.7590
  222MOL   C16644808   4.365   4.051   2.410 -0.3906 -0.0275 -0.0867
  222MOL   H16744809   4.318   3.988   2.855 -0.7623 -2.0036  2.9505
  222MOL   H16844810   4.197   3.873   2.805  1.1739 -0.3282 -0.4326
  222MOL   H16944811   4.210   4.122   2.543 -0.6890 -0.6383 -2.0306
  222MOL   H17044812   4.401   3.950   2.390 -2.9029 -0.9552 -0.0592
  222MOL   H17144813   4.290   4.060   2.332  1.9434  0.6819 -2.3353
  222MOL   C17244814   4.471   4.153   2.395  0.2124 -0.0819  0.0092
  222MOL   C17344815   4.560   4.122   2.271  0.5988  0.1041 -0.6324
  222MOL  Cl17444816   4.665   4.259   2.236  0.4505  0.1008 -0.2195
  222MOL   C17544817   4.567   4.015   2.189 -0.3746 -0.6143 -0.3378
  222MOL   C17644818   4.654   4.000   2.068 -0.4130 -0.1067  0.7628
  222MOL   H17744819   4.538   4.135   2.480 -0.2566 -2.0245 -0.0036
  222MOL   H17844820   4.435   4.256   2.389  2.0625  0.6389  0.8191
  222MOL   H17944821   4.505   3.927   2.203 -0.1901 -0.6886  0.0016
  222MOL   H18044822   4.676   3.895   2.051 -0.0741  0.3514 -1.9100
  222MOL   H18144823   4.750   4.049   2.082 -0.1498 -1.1888  2.9547
  222MOL   C18244824   4.592   4.048   1.933 -0.1148  0.8490 -0.6512
  222MOL   C18344825   4.676   3.998   1.817  0.2723  0.7392 -0.2316
  222MOL  Cl18444826   4.641   3.830   1.783  0.1450  0.2102  0.7352
  222MOL   C18544827   4.773   4.065   1.756  0.1889 -0.2869  0.0895
  222MOL   C18644828   4.862   4.019   1.640 -0.3346 -0.0984 -0.9939
  222MOL   H18744829   4.493   4.002   1.932  1.0406 -1.7390 -0.3893
  222MOL   H18844830   4.584   4.157   1.930  3.3432  1.1359 -1.5032
  222MOL   H18944831   4.789   4.168   1.782 -2.6126 -0.0463  0.9538
  222MOL   H19044832   4.866   3.911   1.628  0.8892  0.1479 -2.8697
  222MOL   H19144833   4.814   4.053   1.548  0.5915 -3.5168 -2.8374
  222MOL   C19244834   4.992   4.095   1.630 -0.0102 -0.1151  0.2530
  222MOL   C19344835   4.977   4.242   1.612 -0.4128  0.6167  0.4826
  222MOL  Cl19444836   5.022   4.328   1.761  0.3159  0.5125  0.1678
  222MOL   C19544837   4.953   4.308   1.497 -0.3840  0.1157 -0.5802
  222MOL   C19644838   4.930   4.243   1.367 -0.4998  0.4559 -0.1628
  222MOL   H19744839   5.044   4.056   1.543 -2.4705  1.4791 -1.9873
  222MOL   H19844840   5.042   4.082   1.727  1.8031  2.3047 -0.2773
  222MOL   H19944841   4.948   4.416   1.504 -2.6529  0.0635 -0.9331
  222MOL   H20044842   4.833   4.278   1.332 -0.1190  2.1470  0.4304
  222MOL   H20144843   4.933   4.134   1.371 -1.3015  0.3803 -1.2779
  222MOL   H20244844   5.003   4.286   1.297 -0.1581 -0.0122 -0.0989
  223MOL     C144845   6.433   7.910   5.642 -0.4961  0.7904  0.3629
  223MOL     C244846   6.514   7.795   5.586 -0.2302 -0.4833 -0.2884
  223MOL    Cl344847   6.464   7.745   5.429 -0.1670  0.0892  0.2074
  223MOL     C444848   6.614   7.732   5.649 -0.1892  0.1398 -0.4238
  223MOL     C544849   6.653   7.761   5.797  0.0297 -0.5578 -0.3968
  223MOL     H644850   6.398   7.890   5.743  0.3723 -2.9130  0.0149
  223MOL     H744851   6.347   7.928   5.578 -1.6639 -1.7851  1.1464
  223MOL     H844852   6.670   7.653   5.602 -0.0173 -0.7360  1.2084
  223MOL     H944853   6.738   7.825   5.772  0.8397 -1.5526 -0.2022
  223MOL    H1044854   6.567   7.814   5.838  1.3468  2.0658 -0.9066
  223MOL    H1144855   6.493   8.002   5.646 -1.0629  1.1755 -0.0230
  223MOL    C1244856   6.695   7.631   5.870  0.2554 -0.1925 -0.2481
  223MOL    C1344857   6.766   7.642   6.007  0.2039  0.5134  0.0444
  223MOL   Cl1444858   6.655   7.635   6.141 -0.2028 -0.1195 -0.2683
  223MOL    C1544859   6.900   7.670   6.021  0.4926 -0.1638  0.0067
  223MOL    C1644860   7.000   7.681   5.913 -0.1092  0.3328 -0.3564
  223MOL    H1744861   6.601   7.584   5.900  1.8178 -2.7555  0.8372
  223MOL    H1844862   6.746   7.556   5.810 -0.1347 -1.3608  0.8481
  223MOL    H1944863   6.937   7.673   6.123 -0.4431 -2.7648  0.4611
  223MOL    H2044864   7.089   7.621   5.932  0.2955  0.9422 -0.3007
  223MOL    H2144865   6.949   7.667   5.818 -0.7320  3.5200 -0.5450
  223MOL    C2244866   7.068   7.812   5.900 -0.2353 -0.2953  0.7773
  223MOL    C2344867   7.134   7.871   6.027  0.3364 -0.1696  0.0474
  223MOL   Cl2444868   7.049   7.997   6.101 -0.0862  0.2676  0.6959
  223MOL    C2544869   7.254   7.834   6.076  0.1445 -0.3147 -0.2264
  223MOL    C2644870   7.326   7.882   6.194  0.1235 -0.3233 -0.1096
  223MOL    H2744871   7.144   7.803   5.823  0.5721  1.4274  1.3598
  223MOL    H2844872   7.005   7.892   5.861 -0.1203  0.3635  1.9194
  223MOL    H2944873   7.316   7.765   6.022  0.9673 -0.3880  0.7905
  223MOL    H3044874   7.406   7.945   6.155  0.0763 -0.6465 -0.7474
  223MOL    H3144875   7.259   7.945   6.252  0.5552 -0.1767  0.2285
  223MOL    C3244876   7.372   7.763   6.274  0.1051 -0.3656 -0.8841
  223MOL    C3344877   7.430   7.800   6.412 -0.1329 -0.2661 -0.1563
  223MOL   Cl3444878   7.300   7.792   6.523  0.1801 -0.3031 -0.5257
  223MOL    C3544879   7.557   7.823   6.444  0.5891 -0.4789 -0.1263
  223MOL    C3644880   7.606   7.849   6.585 -0.3119  0.3403  0.2755
  223MOL    H3744881   7.289   7.694   6.292 -0.2665  0.1108 -0.7705
  223MOL    H3844882   7.450   7.707   6.221  0.8548 -0.1104 -0.0690
  223MOL    H3944883   7.640   7.815   6.375  0.4982  0.7570 -0.3945
  223MOL    H4044884   7.534   7.816   6.660 -0.6213 -1.1331 -0.6486
  223MOL    H4144885   7.693   7.788   6.610 -1.3724 -1.2317  0.2056
  223MOL    C4244886   7.648   7.993   6.610 -0.0878  0.3324 -1.4785
  223MOL    C4344887   7.671   8.027   6.754  0.1057 -0.4815 -0.2311
  223MOL   Cl4444888   7.834   7.992   6.806  0.5664  0.2649  0.0476
  223MOL    C4544889   7.576   8.063   6.846  0.1158 -0.3034 -0.5907
  223MOL    C4644890   7.427   8.087   6.823 -0.0371 -0.2384 -0.0938
  223MOL    H4744891   7.734   8.010   6.547 -0.0520 -0.0544 -1.5377
  223MOL    H4844892   7.565   8.051   6.569 -0.7633 -0.4480 -1.2408
  223MOL    H4944893   7.592   8.077   6.951 -1.0609  1.2673 -0.6047
  223MOL    H5044894   7.384   8.184   6.846 -0.7593 -0.6521  0.2998
  223MOL    H5144895   7.402   8.066   6.719 -0.8822  2.3761 -0.4599
  223MOL    C5244896   7.344   7.984   6.896 -0.0212  0.1207 -0.5815
  223MOL    C5344897   7.197   8.018   6.884  0.5193 -0.0170  0.7521
  223MOL   Cl5444898   7.148   8.112   7.028  0.0348  0.6482  0.0651
  223MOL    C5544899   7.109   7.973   6.789  0.5251  0.7471 -0.8578
  223MOL    C5644900   6.952   7.989   6.778  0.2459  0.7407 -0.5749
  223MOL    H5744901   7.352   7.889   6.843 -2.6194 -0.9578  0.8861
  223MOL    H5844902   7.361   7.948   6.997 -1.5225 -2.2498 -1.1302
  223MOL    H5944903   7.143   7.912   6.706  0.8643 -0.6565  0.2980
  223MOL    H6044904   6.908   7.900   6.824  2.0004  0.3525  0.4015
  223MOL    H6144905   6.935   8.077   6.839  2.1083  1.6049 -1.2856
  223MOL    C6244906   6.889   8.012   6.645 -0.0348  0.1561  0.0872
  223MOL    C6344907   6.889   7.885   6.561  0.1127 -0.1734 -0.1094
  223MOL   Cl6444908   6.967   7.905   6.405 -0.0769 -0.2134  0.1669
  223MOL    C6544909   6.826   7.768   6.589  1.0030 -0.2228 -0.6392
  223MOL    C6644910   6.819   7.655   6.497 -0.0842 -0.5589  0.2328
  223MOL    H6744911   6.791   8.057   6.658 -0.3942 -0.7623  0.5931
  223MOL    H6844912   6.942   8.087   6.587 -0.3612 -0.4734 -1.0448
  223MOL    H6944913   6.776   7.761   6.685 -0.2716  1.8079 -1.1094
  223MOL    H7044914   6.798   7.681   6.393 -0.2771  0.3510  0.4952
  223MOL    H7144915   6.733   7.600   6.533 -1.2749  1.0804 -0.0165
  223MOL    C7244916   6.949   7.560   6.517 -0.0330 -0.9696 -0.1745
  223MOL    C7344917   6.959   7.438   6.429 -0.0345  0.0721 -0.1980
  223MOL   Cl7444918   6.807   7.344   6.404 -0.3384  0.2158 -0.2917
  223MOL    C7544919   7.073   7.403   6.370  0.5710  0.3855 -0.6138
  223MOL    C7644920   7.101   7.277   6.294 -0.0207 -0.1386 -0.5496
  223MOL    H7744921   6.957   7.520   6.618 -1.4776  1.0827  0.7897
  223MOL    H7844922   7.036   7.626   6.506  1.8181 -3.2179  0.4881
  223MOL    H7944923   7.156   7.472   6.379 -1.2184  2.3736  1.2312
  223MOL    H8044924   7.017   7.209   6.305 -0.1044 -0.0051 -0.3797
  223MOL    H8144925   7.185   7.233   6.348  0.3767  0.0943 -0.9747
  223MOL    C8244926   7.127   7.297   6.143  0.0710  0.4658 -0.4572
  223MOL    C8344927   7.185   7.172   6.090  0.2663 -0.3992  0.5329
  223MOL   Cl8444928   7.352   7.194   6.063 -0.0270 -0.2154  0.3003
  223MOL    C8544929   7.137   7.048   6.076  0.4938 -0.4221  0.2850
  223MOL    C8644930   7.208   6.920   6.029  0.1898 -0.1556  0.4014
  223MOL    H8744931   7.190   7.381   6.117  0.0620  0.6514  0.1137
  223MOL    H8844932   7.035   7.329   6.094 -1.8915  1.4663  3.6715
  223MOL    H8944933   7.036   7.028   6.107  0.6710 -1.0915  0.4577
  223MOL    H9044934   7.299   6.941   5.974  1.7551 -2.5837  1.9666
  223MOL    H9144935   7.246   6.864   6.115  0.7293 -0.6571 -0.1673
  223MOL    C9244936   7.104   6.838   5.952 -0.3277  0.0158 -0.2938
  223MOL    C9344937   7.173   6.708   5.899 -0.9872  0.7326 -0.8160
  223MOL   Cl9444938   7.161   6.574   6.010 -0.2786  0.1571  0.0783
  223MOL    C9544939   7.237   6.702   5.781  0.2110  0.7647 -0.0963
  223MOL    C9644940   7.269   6.814   5.679 -0.2504 -0.2043 -0.0442
  223MOL    H9744941   7.056   6.896   5.873 -1.8943 -1.1795 -0.2335
  223MOL    H9844942   7.017   6.814   6.013 -1.7795  2.7048 -1.2008
  223MOL    H9944943   7.277   6.607   5.747 -0.7970  0.6952 -1.1072
  223MOL   H10044944   7.225   6.781   5.584  2.2042  1.5819 -1.8689
  223MOL   H10144945   7.221   6.909   5.702 -0.5364 -0.1829 -0.6950
  223MOL   C10244946   7.427   6.828   5.652 -0.3846  0.0242  0.3237
  223MOL   C10344947   7.463   6.952   5.570 -0.2692 -0.4016  0.0319
  223MOL  Cl10444948   7.468   7.092   5.674  0.3777  0.0751  0.3448
  223MOL   C10544949   7.489   6.960   5.440  0.0989 -0.2760  0.6107
  223MOL   C10644950   7.528   7.085   5.360 -0.2769 -0.3439 -0.3791
  223MOL   H10744951   7.481   6.831   5.746  1.1475 -1.0677 -0.4983
  223MOL   H10844952   7.459   6.735   5.605 -0.6092  0.0453  0.1262
  223MOL   H10944953   7.488   6.866   5.386 -0.3223  0.6865 -1.0993
  223MOL   H11044954   7.474   7.172   5.397 -2.0279 -0.7518 -1.8705
  223MOL   H11144955   7.630   7.107   5.390 -1.1723  2.1773  0.9715
  223MOL   C11244956   7.504   7.070   5.214 -0.8848 -0.2416  0.9668
  223MOL   C11344957   7.572   7.176   5.124 -0.1756  0.4381  0.0435
  223MOL  Cl11444958   7.462   7.300   5.086 -0.2392  0.0910 -0.0032
  223MOL   C11544959   7.700   7.175   5.083 -0.4478  0.1045 -0.4411
  223MOL   C11644960   7.799   7.072   5.119 -0.6610 -0.2060 -1.0233
  223MOL   H11744961   7.513   6.968   5.176 -0.5703  0.2235 -0.2437
  223MOL   H11844962   7.397   7.079   5.196 -0.7024 -1.8936 -1.1580
  223MOL   H11944963   7.736   7.266   5.035  0.5861  0.0959  0.2851
  223MOL   H12044964   7.752   6.986   5.167  0.3648 -0.1742  0.0562
  223MOL   H12144965   7.851   7.126   5.198 -0.9793 -0.1036 -0.8821
  223MOL   C12244966   7.882   7.025   5.006 -0.8641  0.4627 -0.3161
  223MOL   C12344967   7.816   6.949   4.897 -0.3729  0.2578 -0.6347
  223MOL  Cl12444968   7.756   7.048   4.768  0.1493  0.3227 -0.3948
  223MOL   C12544969   7.809   6.813   4.880 -0.0397 -0.1829 -0.1398
  223MOL   C12644970   7.865   6.707   4.975 -0.0622 -0.5611  0.4982
  223MOL   H12744971   7.960   7.095   4.976  0.6842 -0.8434  0.5695
  223MOL   H12844972   7.956   6.955   5.044 -1.0999  1.1737  1.4837
  223MOL   H12944973   7.754   6.772   4.797  0.3414 -2.8301  0.8581
  223MOL   H13044974   7.891   6.746   5.073  0.1886  1.0273 -0.1695
  223MOL   H13144975   7.793   6.631   5.004 -1.0806 -0.4622 -1.6250
  223MOL   C13244976   7.991   6.643   4.922  0.1668  0.3722  0.9793
  223MOL   C13344977   8.038   6.528   5.009  0.2499  0.0433 -0.0962
  223MOL  Cl13444978   8.166   6.596   5.105 -0.2684  0.0077 -0.0712
  223MOL   C13544979   8.004   6.397   4.995  0.7403  0.3859  0.0442
  223MOL   C13644980   7.901   6.341   4.890 -0.8984 -0.1579 -0.1713
  223MOL   H13744981   7.985   6.610   4.818  5.8289  1.9102  0.0099
  223MOL   H13844982   8.070   6.717   4.914  0.5077 -0.1400 -0.6025
  223MOL   H13944983   8.056   6.328   5.060  4.2508  1.8618 -1.1010
  223MOL   H14044984   7.815   6.321   4.954 -0.6075  0.3343  0.3858
  223MOL   H14144985   7.867   6.414   4.818 -0.0050  0.0519 -0.3889
  223MOL   C14244986   7.946   6.220   4.816  0.6353  0.2239 -0.0444
  223MOL   C14344987   7.817   6.146   4.774 -0.4786 -0.0922  0.1996
  223MOL  Cl14444988   7.768   6.028   4.899  0.1249 -0.1671  0.1677
  223MOL   C14544989   7.762   6.158   4.656  0.1904 -0.0529  0.3582
  223MOL   C14644990   7.644   6.073   4.607  0.9335  0.7728 -0.2661
  223MOL   H14744991   8.006   6.156   4.881  2.2059 -0.8809 -2.5178
  223MOL   H14844992   8.014   6.243   4.735  0.6702  0.7460  0.1349
  223MOL   H14944993   7.807   6.229   4.589  0.8763  0.3141  1.1928
  223MOL   H15044994   7.601   6.010   4.684 -0.0341  0.9557 -0.6535
  223MOL   H15144995   7.553   6.132   4.601 -0.1161 -0.6857  1.0920
  223MOL   C15244996   7.676   5.990   4.480 -0.7365 -0.2283 -0.0049
  223MOL   C15344997   7.547   5.929   4.408 -1.1251  0.3451 -0.1515
  223MOL  Cl15444998   7.518   5.759   4.440  0.3352 -0.3858 -0.2218
  223MOL   C15544999   7.476   5.997   4.322  0.1951 -0.6812  0.4734
  223MOL   C15645000   7.348   5.949   4.253 -0.5823 -0.3432  0.1088
  223MOL   H15745001   7.717   6.071   4.420 -0.8507 -0.0266  0.1884
  223MOL   H15845002   7.764   5.926   4.480  0.6567  1.6198  2.1233
  223MOL   H15945003   7.500   6.101   4.301 -0.6777 -0.5531  0.0747
  223MOL   H16045004   7.254   5.963   4.306  0.7765 -0.0972  2.5012
  223MOL   H16145005   7.353   5.840   4.250 -1.0299 -0.4671  3.0409
  223MOL   C16245006   7.330   6.015   4.114 -0.0255  0.3174 -0.5584
  223MOL   C16345007   7.209   5.957   4.037 -0.2170 -0.4569 -0.4681
  223MOL  Cl16445008   7.077   6.071   4.033 -0.2344  0.3522 -0.1295
  223MOL   C16545009   7.198   5.838   3.973  0.2051  0.2074 -0.1596
  223MOL   C16645010   7.088   5.803   3.878 -0.1422 -1.1331  0.6793
  223MOL   H16745011   7.299   6.118   4.128 -2.2255 -0.4530  0.5085
  223MOL   H16845012   7.416   6.011   4.048  0.3517 -1.8938  0.0083
  223MOL   H16945013   7.275   5.762   3.976  2.8164  2.7540 -0.2615
  223MOL   H17045014   7.007   5.876   3.882  1.5142  0.7304  0.8631
  223MOL   H17145015   7.134   5.826   3.781 -1.7201 -2.3683 -0.3953
  223MOL   C17245016   7.031   5.665   3.889  0.1097  0.2123  0.2396
  223MOL   C17345017   6.934   5.631   3.778  0.8740 -0.0319 -0.1648
  223MOL  Cl17445018   7.011   5.618   3.619 -0.0971  0.1320  0.0158
  223MOL   C17545019   6.801   5.606   3.798 -0.1209  0.0594  0.3583
  223MOL   C17645020   6.705   5.562   3.696  0.1376 -0.0739  0.3007
  223MOL   H17745021   6.991   5.635   3.986 -0.5667 -3.2367 -1.0173
  223MOL   H17845022   7.118   5.600   3.872  1.3393  1.4836  1.6183
  223MOL   H17945023   6.749   5.615   3.892  0.4057 -1.3218  0.7861
  223MOL   H18045024   6.652   5.476   3.736  1.2157 -0.0598  1.7728
  223MOL   H18145025   6.753   5.527   3.605  0.9410  0.6808  0.4207
  223MOL   C18245026   6.623   5.680   3.650  0.6448 -0.2107 -0.2034
  223MOL   C18345027   6.557   5.662   3.515  0.4364 -0.1118  0.2523
  223MOL  Cl18445028   6.513   5.816   3.451  0.0314  0.0000  0.2081
  223MOL   C18545029   6.534   5.546   3.449  0.3798  0.2656  0.1369
  223MOL   C18645030   6.466   5.531   3.309  0.7535  0.3212 -0.8923
  223MOL   H18745031   6.541   5.694   3.721  0.4985 -3.6116  0.4319
  223MOL   H18845032   6.686   5.769   3.646  0.7325 -0.2098  0.9988
  223MOL   H18945033   6.564   5.454   3.497 -0.8585 -0.5655 -0.6453
  223MOL   H19045034   6.425   5.621   3.262 -1.2972 -0.0831  0.0628
  223MOL   H19145035   6.547   5.496   3.245  1.8533  0.6232  0.3283
  223MOL   C19245036   6.357   5.423   3.320  0.3353  0.0214 -0.1321
  223MOL   C19345037   6.278   5.404   3.194  0.5626  0.2990  0.0343
  223MOL  Cl19445038   6.159   5.524   3.180  0.1316  0.2990  0.0788
  223MOL   C19545039   6.302   5.307   3.100  0.2999  0.3532 -0.3906
  223MOL   C19645040   6.410   5.206   3.115 -0.6700  0.5139 -0.2927
  223MOL   H19745041   6.285   5.443   3.399  0.8450 -2.0276  0.8972
  223MOL   H19845042   6.394   5.326   3.354 -1.0081 -0.1984  0.6973
  223MOL   H19945043   6.242   5.293   3.011  1.5696 -2.5178 -0.8343
  223MOL   H20045044   6.476   5.200   3.028  1.2850 -0.1201  1.2054
  223MOL   H20145045   6.366   5.108   3.096 -1.3753  1.1244 -1.9613
  223MOL   H20245046   6.467   5.212   3.207  0.6808 -0.2722 -1.0571
  224MOL     C145047   3.633   5.580   7.223  0.4851  0.6813 -0.5055
  224MOL     C245048   3.656   5.454   7.304  0.9397 -0.5999  0.0682
  224MOL    Cl345049   3.798   5.465   7.413  0.0895 -0.1877  0.1872
  224MOL     C445050   3.575   5.346   7.289 -0.6685  0.2583 -0.3638
  224MOL     C545051   3.436   5.337   7.212 -0.2877 -0.4103  0.6282
  224MOL     H645052   3.531   5.614   7.241  0.2362 -0.2929 -0.0021
  224MOL     H745053   3.659   5.582   7.117 -0.4305 -0.8236 -0.7718
  224MOL     H845054   3.603   5.254   7.340  0.4511  0.4748 -0.5815
  224MOL     H945055   3.354   5.294   7.270  0.2155 -0.6469  1.1810
  224MOL    H1045056   3.394   5.436   7.199 -1.8049 -0.7424  2.7451
  224MOL    H1145057   3.687   5.659   7.275  0.0840 -0.4277  1.6928
  224MOL    C1245058   3.462   5.258   7.085 -0.5285 -0.7574  0.0906
  224MOL    C1345059   3.345   5.294   6.998  0.0517  0.3113  0.8978
  224MOL   Cl1445060   3.369   5.436   6.908  0.1420  0.4162 -0.3737
  224MOL    C1545061   3.227   5.236   7.009 -0.8268 -0.8724  0.6677
  224MOL    C1645062   3.179   5.112   7.093 -0.4931 -0.5373 -0.1731
  224MOL    H1745063   3.555   5.284   7.035  0.2450  0.3860  2.0635
  224MOL    H1845064   3.472   5.152   7.107 -2.1302 -0.9599 -0.1438
  224MOL    H1945065   3.147   5.280   6.950  0.5823  2.4679  1.0948
  224MOL    H2045066   3.248   5.090   7.175 -1.4038  0.6990  0.9380
  224MOL    H2145067   3.083   5.134   7.140 -1.7549 -0.7114 -2.5986
  224MOL    C2245068   3.157   4.993   6.996 -0.3798 -0.7894  0.3984
  224MOL    C2345069   3.292   4.937   6.930  0.3326 -0.1747  0.7859
  224MOL   Cl2445070   3.283   4.968   6.757 -0.1899  0.1451 -0.1419
  224MOL    C2545071   3.394   4.873   6.988 -0.1831  0.7317  0.1014
  224MOL    C2645072   3.515   4.821   6.914  0.3013 -0.7716  0.4035
  224MOL    H2745073   3.113   4.915   7.059  0.2490 -1.1132  0.4424
  224MOL    H2845074   3.088   5.022   6.917  0.6974  0.4213 -0.1080
  224MOL    H2945075   3.381   4.853   7.094 -1.5205 -0.1870 -0.2344
  224MOL    H3045076   3.486   4.804   6.811 -0.6697  1.6753  0.2529
  224MOL    H3145077   3.605   4.883   6.919 -0.7129  0.7594 -0.2878
  224MOL    C3245078   3.566   4.677   6.967  0.5470  0.5430 -0.1329
  224MOL    C3345079   3.569   4.664   7.115 -0.7403 -0.3984  0.3167
  224MOL   Cl3445080   3.682   4.776   7.178 -0.0798 -0.2157 -0.0036
  224MOL    C3545081   3.500   4.570   7.184 -0.6942  0.4809 -0.0355
  224MOL    C3645082   3.501   4.551   7.343  0.0853  0.1098  0.5796
  224MOL    H3745083   3.503   4.603   6.918 -0.1809  0.3342  1.0971
  224MOL    H3845084   3.670   4.669   6.938  0.8986 -2.0492  1.7053
  224MOL    H3945085   3.431   4.510   7.126 -1.3298  0.5540  0.6321
  224MOL    H4045086   3.496   4.645   7.397  1.4985 -0.1785  1.2243
  224MOL    H4145087   3.403   4.503   7.346  0.2894 -0.6730 -3.3067
  224MOL    C4245088   3.625   4.467   7.386 -0.1712 -0.3696  0.4766
  224MOL    C4345089   3.641   4.453   7.539  0.4677 -0.0471  1.0193
  224MOL   Cl4445090   3.547   4.327   7.603  0.1554 -0.4063  0.1948
  224MOL    C4545091   3.712   4.532   7.618  0.1679 -0.5163 -0.6519
  224MOL    C4645092   3.805   4.652   7.584  0.0794 -0.2867 -0.0529
  224MOL    H4745093   3.633   4.374   7.330  0.9993 -0.5094  0.8549
  224MOL    H4845094   3.704   4.527   7.341 -0.8646 -0.5817 -1.0570
  224MOL    H4945095   3.699   4.507   7.722 -1.9006 -0.8674 -0.9893
  224MOL    H5045096   3.906   4.620   7.610  0.9008  0.6130 -2.0910
  224MOL    H5145097   3.809   4.671   7.477 -2.5026 -0.1516 -0.1608
  224MOL    C5245098   3.761   4.769   7.671  0.4062  0.6768 -0.1176
  224MOL    C5345099   3.814   4.904   7.625  0.3074  0.0656 -0.3595
  224MOL   Cl5445100   3.902   4.977   7.754 -0.3004 -0.3019 -0.0376
  224MOL    C5545101   3.788   4.964   7.506 -0.2709 -0.1080  0.0973
  224MOL    C5645102   3.839   5.099   7.458  0.3629  1.2689 -0.1879
  224MOL    H5745103   3.655   4.791   7.659  0.1537  0.1326  1.0568
  224MOL    H5845104   3.794   4.759   7.775  1.4095  1.2867 -0.3705
  224MOL    H5945105   3.734   4.903   7.435  0.7308  0.4052 -1.1416
  224MOL    H6045106   3.755   5.169   7.465 -1.3319 -0.8177  0.9274
  224MOL    H6145107   3.907   5.126   7.538  0.0824 -0.5491  0.6989
  224MOL    C6245108   3.901   5.086   7.319 -0.0915  0.2299 -0.2483
  224MOL    C6345109   4.018   4.988   7.319  0.2175 -0.2131 -0.0248
  224MOL   Cl6445110   3.999   4.867   7.200 -0.1560 -0.0845  0.4551
  224MOL    C6545111   4.131   5.005   7.392 -0.5364 -0.2703  0.7181
  224MOL    C6645112   4.244   4.909   7.385 -0.2237  0.2453 -0.2632
  224MOL    H6745113   3.832   5.065   7.238 -0.7788 -1.0511  0.6679
  224MOL    H6845114   3.930   5.186   7.286  0.5298  1.0700  2.7649
  224MOL    H6945115   4.138   5.097   7.449 -1.2967  0.5780 -0.5221
  224MOL    H7045116   4.216   4.823   7.325 -1.0618  0.1079  0.3148
  224MOL    H7145117   4.249   4.874   7.488  0.0714  1.9713  0.3426
  224MOL    C7245118   4.383   4.967   7.345 -0.3005 -0.3852 -0.3251
  224MOL    C7345119   4.495   4.873   7.366  0.2969  0.6469  0.4648
  224MOL   Cl7445120   4.611   4.932   7.479  0.4294 -0.0341  0.1402
  224MOL    C7545121   4.513   4.750   7.314  0.3057 -0.7189 -0.2249
  224MOL    C7645122   4.618   4.650   7.358 -0.4473  0.3450 -0.3196
  224MOL    H7745123   4.398   5.051   7.412 -0.5054  0.1323 -0.9307
  224MOL    H7845124   4.392   5.004   7.243  0.8027 -2.6909 -1.1048
  224MOL    H7945125   4.445   4.720   7.236  0.1654  0.2826 -0.4915
  224MOL    H8045126   4.672   4.692   7.443  1.0622 -0.0171 -1.0821
  224MOL    H8145127   4.679   4.633   7.270  0.9184 -2.6653  1.1649
  224MOL    C8245128   4.560   4.513   7.376  0.4788  0.1132 -0.0762
  224MOL    C8345129   4.661   4.425   7.450  0.4721  0.5643  0.6067
  224MOL   Cl8445130   4.605   4.402   7.611  0.0402 -0.7873 -0.0041
  224MOL    C8545131   4.764   4.367   7.389 -0.0221  0.3009 -0.1092
  224MOL    C8645132   4.861   4.274   7.458  0.5930  0.2134 -0.0895
  224MOL    H8745133   4.520   4.464   7.287 -0.3626 -0.0422  0.3788
  224MOL    H8845134   4.468   4.528   7.434 -0.2776  1.1056 -1.5091
  224MOL    H8945135   4.784   4.386   7.284 -1.4771  2.7298  0.0296
  224MOL    H9045136   4.948   4.336   7.479  1.8661 -1.2243 -0.9820
  224MOL    H9145137   4.824   4.251   7.558 -0.2053  0.3405 -0.3586
  224MOL    C9245138   4.888   4.150   7.373 -0.0553  0.0188 -0.1808
  224MOL    C9345139   4.986   4.055   7.426  0.5341 -0.1655  0.3347
  224MOL   Cl9445140   5.146   4.113   7.414 -0.0587 -0.0455  0.0227
  224MOL    C9545141   4.969   3.926   7.457 -0.5877  0.1947 -0.9552
  224MOL    C9645142   4.839   3.845   7.455  0.1579  0.0566  0.8686
  224MOL    H9745143   4.916   4.157   7.268 -0.6405  0.0403 -0.3349
  224MOL    H9845144   4.798   4.090   7.364  1.0128 -1.7373  0.5154
  224MOL    H9945145   5.056   3.870   7.489 -1.4835  0.0249  1.2274
  224MOL   H10045146   4.766   3.883   7.382  0.3155 -1.4752 -0.1291
  224MOL   H10145147   4.872   3.750   7.413  0.1291  0.4953 -0.1773
  224MOL   C10245148   4.782   3.821   7.596  0.1856 -0.2691  0.1705
  224MOL   C10345149   4.693   3.933   7.647  0.7756  0.1299 -0.6754
  224MOL  Cl10445150   4.792   4.033   7.746  0.2943 -0.0199  0.0260
  224MOL   C10545151   4.559   3.944   7.635  0.9233 -0.1304 -0.4530
  224MOL   C10645152   4.466   4.058   7.686 -0.0478 -0.5856 -0.0751
  224MOL   H10745153   4.715   3.737   7.580 -1.1039 -0.0796  4.1368
  224MOL   H10845154   4.857   3.798   7.672  0.1800  1.1426  0.6196
  224MOL   H10945155   4.511   3.866   7.577  1.3637 -0.5456 -0.2664
  224MOL   H11045156   4.509   4.148   7.730  0.7404 -0.2658 -1.4574
  224MOL   H11145157   4.423   4.092   7.591 -2.1558  1.9915  1.7529
  224MOL   C11245158   4.344   4.014   7.768 -0.7664 -0.9247  0.8053
  224MOL   C11345159   4.213   4.044   7.697  0.7204 -0.1586  0.6117
  224MOL  Cl11445160   4.178   4.220   7.707  0.4079  0.4402  0.2530
  224MOL   C11545161   4.124   3.952   7.656  0.5240 -0.5000  0.6302
  224MOL   C11645162   4.131   3.795   7.665  0.0717 -0.1886  0.5293
  224MOL   H11745163   4.347   3.906   7.782 -1.7923 -1.1536 -0.6212
  224MOL   H11845164   4.342   4.064   7.865 -3.3707  1.4758 -0.3892
  224MOL   H11945165   4.028   3.984   7.619  0.7331 -1.7717 -1.0333
  224MOL   H12045166   4.030   3.757   7.653  1.1937 -2.9086 -0.7163
  224MOL   H12145167   4.151   3.757   7.765 -0.5532 -0.9683  0.3574
  224MOL   C12245168   4.219   3.725   7.552 -0.1194 -0.3822 -0.3728
  224MOL   C12345169   4.258   3.583   7.585  0.4466  0.0461 -0.8423
  224MOL  Cl12445170   4.387   3.580   7.693 -0.1975 -0.3068  0.2991
  224MOL   C12545171   4.197   3.467   7.538 -0.6456  0.0700 -0.4595
  224MOL   C12645172   4.082   3.464   7.441  0.1504 -0.0410  0.0330
  224MOL   H12745173   4.169   3.719   7.455 -1.6658 -0.9126  0.4373
  224MOL   H12845174   4.316   3.774   7.544 -0.9240  1.0989 -1.2504
  224MOL   H12945175   4.232   3.372   7.577 -0.2182  0.6862  0.6841
  224MOL   H13045176   4.090   3.559   7.388 -1.7938  0.2680  0.2730
  224MOL   H13145177   4.106   3.384   7.370  1.5314  1.3261 -1.0810
  224MOL   C13245178   3.937   3.452   7.494 -0.1279  0.3907  0.1054
  224MOL   C13345179   3.904   3.321   7.561 -0.5165  0.0752  0.3183
  224MOL  Cl13445180   3.824   3.208   7.455  0.2583  0.6892  0.4484
  224MOL   C13545181   3.921   3.301   7.693 -0.4044  0.3006  0.0710
  224MOL   C13645182   3.975   3.401   7.789 -0.1582  0.1333  0.3393
  224MOL   H13745183   3.910   3.531   7.565  0.2847  1.0389 -0.4480
  224MOL   H13845184   3.875   3.470   7.406  1.1281  0.1849 -0.8363
  224MOL   H13945185   3.890   3.212   7.746  1.8468 -1.1704 -0.9766
  224MOL   H14045186   4.026   3.343   7.866  1.2021 -0.1164 -0.7256
  224MOL   H14145187   4.040   3.470   7.736 -1.3338  0.2138 -1.0317
  224MOL   C14245188   3.861   3.490   7.858 -0.4071 -0.4595  0.0953
  224MOL   C14345189   3.905   3.587   7.973  0.8555 -0.5904  0.0806
  224MOL  Cl14445190   3.778   3.655   8.063 -0.1564 -0.2571  0.2695
  224MOL   C14545191   4.035   3.616   7.994  0.7037 -0.0100 -1.0545
  224MOL   C14645192   4.088   3.697   8.107  0.2147 -0.7832 -0.3080
  224MOL   H14745193   3.794   3.421   7.910 -3.0044  1.0737 -1.1318
  224MOL   H14845194   3.790   3.543   7.794 -1.4193  0.8090  2.1918
  224MOL   H14945195   4.112   3.583   7.926  0.9354  1.5405 -1.5634
  224MOL   H15045196   4.187   3.736   8.084  0.3951 -0.0392  1.5881
  224MOL   H15145197   4.041   3.795   8.115  1.1560 -0.3752  0.3769
  224MOL   C15245198   4.095   3.620   8.243 -0.7679  0.1883 -0.1704
  224MOL   C15345199   4.159   3.702   8.360 -0.1528  0.4844 -0.1396
  224MOL  Cl15445200   4.328   3.725   8.331  0.1829  0.3492  0.4853
  224MOL   C15545201   4.089   3.760   0.037  0.1637 -0.0543 -0.3513
  224MOL   C15645202   4.151   3.860   0.134  0.0461 -0.2310  0.0513
  224MOL   H15745203   3.992   3.603   8.274  0.0649 -0.6859  2.2664
  224MOL   H15845204   4.146   3.526   8.226  1.7474  1.6906 -1.3250
  224MOL   H15945205   3.990   3.725   0.062 -0.3558  2.0117  0.6568
  224MOL   H16045206   4.108   3.957   0.110  1.3099  0.4136  0.3634
  224MOL   H16145207   4.257   3.865   0.112  0.0346  0.1557  0.0885
  224MOL   C16245208   4.112   3.836   0.276  0.0044  0.4608 -0.3024
  224MOL   C16345209   4.182   3.915   0.391 -0.1090  0.2661  0.3170
  224MOL  Cl16445210   4.152   3.854   0.554  0.0564 -0.5270  0.2540
  224MOL   C16545211   4.267   4.015   0.382 -0.3904 -0.0488  0.2855
  224MOL   C16645212   4.346   4.077   0.497 -0.2773 -0.1170 -0.0305
  224MOL   H16745213   4.008   3.864   0.293 -0.3216 -0.6602 -0.3848
  224MOL   H16845214   4.122   3.728   0.289 -0.5834  0.4010 -0.3325
  224MOL   H16945215   4.282   4.067   0.289  1.0155 -0.6440  0.1723
  224MOL   H17045216   4.268   4.104   0.568 -0.2928  2.0542 -0.8395
  224MOL   H17145217   4.407   3.997   0.540  2.0145  1.2825 -0.6055
  224MOL   C17245218   4.434   4.205   0.472 -0.4285 -0.0383 -0.1105
  224MOL   C17345219   4.555   4.209   0.558  0.0280 -0.6181 -0.3666
  224MOL  Cl17445220   4.663   4.078   0.512 -0.2003 -0.0747 -0.0416
  224MOL   C17545221   4.580   4.291   0.655  0.0149  0.6572 -0.3280
  224MOL   C17645222   4.707   4.294   0.740  0.6028  0.0978 -0.1124
  224MOL   H17745223   4.372   4.293   0.490  4.1689  3.1326  1.1454
  224MOL   H17845224   4.467   4.214   0.369 -0.5181  1.6435 -0.0057
  224MOL   H17945225   4.506   4.364   0.684  0.7691  0.1584  3.0464
  224MOL   H18045226   4.785   4.233   0.694  1.2407  1.1778 -0.4860
  224MOL   H18145227   4.678   4.251   0.835  2.1833  1.5564  1.0740
  224MOL   C18245228   4.759   4.436   0.752 -0.1286 -0.5339  0.0399
  224MOL   C18345229   4.871   4.451   0.859  0.1813  0.2122  0.1880
  224MOL  Cl18445230   4.851   4.583   0.969 -0.1130 -0.0855  0.2363
  224MOL   C18545231   4.982   4.371   0.855 -0.4230  0.1955  0.4196
  224MOL   C18645232   5.103   4.390   0.947  0.1424  0.0735 -0.0993
  224MOL   H18745233   4.790   4.473   0.654 -3.4034  1.2328 -0.4081
  224MOL   H18845234   4.679   4.500   0.790 -0.9126 -0.2873 -1.9419
  224MOL   H18945235   4.987   4.295   0.779  3.0042  2.4046 -1.7174
  224MOL   H19045236   5.102   4.490   0.989 -0.4660  0.0467 -0.0545
  224MOL   H19145237   5.108   4.314   1.026 -0.2201  0.8804  0.7018
  224MOL   C19245238   5.242   4.380   0.873 -0.7434  1.4215 -0.5383
  224MOL   C19345239   5.294   4.237   0.859 -1.2575 -0.4399  0.2465
  224MOL  Cl19445240   5.301   4.178   0.699 -0.1870 -0.0066 -0.0609
  224MOL   C19545241   5.331   4.152   0.951 -0.0490 -0.7314 -0.8725
  224MOL   C19645242   5.335   4.177   1.102 -0.5888  0.1705 -0.1613
  224MOL   H19745243   5.312   4.443   0.928 -2.6516  1.3232  2.0982
  224MOL   H19845244   5.233   4.422   0.773  0.0174  0.0977 -1.1831
  224MOL   H19945245   5.370   4.053   0.934 -0.0787 -0.6638 -1.3284
  224MOL   H20045246   5.416   4.125   1.154 -1.1952  0.4282  1.0662
  224MOL   H20145247   5.238   4.142   1.139 -0.4631  1.5838  1.5586
  224MOL   H20245248   5.334   4.283   1.124 -0.4330  0.5529 -1.9126
  225MOL     C145249   0.468   5.104   0.423  0.8044  0.5067  0.5018
  225MOL     C245250   0.502   4.960   0.387 -0.3938 -0.2520  0.4670
  225MOL    Cl345251   0.555   4.954   0.215 -0.1456  0.1585 -0.0955
  225MOL     C445252   0.502   4.852   0.472  0.1261  0.8387 -0.5111
  225MOL     C545253   0.466   4.842   0.618 -0.3832  0.2951 -0.0266
  225MOL     H645254   0.384   5.137   0.362  1.9455  0.4594 -1.0961
  225MOL     H745255   0.550   5.175   0.410  2.0909 -0.9632  0.4414
  225MOL     H845256   0.526   4.757   0.428 -1.5966  0.4466 -0.6559
  225MOL     H945257   0.458   4.940   0.664  2.5819  0.1193  0.9620
  225MOL    H1045258   0.364   4.803   0.628  0.5374 -1.7416  1.8274
  225MOL    H1145259   0.444   5.098   0.530  1.3118  1.7774  0.6951
  225MOL    C1245260   0.552   4.753   0.698  0.3980  0.5448  0.5345
  225MOL    C1345261   0.700   4.791   0.690  0.6730 -0.5950  0.3036
  225MOL   Cl1445262   0.742   4.953   0.741  0.2470 -0.5701 -0.2186
  225MOL    C1545263   0.795   4.700   0.658  0.1572 -0.6421  0.0331
  225MOL    C1645264   0.785   4.549   0.623 -0.1463  0.6337  0.3525
  225MOL    H1745265   0.521   4.762   0.802  2.1218  2.4558  0.9263
  225MOL    H1845266   0.537   4.652   0.658 -0.3032 -0.4076  3.1319
  225MOL    H1945267   0.897   4.734   0.657  1.1854 -3.3693  2.8433
  225MOL    H2045268   0.689   4.499   0.633  1.0049 -1.2642  2.2691
  225MOL    H2145269   0.808   4.536   0.517  0.7149 -2.8010  0.9352
  225MOL    C2245270   0.892   4.473   0.716 -0.1788  0.3132  0.0331
  225MOL    C2345271   0.941   4.345   0.653 -0.8361 -0.4916  0.4199
  225MOL   Cl2445272   1.108   4.322   0.684 -0.2151  0.2046  0.2202
  225MOL    C2545273   0.881   4.273   0.563  0.2767 -0.4252 -0.4756
  225MOL    C2645274   0.929   4.151   0.486  0.0946  0.4717  0.7802
  225MOL    H2745275   0.985   4.530   0.723  0.8681 -1.4058  0.5411
  225MOL    H2845276   0.858   4.445   0.816 -2.1883 -1.3280 -1.0692
  225MOL    H2945277   0.778   4.297   0.538 -0.0829  0.1055  1.4328
  225MOL    H3045278   1.018   4.111   0.533 -0.3844  0.5377  1.7710
  225MOL    H3145279   0.857   4.071   0.504  0.4712 -0.4199 -1.6106
  225MOL    C3245280   0.928   4.170   0.331  0.5522 -0.6091  0.2540
  225MOL    C3345281   1.037   4.259   0.271  0.0973 -0.5761 -0.0373
  225MOL   Cl3445282   1.003   4.290   0.110  0.1292 -0.1260 -0.0496
  225MOL    C3545283   1.152   4.288   0.328  0.0609 -0.2231 -0.0170
  225MOL    C3645284   1.261   4.374   0.274 -0.6895  0.1884  0.3769
  225MOL    H3745285   0.942   4.074   0.281  1.1768 -2.2320  3.4104
  225MOL    H3845286   0.833   4.204   0.291  1.6724  2.3556 -0.0152
  225MOL    H3945287   1.180   4.246   0.423 -1.8074  0.7178  0.9856
  225MOL    H4045288   1.282   4.373   0.167  0.0574  0.8120  0.5096
  225MOL    H4145289   1.220   4.476   0.274  0.8047  0.8339 -2.0598
  225MOL    C4245290   1.390   4.365   0.353  0.5460 -0.1001 -0.1810
  225MOL    C4345291   1.481   4.245   0.336 -0.4402  0.3679  0.1132
  225MOL   Cl4445292   1.462   4.132   0.466 -0.0819 -0.1922 -0.0863
  225MOL    C4545293   1.574   4.230   0.242 -0.5972 -0.2530 -0.5992
  225MOL    C4645294   1.598   4.327   0.132 -0.5060  0.9917 -1.1033
  225MOL    H4745295   1.438   4.460   0.334  0.6206  0.1308  1.0897
  225MOL    H4845296   1.371   4.370   0.460 -0.3437 -4.4885 -0.0423
  225MOL    H4945297   1.638   4.143   0.244 -0.4162 -0.0837  2.7913
  225MOL    H5045298   1.566   4.429   0.157 -0.4139  0.6336  0.5066
  225MOL    H5145299   1.706   4.313   0.130 -0.3805  1.0973  2.1843
  225MOL    C5245300   1.522   4.302   0.003  0.0258  0.4949  0.4484
  225MOL    C5345301   1.545   4.163   8.379 -0.2666 -0.2591 -0.6987
  225MOL   Cl5445302   1.698   4.150   8.304 -0.0750 -0.0637  0.5347
  225MOL    C5545303   1.455   4.060   8.382  0.5035 -0.3430 -0.1842
  225MOL    C5645304   1.491   3.928   8.317 -0.2137  0.0148 -0.3835
  225MOL    H5745305   1.415   4.320   0.006 -0.1253 -0.2911 -0.2311
  225MOL    H5845306   1.552   4.361   8.337  1.4143 -0.8499 -0.0222
  225MOL    H5945307   1.361   4.068   0.012  1.7056  0.1790  1.9950
  225MOL    H6045308   1.597   3.919   8.293  0.3335 -0.2887  2.0363
  225MOL    H6145309   1.499   3.854   8.397  3.7893 -1.7219 -2.2710
  225MOL    C6245310   1.391   3.883   8.219  0.0498 -0.3532  0.4620
  225MOL    C6345311   1.433   3.761   8.146  0.3004 -0.4375 -0.0321
  225MOL   Cl6445312   1.387   3.629   8.243  0.2814  0.0321  0.4785
  225MOL    C6545313   1.493   3.754   8.021 -0.8581  0.0225  0.2889
  225MOL    C6645314   1.529   3.621   7.952 -0.7995 -0.2141 -0.2756
  225MOL    H6745315   1.303   3.857   8.277 -0.4775 -1.2636 -0.7281
  225MOL    H6845316   1.370   3.963   8.148  0.8933  0.1618  0.7849
  225MOL    H6945317   1.517   3.844   7.968  0.4720 -1.2617 -1.3157
  225MOL    H7045318   1.450   3.549   7.972 -1.3145 -0.1486 -1.9900
  225MOL    H7145319   1.620   3.592   8.006  0.4551 -1.0965 -2.8138
  225MOL    C7245320   1.558   3.639   7.800  0.6982  0.0260 -0.3492
  225MOL    C7345321   1.593   3.513   7.720  1.1745  0.4357 -0.5830
  225MOL   Cl7445322   1.516   3.373   7.784 -0.0462 -0.0199 -0.0764
  225MOL    C7545323   1.674   3.519   7.611 -0.1934 -0.4130  0.6399
  225MOL    C7645324   1.730   3.400   7.540 -0.3448 -1.0366  0.5328
  225MOL    H7745325   1.635   3.717   7.803  3.3997 -2.6125  1.0907
  225MOL    H7845326   1.476   3.689   7.748  0.8996 -1.0412 -1.7199
  225MOL    H7945327   1.723   3.609   7.577 -1.0350 -0.4270 -0.6516
  225MOL    H8045328   1.691   3.312   7.590  0.1355 -0.4338  1.9783
  225MOL    H8145329   1.839   3.401   7.546 -0.2142  1.0611 -1.3274
  225MOL    C8245330   1.687   3.399   7.392  0.1201  0.0138 -0.5030
  225MOL    C8345331   1.704   3.263   7.336  0.7550  0.4240  0.7808
  225MOL   Cl8445332   1.859   3.204   7.343  0.1682  0.0942  0.2278
  225MOL    C8545333   1.600   3.190   7.289  0.1052 -0.5382  0.2449
  225MOL    C8645334   1.609   3.050   7.237  0.4930  0.1359 -0.0151
  225MOL    H8745335   1.742   3.467   7.326  0.3611  1.1559  0.8496
  225MOL    H8845336   1.581   3.422   7.397  0.0890  0.4476 -2.7109
  225MOL    H8945337   1.502   3.232   7.302  0.8048  1.2857 -0.2836
  225MOL    H9045338   1.554   3.034   7.144  0.1703 -4.0431  0.8149
  225MOL    H9145339   1.714   3.047   7.210  0.6669  1.0735  0.5413
  225MOL    C9245340   1.567   2.955   7.355 -0.1159  0.4276 -0.5795
  225MOL    C9345341   1.419   2.958   7.392 -0.6591  0.3062  0.3552
  225MOL   Cl9445342   1.331   2.859   7.276 -0.1950  0.1702 -0.1177
  225MOL    C9545343   1.359   3.017   7.503  0.4000 -0.1364 -0.2381
  225MOL    C9645344   1.427   3.093   7.618  0.4278 -0.6802  0.0474
  225MOL    H9745345   1.625   2.979   7.445 -1.2828 -0.1974  0.3644
  225MOL    H9845346   1.593   2.852   7.331  1.0127  0.3623  0.8345
  225MOL    H9945347   1.252   3.001   7.503  0.0714  1.8107 -2.0860
  225MOL   H10045348   1.521   3.136   7.583 -0.4367  1.5856  0.3957
  225MOL   H10145349   1.368   3.181   7.643  0.9249  0.2056 -1.8055
  225MOL   C10245350   1.437   3.006   7.746 -0.4038  0.1126 -0.3390
  225MOL   C10345351   1.557   2.920   7.749 -0.6014 -0.6193 -0.3052
  225MOL  Cl10445352   1.709   3.004   7.719  0.1421 -0.4270 -0.2296
  225MOL   C10545353   1.550   2.796   7.801  0.0032 -0.1666 -0.5054
  225MOL   C10645354   1.668   2.702   7.829  0.5800  0.2639 -0.5231
  225MOL   H10745355   1.436   3.075   7.831  0.7169  0.5287 -0.6544
  225MOL   H10845356   1.352   2.939   7.735  0.5821 -1.4322  1.2956
  225MOL   H10945357   1.453   2.759   7.829  0.4185 -0.1152  1.0594
  225MOL   H11045358   1.653   2.610   7.772 -0.0451 -0.4514  0.7762
  225MOL   H11145359   1.762   2.749   7.801  0.1429  0.8581 -0.9811
  225MOL   C11245360   1.678   2.664   7.974  1.9536 -0.2882  0.7067
  225MOL   C11345361   1.553   2.619   8.039 -0.0016 -0.8565 -0.0546
  225MOL  Cl11445362   1.473   2.746   8.122  0.1803 -0.0551  0.0115
  225MOL   C11545363   1.503   2.494   8.047  0.1401 -0.7556 -0.0063
  225MOL   C11645364   1.572   2.376   7.977 -0.1524 -0.4299  0.8154
  225MOL   H11745365   1.762   2.597   7.991  0.6368 -1.4474  2.8855
  225MOL   H11845366   1.721   2.750   8.026  0.9649  0.5104  0.2178
  225MOL   H11945367   1.415   2.472   8.105 -1.4627  1.2263 -1.6059
  225MOL   H12045368   1.642   2.399   7.897 -0.7260  0.9943  0.7076
  225MOL   H12145369   1.501   2.309   7.928  1.4948 -1.2485 -0.4973
  225MOL   C12245370   1.638   2.286   8.090  0.1347  0.2937  0.1028
  225MOL   C12345371   1.732   2.172   8.044 -0.0171  0.1573  0.0137
  225MOL  Cl12445372   1.900   2.210   8.044  0.3205  0.0628 -0.0990
  225MOL   C12545373   1.697   2.042   8.010  0.2555  0.3341 -0.4694
  225MOL   C12645374   1.559   1.978   8.012 -0.1873 -0.0929  0.4816
  225MOL   H12745375   1.696   2.338   8.167  0.6558  0.5880 -0.4901
  225MOL   H12845376   1.557   2.238   8.145  0.2885  0.3215  0.3549
  225MOL   H12945377   1.779   1.977   7.984 -0.8157 -1.3204  0.1958
  225MOL   H13045378   1.490   2.061   7.996  0.5233  0.3508 -0.3174
  225MOL   H13145379   1.563   1.913   7.925  1.3784 -0.1256  0.5781
  225MOL   C13245380   1.524   1.900   8.136 -0.1197  0.3119 -1.1342
  225MOL   C13345381   1.378   1.870   8.157  0.2344  0.2641 -0.1974
  225MOL  Cl13445382   1.332   1.733   8.066 -0.2700  0.4964 -0.0149
  225MOL   C13545383   1.284   1.933   8.230  0.1424  0.5900 -0.8214
  225MOL   C13645384   1.303   2.065   8.299  0.3324 -0.4184  0.4395
  225MOL   H13745385   1.571   1.802   8.137  0.9538  0.7979  1.3869
  225MOL   H13845386   1.572   1.950   8.220  1.6110  0.9468 -2.4763
  225MOL   H13945387   1.186   1.889   8.227  0.3153  0.0579  0.6020
  225MOL   H14045388   1.266   2.055   8.401 -1.8429 -1.1376 -0.3843
  225MOL   H14145389   1.407   2.097   8.303  0.3128 -0.4592  1.4220
  225MOL   C14245390   1.225   2.173   8.232 -0.3164 -0.0889 -0.3499
  225MOL   C14345391   1.232   2.311   8.293 -0.5113  0.0446  0.5806
  225MOL  Cl14445392   1.389   2.342   8.356  0.3196  0.1663 -0.0449
  225MOL   C14545393   1.133   2.398   8.296 -0.0459 -0.5194  0.2838
  225MOL   C14645394   1.144   2.541   8.355  0.2055 -0.0027 -0.2557
  225MOL   H14745395   1.120   2.146   8.227 -0.1185 -0.8829 -0.2647
  225MOL   H14845396   1.252   2.176   8.126  0.9476  1.0494 -0.0111
  225MOL   H14945397   1.037   2.370   8.254 -0.9246  2.8867 -0.1036
  225MOL   H15045398   1.079   2.555   0.020  1.2182 -0.5702  0.6052
  225MOL   H15145399   1.244   2.564   8.393  0.1448  1.2367 -0.8047
  225MOL   C15245400   1.102   2.651   8.245  0.5953  0.9221 -0.3664
  225MOL   C15345401   0.955   2.652   8.211 -0.1376 -0.6600 -0.6158
  225MOL  Cl15445402   0.921   2.572   8.060 -0.0699  0.0278  0.3844
  225MOL   C15545403   0.859   2.718   8.281 -0.3895 -0.2423  0.3700
  225MOL   C15645404   0.711   2.732   8.248 -0.6954  0.6472 -0.2341
  225MOL   H15745405   1.120   2.750   8.288 -1.0458 -0.3459  3.4734
  225MOL   H15845406   1.162   2.641   8.155 -0.9508 -0.0494 -1.3012
  225MOL   H15945407   0.897   2.770   8.368  2.2021  1.7937 -1.9238
  225MOL   H16045408   0.654   2.696   8.334 -0.9990 -0.5219 -0.9144
  225MOL   H16145409   0.687   2.667   8.164 -1.7193  1.3424 -0.4834
  225MOL   C16245410   0.673   2.869   8.209  0.1578 -0.3861  0.2649
  225MOL   C16345411   0.529   2.890   8.153  0.0791  0.0880 -0.0237
  225MOL  Cl16445412   0.464   3.042   8.212  0.2920 -0.0416  0.0933
  225MOL   C16545413   0.472   2.812   8.060 -0.2162  0.2041  0.1228
  225MOL   C16645414   0.335   2.820   8.002 -0.0027 -0.1128 -0.1722
  225MOL   H16745415   0.708   2.936   8.287  0.7867  1.3469 -1.4344
  225MOL   H16845416   0.736   2.890   8.122  0.8494 -0.8019  0.6661
  225MOL   H16945417   0.529   2.728   8.024  1.0117  0.9902  0.2098
  225MOL   H17045418   0.288   2.916   8.025 -0.7239 -0.8382  1.4623
  225MOL   H17145419   0.364   2.827   7.897  1.7559  1.3324  0.4032
  225MOL   C17245420   0.249   2.702   8.054  0.6139 -0.0237 -0.2658
  225MOL   C17345421   0.213   2.717   8.200  0.2182  0.8464  0.8117
  225MOL  Cl17445422   0.298   2.600   8.296  0.0891  0.0538 -0.0510
  225MOL   C17545423   0.126   2.808   8.252  0.9945  0.5364  0.0445
  225MOL   C17645424   0.113   2.837   8.402  0.6830  0.8988  0.6530
  225MOL   H17745425   0.305   2.609   8.044  1.9682  0.4787  2.1472
  225MOL   H17845426   0.154   2.693   8.002  1.3498 -4.9206 -0.9840
  225MOL   H17945427   0.075   2.877   8.186  1.8652 -0.0325 -1.2597
  225MOL   H18045428   0.181   2.922   8.408  0.3540  1.1225  1.1828
  225MOL   H18145429   0.168   2.765   0.042  0.1314  0.5724  0.7677
  225MOL   C18245430   8.398   2.860   0.035 -0.2775  0.2840 -0.1925
  225MOL   C18345431   8.394   2.885   0.184  0.1174  0.2968 -0.1316
  225MOL  Cl18445432   8.239   2.961   0.221  0.2119  0.4198 -0.1806
  225MOL   C18545433   0.074   2.864   0.272  0.0181  0.3063  0.3973
  225MOL   C18645434   0.083   2.927   0.411  0.2258 -0.1419  0.0564
  225MOL   H18745435   8.344   2.937   8.402  0.2047 -1.7573 -3.7527
  225MOL   H18845436   8.341   2.769   0.013  1.0601  0.0159 -2.7541
  225MOL   H18945437   0.156   2.798   0.250 -0.3816 -1.0652  2.8320
  225MOL   H19045438   8.416   2.988   0.434  1.0934  1.5836 -1.1327
  225MOL   H19145439   0.076   2.859   0.495 -4.1557  1.9534  1.5548
  225MOL   C19245440   0.209   3.008   0.435  0.0357 -0.3629  0.5520
  225MOL   C19345441   0.219   3.055   0.583  0.5454  0.3999 -0.4215
  225MOL  Cl19445442   0.194   3.227   0.607 -0.0176 -0.1515 -0.1305
  225MOL   C19545443   0.272   2.987   0.687  0.2478 -0.1698  0.0111
  225MOL   C19645444   0.309   2.838   0.686 -0.0208 -0.1233  0.0241
  225MOL   H19745445   0.213   3.106   0.386  0.1120  0.4206  2.1047
  225MOL   H19845446   0.296   2.952   0.404  0.4835  0.5344  0.1528
  225MOL   H19945447   0.286   3.036   0.783  0.3745  0.1117 -0.1501
  225MOL   H20045448   0.416   2.819   0.693 -0.5866 -3.7056 -0.1576
  225MOL   H20145449   0.292   2.803   0.584 -2.5518 -0.1975  0.4260
  225MOL   H20245450   0.250   2.779   0.756  0.7157 -0.3486  0.4549
  226MOL     C145451   1.049   0.425   7.977  0.4666 -0.5886  0.1498
  226MOL     C245452   1.197   0.461   7.960 -0.3826 -0.5305 -0.3276
  226MOL    Cl345453   1.272   0.369   7.841 -0.0307 -0.5351 -0.1599
  226MOL     C445454   1.264   0.548   8.037 -0.6639 -0.1616 -0.4393
  226MOL     C545455   1.218   0.638   8.156 -0.4632 -0.3328 -0.4870
  226MOL     H645456   1.012   0.418   8.079  0.2564  0.5565  0.1588
  226MOL     H745457   1.028   0.327   7.934  0.3468 -0.8143  0.7272
  226MOL     H845458   1.366   0.563   8.006 -0.4820 -0.1862  0.1456
  226MOL     H945459   1.121   0.612   8.198 -2.2881  3.1015 -2.3462
  226MOL    H1045460   1.293   0.610   8.230 -0.7389 -0.1011 -0.1192
  226MOL    H1145461   0.987   0.507   7.939  0.9425 -0.1772  0.2461
  226MOL    C1245462   1.229   0.787   8.142 -0.3713  0.0542 -0.2533
  226MOL    C1345463   1.184   0.856   8.277 -0.3590  0.5523 -0.9973
  226MOL   Cl1445464   1.011   0.880   8.269  0.3551 -0.0076  0.7780
  226MOL    C1545465   1.250   0.876   8.392 -0.3405 -0.5392 -0.9805
  226MOL    C1645466   1.399   0.859   8.417 -0.7246  0.0460 -0.6446
  226MOL    H1745467   1.332   0.807   8.111 -0.5010  0.0638 -0.6837
  226MOL    H1845468   1.164   0.816   8.060  0.8250 -1.6231 -1.8416
  226MOL    H1945469   1.196   0.903   0.061 -1.5736  0.4542 -2.0055
  226MOL    H2045470   1.459   0.830   8.332 -0.4293 -3.0485  0.5422
  226MOL    H2145471   1.450   0.950   0.028  0.4778 -0.9837  0.4566
  226MOL    C2245472   1.431   0.770   0.112  0.3602  0.1715  1.0867
  226MOL    C2345473   1.449   0.625   0.079 -0.4151 -0.2768  0.0044
  226MOL   Cl2445474   1.612   0.573   0.099 -0.0760  0.1923  0.1412
  226MOL    C2545475   1.345   0.534   0.071  0.3550 -0.0230  0.7137
  226MOL    C2645476   1.352   0.380   0.069 -0.4138 -0.2306 -0.0840
  226MOL    H2745477   1.527   0.804   0.151  0.6965 -0.3000  0.6764
  226MOL    H2845478   1.363   0.778   0.197 -0.4594 -0.0091  0.4571
  226MOL    H2945479   1.245   0.575   0.073  1.0855  1.8018  2.2041
  226MOL    H3045480   1.457   0.357   0.051  0.4526  1.5867  2.4002
  226MOL    H3145481   1.321   0.339   0.165 -1.5221  1.4223  0.2784
  226MOL    C3245482   1.269   0.322   8.376  0.2579  0.5861  0.7138
  226MOL    C3345483   1.237   0.174   8.394 -0.0701  0.0299  0.6180
  226MOL   Cl3445484   1.077   0.140   8.332 -0.3828 -0.0639 -0.0025
  226MOL    C3545485   1.317   0.082   0.028 -1.0733 -0.1702  0.1829
  226MOL    C3645486   1.294   8.355   0.027 -0.3237  0.3357 -0.2646
  226MOL    H3745487   1.174   0.374   8.358  0.1532  1.2177  3.0034
  226MOL    H3845488   1.325   0.332   8.283 -0.7271  1.3711  0.1894
  226MOL    H3945489   1.406   0.118   0.077 -0.2600 -2.4149  0.4269
  226MOL    H4045490   1.202   8.334   8.395 -1.0416 -2.9135  2.1025
  226MOL    H4145491   1.379   8.304   8.403  0.3195  0.0635  1.2105
  226MOL    C4245492   1.272   8.297   0.165 -0.4678  0.0646 -0.3991
  226MOL    C4345493   1.308   8.151   0.161 -0.1420 -0.3852 -0.3341
  226MOL   Cl4445494   1.433   8.123   0.273 -0.1690  0.4651 -0.1233
  226MOL    C4545495   1.249   8.046   0.100  0.4705 -0.2966  0.0110
  226MOL    C4645496   1.131   8.053   0.009  1.1195  0.0068  0.4127
  226MOL    H4745497   1.326   8.350   0.244 -1.0248 -0.1456  0.1241
  226MOL    H4845498   1.168   8.291   0.199 -0.5192  3.0506  0.1305
  226MOL    H4945499   1.280   7.943   0.096  0.3773 -0.2994 -0.8131
  226MOL    H5045500   1.085   7.956   0.025  1.9022 -0.6098 -0.9814
  226MOL    H5145501   1.080   8.144   0.040  0.9705 -1.0908  3.5841
  226MOL    C5245502   1.159   8.043   8.282 -0.6644 -0.7595 -0.2464
  226MOL    C5345503   1.033   8.031   8.199  1.0153 -0.1309 -0.0336
  226MOL   Cl5445504   0.981   8.181   8.130  0.0283 -0.0278  0.2068
  226MOL    C5545505   0.965   7.915   8.188 -0.2443 -0.1240  0.6363
  226MOL    C5645506   0.839   7.897   8.098 -0.1405 -0.6079  0.2896
  226MOL    H5745507   1.232   8.119   8.254 -0.8778 -0.9706 -1.3891
  226MOL    H5845508   1.207   7.946   8.266 -1.4305 -1.0153 -1.0732
  226MOL    H5945509   1.005   7.825   8.234  2.1301  0.6163  0.0742
  226MOL    H6045510   0.763   7.840   8.150 -1.0339  0.4294  0.1454
  226MOL    H6145511   0.800   7.997   8.079  0.7381  0.0691  1.9441
  226MOL    C6245512   0.892   7.829   7.961 -0.3599  0.6024  0.3445
  226MOL    C6345513   1.002   7.917   7.899  0.3769 -0.3025  0.6754
  226MOL   Cl6445514   0.923   8.038   7.801 -0.2190  0.1140 -0.0337
  226MOL    C6545515   1.137   7.896   7.898  0.0179 -0.5205 -0.2479
  226MOL    C6645516   1.243   7.979   7.825  0.3162 -0.1845  0.5357
  226MOL    H6745517   0.927   7.727   7.972  0.0316  0.7050  0.0557
  226MOL    H6845518   0.813   7.822   7.886  2.8493  0.6224 -3.1700
  226MOL    H6945519   1.174   7.809   7.950 -0.5660  1.5293  3.7419
  226MOL    H7045520   1.195   8.061   7.772  2.2381 -0.3836 -1.5974
  226MOL    H7145521   1.267   7.921   7.736 -0.0857  0.2696  0.1301
  226MOL    C7245522   1.364   8.024   7.900 -0.1230 -0.2521  0.9646
  226MOL    C7345523   1.464   7.912   7.936 -0.2586 -0.2979 -0.1253
  226MOL   Cl7445524   1.446   7.854   8.092  0.3493 -0.1508 -0.5850
  226MOL    C7545525   1.558   7.865   7.851 -0.4611 -0.6664 -0.0623
  226MOL    C7645526   1.663   7.756   7.877 -0.0994 -0.2663  0.2184
  226MOL    H7745527   1.315   8.054   7.992 -0.5977 -0.1308  0.6709
  226MOL    H7845528   1.417   8.101   7.845  0.6931 -0.3800  1.5636
  226MOL    H7945529   1.566   7.915   7.756 -1.2540 -1.4658 -0.5539
  226MOL    H8045530   1.666   7.743   7.985 -0.6346  0.5796  0.3460
  226MOL    H8145531   1.757   7.789   7.833 -1.1697  0.5121 -1.5723
  226MOL    C8245532   1.610   7.637   7.798 -0.0160 -0.1642 -0.6105
  226MOL    C8345533   1.691   7.510   7.824  0.4695  0.9354 -0.2444
  226MOL   Cl8445534   1.825   7.505   7.721 -0.5709 -0.2012  0.1076
  226MOL    C8545535   1.640   7.404   7.899 -0.0842 -0.1055 -0.5288
  226MOL    C8645536   1.711   7.268   7.917  0.1138 -0.1351 -0.0728
  226MOL    H8745537   1.599   7.660   7.692  0.8817  1.5957 -0.3295
  226MOL    H8845538   1.509   7.607   7.828 -0.0849  0.2330 -0.4392
  226MOL    H8945539   1.544   7.410   7.949 -0.2756 -1.4265 -0.7201
  226MOL    H9045540   1.636   7.190   7.903  1.4224 -1.1929 -1.3591
  226MOL    H9145541   1.783   7.257   7.836 -0.8540 -1.3067 -0.7957
  226MOL    C9245542   1.768   7.265   8.065 -0.2818  0.1341  0.3339
  226MOL    C9345543   1.918   7.275   8.068 -0.1919 -0.3646  0.6179
  226MOL   Cl9445544   1.975   7.139   7.985  0.0360  0.0968 -0.0865
  226MOL    C9545545   1.992   7.372   8.119 -0.0895  0.3585 -0.6755
  226MOL    C9645546   1.941   7.488   8.204  0.2227  0.6345 -0.5745
  226MOL    H9745547   1.733   7.171   8.109  0.5226  0.8408  2.5732
  226MOL    H9845548   1.722   7.343   8.127 -1.7990 -0.2559 -0.2723
  226MOL    H9945549   2.099   7.365   8.106  0.0705 -0.1956  0.8751
  226MOL   H10045550   1.899   7.561   8.135  1.3500  0.9650 -0.9104
  226MOL   H10145551   1.858   7.459   8.269 -0.7593  2.0224 -1.1713
  226MOL   C10245552   2.062   7.548   8.287  0.8964  0.1405 -1.4640
  226MOL   C10345553   2.109   7.460   8.411 -0.7434 -0.5019 -0.0854
  226MOL  Cl10445554   2.034   7.514   0.135 -0.1911  0.6768  0.0026
  226MOL   C10545555   2.195   7.352   8.409 -0.0794  0.1698  0.0810
  226MOL   C10645556   2.226   7.265   0.102  0.1364 -0.4757 -0.0076
  226MOL   H10745557   2.145   7.571   8.221  1.1300  1.2693 -0.7862
  226MOL   H10845558   2.046   7.651   8.321 -0.2187 -0.1645 -1.0512
  226MOL   H10945559   2.247   7.332   8.316  0.0955 -0.3214  0.2818
  226MOL   H11045560   2.144   7.281   0.171 -1.1719  1.8283 -2.0096
  226MOL   H11145561   2.212   7.168   0.055  0.6915 -0.4421 -0.2517
  226MOL   C11245562   2.368   7.303   0.153  0.3806  1.0770  0.4404
  226MOL   C11345563   2.368   7.435   0.231  0.2073  0.4850 -0.3436
  226MOL  Cl11445564   2.423   7.563   0.126  0.1351  0.0115 -0.0753
  226MOL   C11545565   2.329   7.455   0.356 -0.2459  0.0011 -0.2902
  226MOL   C11645566   2.283   7.342   0.460 -0.9246 -0.2885 -1.1552
  226MOL   H11745567   2.399   7.223   0.221 -0.8728 -1.4405 -1.8528
  226MOL   H11845568   2.440   7.305   0.071 -0.0853 -0.8836 -0.0428
  226MOL   H11945569   2.327   7.555   0.397 -1.5488  0.0469 -0.4231
  226MOL   H12045570   2.341   7.367   0.549 -0.3775 -0.2987 -1.5037
  226MOL   H12145571   2.312   7.242   0.428 -1.0870 -1.6038  2.6180
  226MOL   C12245572   2.145   7.365   0.498 -0.7856 -0.9350  0.0161
  226MOL   C12345573   2.098   7.262   0.595 -0.2408 -1.1290  0.9418
  226MOL  Cl12445574   2.119   7.322   0.756  0.0725 -0.7680 -0.2594
  226MOL   C12545575   2.064   7.138   0.567 -0.6844  0.4077  0.0931
  226MOL   C12645576   2.056   7.055   0.449 -0.2964  0.2324 -0.0319
  226MOL   H12745577   2.132   7.464   0.541  1.1445 -0.0851 -1.3060
  226MOL   H12845578   2.084   7.359   0.407 -0.2411 -1.4221 -0.3283
  226MOL   H12945579   2.039   7.081   0.655 -0.0262  0.7249  0.4870
  226MOL   H13045580   1.956   7.013   0.449 -0.6254  0.9867  1.3237
  226MOL   H13145581   2.065   7.114   0.357  0.1795 -0.4611 -0.4350
  226MOL   C13245582   2.157   6.944   0.462 -0.2290 -0.9605  0.1912
  226MOL   C13345583   2.147   6.838   0.349  0.0704  0.2339 -0.2985
  226MOL  Cl13445584   2.051   6.890   0.211 -0.3969  0.1670 -0.0989
  226MOL   C13545585   2.204   6.717   0.357 -1.0918 -0.1332  0.6782
  226MOL   C13645586   2.296   6.673   0.469  0.3451  0.3230  0.0254
  226MOL   H13745587   2.253   6.994   0.466 -1.0992  1.0530 -2.3137
  226MOL   H13845588   2.142   6.888   0.554 -0.2145  0.1947  0.9038
  226MOL   H13945589   2.183   6.647   0.278 -0.9359  0.7838 -0.1860
  226MOL   H14045590   2.318   6.759   0.532  1.6468  0.3602 -0.4595
  226MOL   H14145591   2.227   6.611   0.526 -0.0909 -0.4943 -1.3487
  226MOL   C14245592   2.423   6.599   0.439  0.4312  0.1068  0.3977
  226MOL   C14345593   2.439   6.483   0.537 -0.2149  0.3044 -0.0741
  226MOL  Cl14445594   2.348   6.347   0.495 -0.0626 -0.1697  0.1988
  226MOL   C14545595   2.536   6.487   0.635 -0.5472  0.0298  0.6847
  226MOL   C14645596   2.573   6.374   0.726  0.1918 -0.0807  0.4847
  226MOL   H14745597   2.503   6.668   0.411 -0.0969 -0.1732 -1.9469
  226MOL   H14845598   2.408   6.553   0.341 -0.4797 -0.3057  0.7232
  226MOL   H14945599   2.597   6.576   0.641 -1.2775  0.5584  0.2320
  226MOL   H15045600   2.577   6.418   0.825 -0.8546  1.0022  0.0590
  226MOL   H15145601   2.498   6.294   0.726  0.8516 -0.7124  2.5916
  226MOL   C15245602   2.698   6.293   0.699  0.3084  0.3612  0.2378
  226MOL   C15345603   2.732   6.173   0.787  0.0420  0.2254  0.0776
  226MOL  Cl15445604   2.900   6.143   0.792 -0.0773  0.3720  1.0648
  226MOL   C15545605   2.643   6.107   0.870 -0.4970  0.3621  0.9428
  226MOL   C15645606   2.681   6.005   0.975  0.3067 -0.9419  0.4194
  226MOL   H15745607   2.690   6.256   0.597  0.0497 -1.1848  0.8067
  226MOL   H15845608   2.787   6.353   0.715  1.2644 -0.6846 -1.1008
  226MOL   H15945609   2.537   6.130   0.874 -0.3412  1.2749 -0.0605
  226MOL   H16045610   2.769   5.954   0.934  2.1966  1.8649  0.8197
  226MOL   H16145611   2.598   5.936   0.981  0.9084 -1.5375  2.2144
  226MOL   C16245612   2.709   6.062   1.114  0.0283  0.0741  1.1002
  226MOL   C16345613   2.718   5.959   1.221 -0.1745  0.0292 -0.5051
  226MOL  Cl16445614   2.743   6.027   1.381  0.3906  0.0284 -0.0927
  226MOL   C16545615   2.711   5.830   1.189 -0.0345  0.8979  0.3895
  226MOL   C16645616   2.725   5.718   1.296  0.0326 -0.1778 -0.2578
  226MOL   H16745617   2.802   6.119   1.119 -0.1943  0.4151  1.4176
  226MOL   H16845618   2.625   6.130   1.129 -1.8446 -1.0481 -3.4840
  226MOL   H16945619   2.685   5.787   1.093 -3.3058  0.7779  1.2451
  226MOL   H17045620   2.711   5.766   1.393  1.6633 -0.4237  0.1114
  226MOL   H17145621   2.639   5.653   1.278 -0.4042  0.7668 -1.6131
  226MOL   C17245622   2.861   5.642   1.283  0.0590  0.5689  0.3909
  226MOL   C17345623   2.871   5.502   1.348  0.3397  0.0815  0.0589
  226MOL  Cl17445624   2.969   5.507   1.487 -0.1516 -0.1966  0.4380
  226MOL   C17545625   2.787   5.406   1.313 -0.4565 -0.2192  0.1055
  226MOL   C17645626   2.786   5.267   1.377  0.1774 -0.5371 -0.0927
  226MOL   H17745627   2.930   5.719   1.319 -1.4565  2.4205 -0.6265
  226MOL   H17845628   2.887   5.635   1.178  1.4051  0.2843  0.7244
  226MOL   H17945629   2.715   5.412   1.233 -0.8765  1.9046  0.6203
  226MOL   H18045630   2.689   5.248   1.423  0.4315  0.4954  0.8822
  226MOL   H18145631   2.847   5.257   1.467 -0.1711 -0.6599  0.1338
  226MOL   C18245632   2.813   5.158   1.272 -0.4859 -0.4819  0.5582
  226MOL   C18345633   2.950   5.177   1.211 -0.4117 -0.8467  0.1662
  226MOL  Cl18445634   3.076   5.146   1.324  0.0844 -0.0707  0.2009
  226MOL   C18545635   2.974   5.211   1.081  0.3657  0.6251  0.0212
  226MOL   C18645636   3.097   5.231   1.000  0.0026  0.2608  0.7277
  226MOL   H18745637   2.811   5.057   1.311 -1.1829 -0.4991  0.4891
  226MOL   H18845638   2.738   5.160   1.193  2.1652 -0.9613 -2.0556
  226MOL   H18945639   2.879   5.220   1.029 -0.1474 -3.7683  0.0880
  226MOL   H19045640   3.119   5.332   0.966  0.1805 -0.6672 -2.0644
  226MOL   H19145641   3.176   5.207   1.071 -0.4433 -0.1440  1.0914
  226MOL   C19245642   3.108   5.134   0.886 -0.6920 -0.2638  0.2752
  226MOL   C19345643   3.252   5.103   0.844 -0.5264 -0.0683 -0.1522
  226MOL  Cl19445644   3.307   5.217   0.732 -0.2708  0.2257 -0.1655
  226MOL   C19545645   3.322   4.995   0.874 -0.5232 -0.8387  0.0307
  226MOL   C19645646   3.275   4.882   0.951  0.0181  0.4663 -0.4249
  226MOL   H19745647   3.048   5.170   0.802 -1.6099 -1.8532  0.2329
  226MOL   H19845648   3.052   5.047   0.921  1.1451 -0.7177  2.1512
  226MOL   H19945649   3.423   4.986   0.838 -0.3365 -0.0022  0.3384
  226MOL   H20045650   3.167   4.865   0.943  0.0922 -0.3859  0.3017
  226MOL   H20145651   3.292   4.882   1.059 -1.5238 -0.9059 -0.1453
  226MOL   H20245652   3.310   4.791   0.903 -0.0449 -0.0093  0.4076
  227MOL     C145653   5.760   5.749   6.906 -0.3254 -0.8237  0.0213
  227MOL     C245654   5.773   5.620   6.826 -0.1499  0.3929  0.4141
  227MOL    Cl345655   5.824   5.639   6.662 -0.0349 -0.3404 -0.0252
  227MOL     C445656   5.763   5.497   6.875 -0.4139  0.2100  0.0663
  227MOL     C545657   5.728   5.450   7.016  0.2100 -0.1419  0.3929
  227MOL     H645658   5.669   5.744   6.966  0.0502  0.1673  0.6789
  227MOL     H745659   5.747   5.830   6.834 -3.2216 -0.6881  0.6257
  227MOL     H845660   5.780   5.417   6.804  0.1672 -0.2748  0.7364
  227MOL     H945661   5.819   5.434   7.073  1.6823  0.9528 -1.5931
  227MOL    H1045662   5.669   5.525   7.070 -0.7707 -1.1103  0.6792
  227MOL    H1145663   5.838   5.765   6.980 -1.8381  3.5152  0.7889
  227MOL    C1245664   5.643   5.319   7.021  0.0648  0.4192  0.5379
  227MOL    C1345665   5.562   5.302   7.147 -0.1239 -0.1873  0.2748
  227MOL   Cl1445666   5.427   5.413   7.143  0.0565 -0.5846 -0.0261
  227MOL    C1545667   5.562   5.208   7.241 -0.3121  0.1195 -0.6059
  227MOL    C1645668   5.655   5.088   7.255 -0.3162  0.4392 -0.2841
  227MOL    H1745669   5.568   5.305   6.944 -0.7457 -2.4305  1.7664
  227MOL    H1845670   5.713   5.236   7.015 -3.1389 -2.4421  1.4320
  227MOL    H1945671   5.493   5.222   7.323 -1.2582 -2.7366 -0.8610
  227MOL    H2045672   5.728   5.089   7.174  0.2125 -3.1001  0.0478
  227MOL    H2145673   5.718   5.094   7.344 -1.2319 -0.2143  0.4143
  227MOL    C2245674   5.589   4.951   7.269  0.0651  0.1241  0.3275
  227MOL    C2345675   5.502   4.923   7.147 -0.7118  0.3127  0.5977
  227MOL   Cl2445676   5.594   4.834   7.027  0.1933  0.4932 -0.0855
  227MOL    C2545677   5.373   4.963   7.127 -0.5606  0.4687  0.0828
  227MOL    C2645678   5.290   4.939   7.003  0.1322 -1.1755 -0.2491
  227MOL    H2745679   5.668   4.875   7.274  1.0005  1.1523  1.8338
  227MOL    H2845680   5.517   4.941   7.350 -1.7137  0.4143 -1.1870
  227MOL    H2945681   5.320   5.011   7.208 -0.3312 -1.0374  1.1461
  227MOL    H3045682   5.348   4.870   6.941 -1.1603 -1.4359 -1.1963
  227MOL    H3145683   5.206   4.882   7.042  0.1680  0.3508  2.1605
  227MOL    C3245684   5.241   5.072   6.951  0.3420  0.1602 -0.3135
  227MOL    C3345685   5.145   5.053   6.837  0.9335 -0.3951  0.0117
  227MOL   Cl3445686   5.176   4.911   6.745 -0.4284 -0.0677  0.1217
  227MOL    C3545687   5.047   5.144   6.822 -0.3685 -0.4153  0.2390
  227MOL    C3645688   4.939   5.135   6.719 -0.1126 -0.4818  0.4224
  227MOL    H3745689   5.191   5.123   7.033  0.9505  1.5089 -0.7576
  227MOL    H3845690   5.325   5.135   6.921  1.8704 -0.6229  2.1859
  227MOL    H3945691   5.046   5.230   6.887  0.5207 -0.8027  0.7764
  227MOL    H4045692   4.984   5.158   6.623 -0.9768 -0.0496  0.1057
  227MOL    H4145693   4.906   5.032   6.710  1.6914 -0.8886 -1.9211
  227MOL    C4245694   4.829   5.236   6.739 -0.1321  0.7283  0.1537
  227MOL    C4345695   4.722   5.210   6.639 -0.6095  0.7194  0.1684
  227MOL   Cl4445696   4.590   5.126   6.710  0.3521 -0.2695  0.3603
  227MOL    C4545697   4.716   5.250   6.510 -0.6665 -0.2916  0.3565
  227MOL    C4645698   4.828   5.321   6.437 -0.0734  0.1727  0.8724
  227MOL    H4745699   4.787   5.241   6.840  2.5749 -0.6794  1.4076
  227MOL    H4845700   4.875   5.334   6.735  3.1205 -0.7499 -0.2637
  227MOL    H4945701   4.628   5.224   6.453 -0.3695  0.1604 -0.3158
  227MOL    H5045702   4.821   5.426   6.463 -1.2698  0.7054 -1.4380
  227MOL    H5145703   4.925   5.279   6.461 -0.0648 -0.7562 -0.6945
  227MOL    C5245704   4.824   5.297   6.288 -0.1954  0.0590 -0.0400
  227MOL    C5345705   4.920   5.380   6.204 -0.2874 -0.5998  0.4760
  227MOL   Cl5445706   5.058   5.307   6.133 -0.3556  0.2668 -0.1423
  227MOL    C5545707   4.899   5.517   6.184  0.1094  0.3993  0.1327
  227MOL    C5645708   4.999   5.603   6.106  0.3824 -0.0605  1.0440
  227MOL    H5745709   4.826   5.190   6.266 -2.1165  0.2289 -1.2136
  227MOL    H5845710   4.725   5.327   6.252 -1.1389  0.2939  2.6757
  227MOL    H5945711   4.813   5.556   6.236  0.9212  1.7862  0.4409
  227MOL    H6045712   5.074   5.539   6.061  0.6473  1.3381 -0.5628
  227MOL    H6145713   4.955   5.645   6.016  1.6403  0.0850  0.4920
  227MOL    C6245714   5.067   5.718   6.183  0.2265 -0.1931 -0.2021
  227MOL    C6345715   5.170   5.657   6.276  0.1861  0.0335 -0.3230
  227MOL   Cl6445716   5.315   5.636   6.194 -0.2067  0.0391  0.2198
  227MOL    C6545717   5.156   5.621   6.404 -0.6033 -0.6400 -0.1933
  227MOL    C6645718   5.267   5.549   6.487 -0.5625 -1.5291  0.5325
  227MOL    H6745719   5.117   5.791   6.119  1.7090 -1.2989 -0.3251
  227MOL    H6845720   4.997   5.780   6.238 -0.6909 -0.9997 -0.4507
  227MOL    H6945721   5.061   5.636   6.453  0.0162  0.6638  0.6232
  227MOL    H7045722   5.285   5.605   6.578  0.9374 -0.1090 -0.6166
  227MOL    H7145723   5.355   5.544   6.424 -0.8347  1.3895 -0.1316
  227MOL    C7245724   5.228   5.409   6.534  0.1756 -0.3260  0.4620
  227MOL    C7345725   5.343   5.346   6.615  0.3197  0.1956 -0.5836
  227MOL   Cl7445726   5.324   5.375   6.784 -0.2868  0.1187 -0.1288
  227MOL    C7545727   5.438   5.276   6.553  0.0798  0.5528 -0.7410
  227MOL    C7645728   5.560   5.207   6.614 -0.6188  0.0164 -0.6079
  227MOL    H7745729   5.189   5.351   6.451 -0.1134 -0.6752  0.8436
  227MOL    H7845730   5.141   5.413   6.599  1.7244 -0.1858  2.5961
  227MOL    H7945731   5.436   5.263   6.446 -2.6713  0.0639 -0.6632
  227MOL    H8045732   5.540   5.102   6.595  1.9748 -0.8898  1.3018
  227MOL    H8145733   5.561   5.219   6.723  2.0373  3.2586 -0.9045
  227MOL    C8245734   5.700   5.243   6.557 -1.0642  0.0352  0.9478
  227MOL    C8345735   5.812   5.164   6.604  0.5964  1.2068  0.1362
  227MOL   Cl8445736   5.921   5.123   6.471 -0.1062  0.1696  0.1438
  227MOL    C8545737   5.843   5.129   6.732 -0.0158  0.2560 -0.0910
  227MOL    C8645738   5.966   5.051   6.774  0.5889  0.3373 -0.0266
  227MOL    H8745739   5.728   5.347   6.573  1.3601 -0.3079 -0.7652
  227MOL    H8845740   5.700   5.230   6.449 -1.5380  2.1214  0.6724
  227MOL    H8945741   5.772   5.139   6.813 -1.1106 -2.6768 -0.5996
  227MOL    H9045742   6.031   5.030   6.689 -0.9179 -0.7057 -0.9348
  227MOL    H9145743   6.019   5.100   6.857 -0.6391 -0.3008  1.1527
  227MOL    C9245744   5.925   4.914   6.830 -0.2152 -0.4590 -0.3829
  227MOL    C9345745   6.041   4.829   6.887  0.5275 -0.1691  0.7418
  227MOL   Cl9445746   6.117   4.736   6.761 -0.0094 -0.2885  0.0055
  227MOL    C9545747   6.069   4.809   7.016 -0.4130  0.3219 -0.6498
  227MOL    C9645748   5.989   4.869   7.134  0.9358  0.3704  0.5487
  227MOL    H9745749   5.886   4.863   6.741  0.7898 -0.5148 -0.7968
  227MOL    H9845750   5.840   4.916   6.898  1.2599  2.5303  1.4962
  227MOL    H9945751   6.148   4.743   7.046 -0.5231 -0.5811 -2.2662
  227MOL   H10045752   5.915   4.942   7.102 -1.6705 -2.1142  0.6427
  227MOL   H10145753   5.942   4.790   7.193 -1.3223  1.3967  0.1506
  227MOL   C10245754   6.081   4.951   7.226 -0.6180 -0.3248  0.2962
  227MOL   C10345755   6.151   5.066   7.160 -0.5228 -0.6618  0.1960
  227MOL  Cl10445756   6.050   5.200   7.114  0.1352 -0.1212 -0.4096
  227MOL   C10545757   6.281   5.061   7.122 -1.0470 -0.3457 -0.5248
  227MOL   C10645758   6.355   5.160   7.045  0.6978 -0.4141 -0.2685
  227MOL   H10745759   6.029   4.993   7.312  0.5803 -2.3331  2.0233
  227MOL   H10845760   6.152   4.875   7.257 -0.2016 -1.0329 -2.2460
  227MOL   H10945761   6.342   4.975   7.143 -0.8432 -0.1093 -0.1474
  227MOL   H11045762   6.285   5.192   6.968 -0.2211 -0.6012  0.4777
  227MOL   H11145763   6.370   5.229   7.129 -1.3959  0.4268 -0.5527
  227MOL   C11245764   6.486   5.102   6.991 -0.3745 -0.0513  0.5239
  227MOL   C11345765   6.523   5.185   6.870  0.0741 -0.8366  0.0019
  227MOL  Cl11445766   6.647   5.301   6.911  0.4792  0.0506 -0.4403
  227MOL   C11545767   6.489   5.173   6.742 -0.2650 -0.5416 -0.7596
  227MOL   C11645768   6.389   5.071   6.689 -0.4483  0.3574 -0.2528
  227MOL   H11745769   6.570   5.102   7.060 -1.0966 -1.5310  1.4469
  227MOL   H11845770   6.479   4.996   6.964  3.9083 -0.1259 -0.5687
  227MOL   H11945771   6.536   5.228   6.662  0.2758 -0.8578 -0.6624
  227MOL   H12045772   6.297   5.123   6.661 -0.7668 -1.8536 -3.5990
  227MOL   H12145773   6.359   5.003   6.769  3.6921 -0.7026  0.5245
  227MOL   C12245774   6.442   4.993   6.564 -0.1671 -0.3400  0.3813
  227MOL   C12345775   6.375   4.861   6.548  0.9724 -0.1205  0.5707
  227MOL  Cl12445776   6.243   4.852   6.436 -0.1536  0.1626 -0.0355
  227MOL   C12545777   6.421   4.748   6.613 -0.5213 -0.3998 -0.0629
  227MOL   C12645778   6.528   4.728   6.713  0.0822 -0.1729  0.1484
  227MOL   H12745779   6.418   5.052   6.475 -1.3478 -2.4655 -0.7404
  227MOL   H12845780   6.551   4.986   6.564 -0.0635  1.0455 -0.6213
  227MOL   H12945781   6.374   4.655   6.584 -0.6419 -0.3354 -0.0777
  227MOL   H13045782   6.589   4.656   6.658  1.3545 -0.4030  1.8122
  227MOL   H13145783   6.589   4.816   6.733  0.7430 -0.2972 -1.2606
  227MOL   C13245784   6.456   4.674   6.839  0.6215 -0.3405 -0.4562
  227MOL   C13345785   6.544   4.659   6.961 -0.4308 -0.4039 -0.5291
  227MOL  Cl13445786   6.489   4.754   7.086 -0.0805  0.1153  0.2968
  227MOL   C13545787   6.656   4.588   6.973 -0.2799 -0.2218 -0.9596
  227MOL   C13645788   6.708   4.495   6.863  0.2838  0.5822 -0.2420
  227MOL   H13745789   6.372   4.733   6.874  1.2865 -1.1500  2.6362
  227MOL   H13845790   6.422   4.571   6.826 -1.9316  0.4459 -0.3047
  227MOL   H13945791   6.715   4.586   7.064 -2.8724  2.8998  0.9380
  227MOL   H14045792   6.649   4.496   6.772 -0.5174 -1.6361  0.2134
  227MOL   H14145793   6.804   4.539   6.835 -0.2322  2.3492  0.7123
  227MOL   C14245794   6.715   4.347   6.907  0.1450  0.3622  0.4362
  227MOL   C14345795   6.810   4.319   7.022  0.4707  0.5530  0.5986
  227MOL  Cl14445796   6.962   4.393   7.000 -0.0629  0.0371 -0.1350
  227MOL   C14545797   6.784   4.230   7.120 -0.4252 -0.8162 -0.2816
  227MOL   C14645798   6.880   4.196   7.237  0.2135  0.2824  0.4992
  227MOL   H14745799   6.736   4.279   6.824 -1.1672 -0.7095  0.9609
  227MOL   H14845800   6.612   4.326   6.937  1.0178 -0.3472  3.1269
  227MOL   H14945801   6.687   4.184   7.115 -0.7830  0.0745 -1.5527
  227MOL   H15045802   6.971   4.255   7.224  0.9685 -0.5488  1.9408
  227MOL   H15145803   6.827   4.233   7.325  0.2560  0.6253  0.3813
  227MOL   C15245804   6.924   4.053   7.243  0.5360  0.3781 -0.4876
  227MOL   C15345805   6.800   3.966   7.246 -0.1788 -0.4152  0.0513
  227MOL  Cl15445806   6.711   3.999   7.390  0.2260 -0.0290  0.0454
  227MOL   C15545807   6.772   3.854   7.169  0.3286  0.4127  0.5165
  227MOL   C15645808   6.655   3.760   7.175 -0.3153 -0.6875  0.5777
  227MOL   H15745809   6.993   4.030   7.162 -0.2888  0.4509 -1.2155
  227MOL   H15845810   6.983   4.030   7.332  0.7771  3.2870  0.1587
  227MOL   H15945811   6.836   3.833   7.085  1.5463 -1.5038  1.8832
  227MOL   H16045812   6.593   3.805   7.254 -0.2382 -2.4326  1.6583
  227MOL   H16145813   6.685   3.665   7.219  2.4510 -1.0603 -2.0195
  227MOL   C16245814   6.574   3.741   7.040  0.7985 -0.4025 -0.4442
  227MOL   C16345815   6.438   3.683   7.073 -0.0846  0.6212 -0.4101
  227MOL  Cl16445816   6.443   3.513   7.031 -0.1199  0.0461 -0.5834
  227MOL   C16545817   6.328   3.747   7.108 -0.6106 -0.0303  0.5649
  227MOL   C16645818   6.195   3.672   7.125  0.2744  0.5748 -0.2132
  227MOL   H16745819   6.565   3.841   6.998  0.7787 -0.7340 -1.2518
  227MOL   H16845820   6.631   3.688   6.963 -1.1120  0.7159 -2.7015
  227MOL   H16945821   6.340   3.852   7.129  0.7764  0.0797 -0.7134
  227MOL   H17045822   6.119   3.737   7.081 -0.7138 -0.3979  0.0461
  227MOL   H17145823   6.189   3.579   7.069 -0.3953  0.4489  0.0560
  227MOL   C17245824   6.165   3.662   7.277  0.0572 -0.7936  0.4125
  227MOL   C17345825   6.258   3.584   7.370  0.5896  0.9079  0.2356
  227MOL  Cl17445826   6.236   3.416   7.352  0.6174  0.2964  0.2149
  227MOL   C17545827   6.346   3.649   7.452  0.4016 -0.8164  0.1893
  227MOL   C17645828   6.429   3.589   7.561 -0.7223 -0.1208  0.5335
  227MOL   H17745829   6.064   3.621   7.282 -0.0311 -0.7053 -0.5736
  227MOL   H17845830   6.151   3.765   7.312 -0.2365 -0.9735  0.8376
  227MOL   H17945831   6.340   3.757   7.454 -0.8666 -0.8912  1.4113
  227MOL   H18045832   6.400   3.484   7.566 -0.8052 -0.1149  0.1547
  227MOL   H18145833   6.400   3.641   7.653  1.6649  1.4703  0.4264
  227MOL   C18245834   6.580   3.606   7.528 -0.0085  0.3098 -0.2273
  227MOL   C18345835   6.653   3.498   7.453 -0.6753  0.0414  0.8337
  227MOL  Cl18445836   6.793   3.458   7.523 -0.3146 -0.1695 -0.3683
  227MOL   C18545837   6.617   3.441   7.341  0.3909 -0.3087 -0.0281
  227MOL   C18645838   6.690   3.331   7.271 -0.3191  0.4146  0.5396
  227MOL   H18745839   6.597   3.703   7.481 -1.7707  0.6212 -0.2587
  227MOL   H18845840   6.632   3.616   7.624 -0.8211  0.1316  0.2446
  227MOL   H18945841   6.529   3.473   7.286  0.4450  1.6438  0.9885
  227MOL   H19045842   6.775   3.303   7.333 -0.0415 -1.3144 -0.5769
  227MOL   H19145843   6.627   3.245   7.250  0.4424  0.2234 -1.0702
  227MOL   C19245844   6.747   3.360   7.125 -0.5243 -0.4598 -0.7869
  227MOL   C19345845   6.806   3.242   7.055 -0.1704 -0.7175 -0.5949
  227MOL  Cl19445846   6.925   3.159   7.148  0.1303 -0.2822  0.2634
  227MOL   C19545847   6.781   3.211   6.927  0.4025  0.7539  0.3950
  227MOL   C19645848   6.695   3.276   6.822  0.4271 -0.8722  0.1506
  227MOL   H19745849   6.824   3.437   7.128 -0.0768 -0.9216 -0.3495
  227MOL   H19845850   6.671   3.408   7.064  0.3266  1.5116 -0.3234
  227MOL   H19945851   6.839   3.125   6.897  2.4500  2.0732  0.4744
  227MOL   H20045852   6.591   3.295   6.852  0.9389  1.6309  0.4398
  227MOL   H20145853   6.705   3.217   6.732  1.4935 -1.8182  0.8835
  227MOL   H20245854   6.749   3.370   6.812 -0.0653 -0.5449  0.5199
  228MOL     C145855   7.008   6.859   6.344 -0.3717 -0.2914 -0.0043
  228MOL     C245856   6.881   6.784   6.319  0.0261  0.0931  0.1897
  228MOL    Cl345857   6.923   6.611   6.310  0.1501  0.2056 -0.0238
  228MOL     C445858   6.759   6.828   6.321  0.2337 -0.7986 -0.8670
  228MOL     C545859   6.725   6.977   6.335  0.2566 -0.9177 -0.1689
  228MOL     H645860   6.996   6.967   6.348  0.3892 -0.2280  0.7912
  228MOL     H745861   7.075   6.839   6.260 -1.2825  2.7490 -1.5307
  228MOL     H845862   6.679   6.757   6.310  1.6580 -2.3033 -1.6953
  228MOL     H945863   6.684   6.990   6.435 -0.2894 -1.1190 -0.3621
  228MOL    H1045864   6.814   7.040   6.335 -1.5495  1.7298  1.4414
  228MOL    H1145865   7.045   6.821   6.439  1.2468 -1.8256 -1.2198
  228MOL    C1245866   6.627   7.026   6.225  0.6305  0.0048 -0.5605
  228MOL    C1345867   6.687   7.041   6.084  0.2102 -0.3692  0.2367
  228MOL   Cl1445868   6.766   7.193   6.080  0.0636  0.1815  0.0445
  228MOL    C1545869   6.690   6.963   5.976  0.4971  0.2401  0.2498
  228MOL    C1645870   6.622   6.829   5.978 -0.3897 -0.4296  0.1167
  228MOL    H1745871   6.541   6.959   6.223  2.1577 -2.0462 -0.2164
  228MOL    H1845872   6.576   7.113   6.264  0.7255 -1.0380  2.0085
  228MOL    H1945873   6.733   6.989   5.881  1.2132 -0.5173  0.3562
  228MOL    H2045874   6.553   6.814   6.060  0.3077  0.1090  0.8056
  228MOL    H2145875   6.566   6.814   5.886  2.0333  0.5035 -1.5781
  228MOL    C2245876   6.728   6.718   5.969 -0.7325 -0.0478  0.1889
  228MOL    C2345877   6.695   6.573   5.947  0.0427  0.1038 -0.5979
  228MOL   Cl2445878   6.533   6.532   5.981  0.4005 -0.3982 -0.0760
  228MOL    C2545879   6.785   6.488   5.901 -0.1466  0.3963 -0.0646
  228MOL    C2645880   6.760   6.335   5.877  0.2352 -0.2933 -0.4570
  228MOL    H2745881   6.806   6.738   5.896 -1.0596  1.5858  0.2696
  228MOL    H2845882   6.778   6.742   6.063 -1.2691  0.0291  0.4550
  228MOL    H2945883   6.884   6.524   5.879  0.0175 -0.4111 -0.6842
  228MOL    H3045884   6.671   6.289   5.920  0.3330 -2.7175 -2.7259
  228MOL    H3145885   6.741   6.327   5.770 -1.8166  0.4661 -0.1716
  228MOL    C3245886   6.886   6.263   5.932  0.1073  0.3981 -0.0587
  228MOL    C3345887   6.889   6.110   5.925 -0.3912 -0.1259 -0.0244
  228MOL   Cl3445888   6.828   6.032   6.067 -0.4348 -0.3039  0.4045
  228MOL    C3545889   6.936   6.037   5.824  0.8698  0.2859  0.4118
  228MOL    C3645890   6.934   5.885   5.810 -0.8847 -0.2960 -0.2692
  228MOL    H3745891   6.972   6.309   5.882  0.6120  0.9626  1.2870
  228MOL    H3845892   6.898   6.290   6.037 -0.3639  0.2785  0.0234
  228MOL    H3945893   6.986   6.087   5.742 -2.5190 -0.8009 -2.4319
  228MOL    H4045894   7.038   5.855   5.826 -0.7304  0.8628  0.9655
  228MOL    H4145895   6.874   5.836   5.887 -1.3943  0.6815 -0.0429
  228MOL    C4245896   6.879   5.854   5.670  0.6270  0.1713  0.0410
  228MOL    C4345897   6.842   5.707   5.658  0.7509  0.8969 -0.7411
  228MOL   Cl4445898   6.986   5.617   5.605  0.3230 -0.2356 -0.1382
  228MOL    C4545899   6.725   5.647   5.677 -0.1611 -0.4131  0.7331
  228MOL    C4645900   6.604   5.717   5.724 -0.2567  0.2691  0.6123
  228MOL    H4745901   6.804   5.929   5.647 -2.9731 -3.3214  0.0232
  228MOL    H4845902   6.951   5.883   5.593 -0.6373  1.5870 -0.6088
  228MOL    H4945903   6.716   5.540   5.666 -0.9289 -0.4198  1.3962
  228MOL    H5045904   6.591   5.703   5.831 -0.3532 -1.2062  0.4134
  228MOL    H5145905   6.604   5.825   5.708  0.0055  0.3022  0.8421
  228MOL    C5245906   6.471   5.658   5.663 -0.3283  0.0984 -0.2049
  228MOL    C5345907   6.457   5.663   5.504 -0.4278 -0.6558  0.5868
  228MOL   Cl5445908   6.475   5.821   5.437 -0.0143 -0.2459  0.3726
  228MOL    C5545909   6.437   5.554   5.426  0.1633  0.3080  0.4491
  228MOL    C5645910   6.421   5.550   5.277  0.2952  0.5462 -0.2556
  228MOL    H5745911   6.468   5.555   5.699 -0.8695  0.6162  1.2500
  228MOL    H5845912   6.388   5.706   5.714  0.0820 -1.8371  2.4179
  228MOL    H5945913   6.422   5.461   5.480 -1.0239  0.7917  0.9563
  228MOL    H6045914   6.427   5.654   5.243  1.5978  0.4511 -0.3152
  228MOL    H6145915   6.517   5.510   5.246  0.1913 -1.2725  1.6727
  228MOL    C6245916   6.310   5.468   5.215  0.3404  0.1559 -0.4996
  228MOL    C6345917   6.323   5.459   5.073  0.1029 -1.1144  0.0468
  228MOL   Cl6445918   6.441   5.335   5.023 -0.1039 -0.0272  0.0432
  228MOL    C6545919   6.266   5.541   4.984  0.0094 -0.5734  0.0851
  228MOL    C6645920   6.293   5.532   4.825 -0.1523  0.2400  0.3451
  228MOL    H6745921   6.311   5.367   5.256  1.0737  0.1306 -0.5734
  228MOL    H6845922   6.211   5.509   5.237 -0.2445 -0.3980 -1.9861
  228MOL    H6945923   6.196   5.618   5.013 -0.0431 -0.4787 -0.2940
  228MOL    H7045924   6.203   5.539   4.764  0.0539  1.4964  0.1753
  228MOL    H7145925   6.335   5.434   4.801  0.6322  0.3745  1.1378
  228MOL    C7245926   6.392   5.649   4.770 -0.0559  0.3352 -0.6359
  228MOL    C7345927   6.325   5.789   4.771 -0.5344  0.3091 -0.0745
  228MOL   Cl7445928   6.357   5.873   4.914 -0.0500  0.2097 -0.0388
  228MOL    C7545929   6.240   5.830   4.672  0.3860 -0.1056  0.1808
  228MOL    C7645930   6.153   5.955   4.675 -1.0655  0.5289  0.1968
  228MOL    H7745931   6.425   5.639   4.667 -0.4426 -1.7255 -0.5811
  228MOL    H7845932   6.481   5.662   4.832  1.1796  0.4469 -2.3900
  228MOL    H7945933   6.236   5.771   4.582  2.9072 -1.0100  0.6343
  228MOL    H8045934   6.125   5.983   4.777 -0.3354 -0.4538  0.6792
  228MOL    H8145935   6.063   5.935   4.616 -0.1382 -3.2285 -0.0871
  228MOL    C8245936   6.230   6.069   4.605 -0.7989 -0.5705 -0.0309
  228MOL    C8345937   6.163   6.203   4.603 -0.3876  0.4025  0.2800
  228MOL   Cl8445938   6.101   6.234   4.445 -0.0312  0.2570  0.2226
  228MOL    C8545939   6.161   6.297   4.697  0.3120 -0.6831  1.2130
  228MOL    C8645940   6.087   6.432   4.685 -0.1664  0.2097  0.5597
  228MOL    H8745941   6.266   6.050   4.504 -1.5575 -0.7526 -0.2721
  228MOL    H8845942   6.324   6.085   4.656 -0.5913 -1.8641  0.0221
  228MOL    H8945943   6.211   6.277   4.790  0.5574 -0.9492  1.0247
  228MOL    H9045944   6.158   6.503   4.645 -2.6460  1.5423 -1.5923
  228MOL    H9145945   6.007   6.430   4.611  2.2792 -1.0104 -2.1738
  228MOL    C9245946   6.043   6.497   4.821 -1.2816 -0.6868 -0.3029
  228MOL    C9345947   5.954   6.406   4.905 -0.5071 -0.0918  0.2676
  228MOL   Cl9445948   5.805   6.388   4.824  0.2913 -0.2768 -0.0740
  228MOL    C9545949   5.985   6.347   5.022 -0.8972  0.6933  0.2576
  228MOL    C9645950   6.111   6.361   5.093  0.2023  0.3025  0.0045
  228MOL    H9745951   5.982   6.583   4.796  1.5570  1.3871 -0.3576
  228MOL    H9845952   6.125   6.540   4.879 -1.5529  1.7702 -1.6928
  228MOL    H9945953   5.907   6.293   5.072 -0.2496  0.0145  0.5536
  228MOL   H10045954   6.183   6.412   5.028  0.3533  2.3397  1.7015
  228MOL   H10145955   6.094   6.434   5.172  0.7918  1.4468 -0.9122
  228MOL   C10245956   6.162   6.229   5.149 -0.4158  0.1235 -0.0681
  228MOL   C10345957   6.306   6.243   5.168 -0.4649  0.1710  0.1734
  228MOL  Cl10445958   6.395   6.209   5.022  0.0788  0.1867  0.3266
  228MOL   C10545959   6.375   6.237   5.281 -0.3859 -0.4208  0.0391
  228MOL   C10645960   6.522   6.220   5.294 -0.2612 -0.1824 -0.2545
  228MOL   H10745961   6.095   6.212   5.234 -2.4362  1.5663 -1.3098
  228MOL   H10845962   6.146   6.146   5.080 -0.7893 -0.5792  0.8538
  228MOL   H10945963   6.306   6.241   5.364 -1.2812 -3.3726 -0.5087
  228MOL   H11045964   6.544   6.135   5.358 -2.5376 -1.9694 -1.7797
  228MOL   H11145965   6.575   6.196   5.202  0.9717  1.5369 -0.0310
  228MOL   C11245966   6.603   6.333   5.358 -0.2086  0.3319 -0.3560
  228MOL   C11345967   6.747   6.292   5.347  0.4863 -0.4318  0.1595
  228MOL  Cl11445968   6.814   6.239   5.497 -0.1738 -0.1859  0.3872
  228MOL   C11545969   6.827   6.304   5.237 -0.8393 -0.2418  0.0767
  228MOL   C11645970   6.787   6.364   5.098 -0.6573  0.3589 -0.4869
  228MOL   H11745971   6.580   6.423   5.300 -0.6177 -0.5765 -1.6336
  228MOL   H11845972   6.581   6.348   5.463 -2.4605 -0.3077 -0.7016
  228MOL   H11945973   6.932   6.279   5.242 -0.5604  1.1846  1.8859
  228MOL   H12045974   6.688   6.407   5.113 -0.3263  0.7612  0.5786
  228MOL   H12145975   6.777   6.276   5.034 -0.0302 -1.1236  1.3660
  228MOL   C12245976   6.888   6.458   5.033 -0.0853 -1.2529  0.0067
  228MOL   C12345977   6.868   6.481   4.888  0.7190 -0.2130  0.1810
  228MOL  Cl12445978   6.943   6.351   4.797  0.4373 -0.0476  0.0091
  228MOL   C12545979   6.818   6.597   4.837  0.4458  0.0062  0.4715
  228MOL   C12645980   6.759   6.716   4.911  0.0253 -0.3854 -0.1493
  228MOL   H12745981   6.905   6.551   5.088  0.0236 -1.0628 -0.3444
  228MOL   H12845982   6.989   6.418   5.040  1.4486  1.9746 -2.1109
  228MOL   H12945983   6.817   6.611   4.730  1.9428 -0.0496  0.4400
  228MOL   H13045984   6.766   6.693   5.018 -1.1613  1.7480  0.4217
  228MOL   H13145985   6.821   6.802   4.888  1.2562 -0.9560  0.9368
  228MOL   C13245986   6.607   6.748   4.886  0.6070  0.1664  0.3067
  228MOL   C13345987   6.512   6.637   4.929  0.8222 -0.2406 -0.4648
  228MOL  Cl13445988   6.479   6.652   5.096 -0.1463 -0.1802 -0.1673
  228MOL   C13545989   6.463   6.533   4.858 -0.7075 -0.3327 -0.4293
  228MOL   C13645990   6.483   6.513   4.705  0.4714 -0.0793  0.4190
  228MOL   H13745991   6.575   6.835   4.943 -1.2067 -0.0165 -0.4059
  228MOL   H13845992   6.598   6.776   4.781  1.7211  0.5484  0.3019
  228MOL   H13945993   6.395   6.466   4.908  1.8043 -2.6789 -0.0740
  228MOL   H14045994   6.384   6.523   4.661 -0.3886 -3.8274  1.3514
  228MOL   H14145995   6.549   6.590   4.666 -1.2608  1.1881 -0.0820
  228MOL   C14245996   6.550   6.382   4.669 -0.2688  0.6977 -0.4432
  228MOL   C14345997   6.562   6.378   4.518  0.3122 -0.0982 -0.8499
  228MOL  Cl14445998   6.718   6.436   4.470 -0.2245 -0.1301 -0.2388
  228MOL   C14545999   6.462   6.347   4.434  0.0696 -0.5792  0.1757
  228MOL   C14646000   6.467   6.359   4.279  0.3974  1.0272  0.0302
  228MOL   H14746001   6.472   6.315   4.708  0.4682  0.6122  0.9043
  228MOL   H14846002   6.640   6.363   4.726 -1.2755 -0.2598  0.8771
  228MOL   H14946003   6.369   6.312   4.476 -0.0528  0.3198  0.6656
  228MOL   H15046004   6.568   6.387   4.247  0.8123 -0.1499  0.3086
  228MOL   H15146005   6.454   6.264   4.227  2.1656  0.8223 -0.0613
  228MOL   C15246006   6.372   6.468   4.233 -0.2348 -0.1775  0.0559
  228MOL   C15346007   6.369   6.493   4.087  0.0497  0.4670 -0.4634
  228MOL  Cl15446008   6.216   6.560   4.041 -0.0241  0.1535 -0.2904
  228MOL   C15546009   6.466   6.461   4.003 -0.6087  0.1490  0.3503
  228MOL   C15646010   6.456   6.503   3.856 -0.2658 -0.0570  0.4337
  228MOL   H15746011   6.275   6.432   4.265 -0.4924  1.1293  0.7564
  228MOL   H15846012   6.387   6.564   4.282  0.8595  0.1000 -0.7897
  228MOL   H15946013   6.560   6.416   4.030  0.1837  0.9791 -0.9674
  228MOL   H16046014   6.562   6.505   3.829 -0.3558  0.4546  0.1193
  228MOL   H16146015   6.417   6.603   3.842 -1.8402 -0.6566  0.3715
  228MOL   C16246016   6.361   6.408   3.775 -0.4799  0.2305  0.0620
  228MOL   C16346017   6.377   6.420   3.624  0.6182  0.9428  0.0774
  228MOL  Cl16446018   6.291   6.553   3.565  0.1026 -0.1345 -0.0069
  228MOL   C16546019   6.428   6.319   3.550 -0.7585  0.1727 -0.7647
  228MOL   C16646020   6.426   6.301   3.399  0.1517 -0.2684 -0.1867
  228MOL   H16746021   6.398   6.309   3.800  0.2944  0.4741 -0.0824
  228MOL   H16846022   6.257   6.428   3.800 -1.0875 -2.3086 -0.3686
  228MOL   H16946023   6.468   6.239   3.610  0.2004  0.3029 -1.2211
  228MOL   H17046024   6.350   6.364   3.353  0.9854  0.6023 -0.3892
  228MOL   H17146025   6.520   6.342   3.363  0.3650 -0.9770 -0.4498
  228MOL   C17246026   6.418   6.147   3.368 -0.3193 -0.6601  0.4276
  228MOL   C17346027   6.385   6.121   3.226  0.1179  0.0142  0.3002
  228MOL  Cl17446028   6.507   6.170   3.110 -0.4083  0.4674  0.1385
  228MOL   C17546029   6.270   6.057   3.193  0.4123  0.9176  0.4152
  228MOL   C17646030   6.218   6.029   3.050  0.4120  1.0573  0.5807
  228MOL   H17746031   6.326   6.111   3.414 -0.3395 -1.5280 -0.2797
  228MOL   H17846032   6.505   6.085   3.392 -0.4599 -2.1839 -2.7449
  228MOL   H17946033   6.200   6.021   3.267  0.4209 -2.1407 -0.9997
  228MOL   H18046034   6.296   6.048   2.976 -0.4647 -0.2407 -0.7067
  228MOL   H18146035   6.146   6.111   3.039  1.0213  1.4935 -0.2284
  228MOL   C18246036   6.152   5.897   3.031 -0.0689  0.6452  0.4435
  228MOL   C18346037   6.010   5.895   3.083  0.0590  0.5107 -0.0107
  228MOL  Cl18446038   5.911   5.984   2.972 -0.0241 -0.0398  0.0515
  228MOL   C18546039   5.960   5.828   3.186  0.4328  0.3199 -0.1027
  228MOL   C18646040   5.814   5.826   3.226  0.3566  0.8326  0.1845
  228MOL   H18746041   6.142   5.871   2.925  1.0786 -2.0547  0.9786
  228MOL   H18846042   6.197   5.805   3.069 -1.8729 -0.7618 -0.7686
  228MOL   H18946043   6.032   5.764   3.236  0.7701 -0.1424 -1.1724
  228MOL   H19046044   5.802   5.779   3.323  0.7443  1.4719  0.5418
  228MOL   H19146045   5.772   5.926   3.239 -0.6318  0.5984 -1.0083
  228MOL   C19246046   5.725   5.744   3.134 -0.4770 -0.3216  0.6275
  228MOL   C19346047   5.593   5.720   3.202 -1.2520 -0.2118 -0.9994
  228MOL  Cl19446048   5.598   5.573   3.294 -0.0150 -0.2067  0.2327
  228MOL   C19546049   5.483   5.797   3.207 -0.3313  0.4325 -0.0832
  228MOL   C19646050   5.461   5.918   3.122  0.2994 -0.4159  0.6705
  228MOL   H19746051   5.778   5.650   3.120  0.0372  0.4286 -2.6707
  228MOL   H19846052   5.705   5.774   3.032  0.3224  1.7147  1.0438
  228MOL   H19946053   5.396   5.764   3.263 -0.3458 -0.4209 -0.5922
  228MOL   H20046054   5.551   5.972   3.091  0.5188 -0.6992  0.8030
  228MOL   H20146055   5.425   5.999   3.185  1.0762  1.1904 -0.9074
  228MOL   H20246056   5.393   5.884   3.045 -0.5867  0.0682  1.2284
  229MOL     C146057   4.556   3.417   3.722 -0.0293  0.2838  0.2220
  229MOL     C246058   4.634   3.293   3.687 -0.0315 -0.0592 -0.2025
  229MOL    Cl346059   4.735   3.253   3.822  0.4703 -0.2725  0.0287
  229MOL     C446060   4.624   3.209   3.580 -0.1001 -0.2276 -0.3652
  229MOL     C546061   4.520   3.225   3.471 -0.0323  0.2716 -0.5408
  229MOL     H646062   4.507   3.400   3.818 -1.4051  1.5359 -0.2341
  229MOL     H746063   4.485   3.450   3.646  2.7768  1.5211 -1.9692
  229MOL     H846064   4.692   3.126   3.576  0.4142  0.2123 -1.0037
  229MOL     H946065   4.438   3.156   3.487 -0.2191  1.0588  2.1032
  229MOL    H1046066   4.474   3.323   3.485  0.3000  0.0311  2.3298
  229MOL    H1146067   4.615   3.508   3.733  1.6256 -0.5611 -1.4450
  229MOL    C1246068   4.570   3.183   3.328 -0.0357 -0.0845 -0.0949
  229MOL    C1346069   4.700   3.243   3.286  0.5734 -0.3314 -0.1525
  229MOL   Cl1446070   4.824   3.128   3.254  0.3608  0.6372  0.5065
  229MOL    C1546071   4.729   3.372   3.261  0.1862  0.8377  0.3525
  229MOL    C1646072   4.645   3.498   3.281 -0.4384  0.4031  0.4061
  229MOL    H1746073   4.601   3.079   3.326 -3.7334 -1.2550 -0.1114
  229MOL    H1846074   4.501   3.187   3.244  0.6449 -1.7806 -0.7618
  229MOL    H1946075   4.831   3.392   3.232  0.1447  0.7786  0.1632
  229MOL    H2046076   4.563   3.488   3.352  0.2519 -1.4647  0.9916
  229MOL    H2146077   4.715   3.569   3.325 -1.6768  1.0368  1.3956
  229MOL    C2246078   4.578   3.550   3.150 -0.6761 -0.1501  0.5757
  229MOL    C2346079   4.661   3.529   3.024  0.2206 -0.1141 -0.1066
  229MOL   Cl2446080   4.655   3.374   2.949 -0.2357  0.1719  0.1847
  229MOL    C2546081   4.725   3.639   2.976  0.3281  0.0111 -0.0076
  229MOL    C2646082   4.815   3.649   2.849 -0.1056  0.2366  0.2179
  229MOL    H2746083   4.487   3.493   3.133 -1.2678  2.1671 -4.9621
  229MOL    H2846084   4.550   3.653   3.170  2.0857  0.4409  1.6839
  229MOL    H2946085   4.720   3.728   3.038  1.3572  0.2631 -0.2828
  229MOL    H3046086   4.913   3.682   2.883 -1.0469  2.4029  0.9480
  229MOL    H3146087   4.847   3.552   2.811 -0.4335 -0.5075  1.8134
  229MOL    C3246088   4.756   3.719   2.725 -0.1550 -0.0486 -0.3927
  229MOL    C3346089   4.867   3.768   2.638 -0.2072 -0.5248  0.0123
  229MOL   Cl3446090   4.830   3.912   2.555  0.1834 -0.3208  0.5858
  229MOL    C3546091   4.986   3.701   2.613  0.4494 -0.9867 -0.4129
  229MOL    C3646092   5.096   3.744   2.513  0.0592 -0.2748  0.4677
  229MOL    H3746093   4.692   3.653   2.665 -1.0580  0.6459 -0.2107
  229MOL    H3846094   4.697   3.807   2.752 -0.5785 -0.0380 -1.3170
  229MOL    H3946095   5.012   3.613   2.669  1.4003 -1.0540 -0.9582
  229MOL    H4046096   5.121   3.847   2.540 -3.2483  0.0399  2.6826
  229MOL    H4146097   5.194   3.702   2.536  1.5125  2.0907 -1.1608
  229MOL    C4246098   5.062   3.735   2.364  0.2901 -1.1992 -0.4114
  229MOL    C4346099   5.035   3.600   2.304 -0.0759 -0.5334  0.0500
  229MOL   Cl4446100   4.881   3.589   2.235 -0.2110  0.0106 -0.5408
  229MOL    C4546101   5.109   3.491   2.288 -0.5700  0.4214 -0.2852
  229MOL    C4646102   5.244   3.474   2.355 -0.5719 -0.1952  0.7849
  229MOL    H4746103   4.985   3.807   2.333  1.0887 -0.2156 -0.1305
  229MOL    H4846104   5.134   3.790   2.303 -0.8878  1.6800  0.6971
  229MOL    H4946105   5.075   3.400   2.242  1.7976 -2.0851  2.7507
  229MOL    H5046106   5.315   3.422   2.290 -1.3685 -0.9978  0.5271
  229MOL    H5146107   5.277   3.577   2.364 -0.5837  0.0684 -1.7239
  229MOL    C5246108   5.233   3.394   2.491 -0.0347  0.1191 -0.2389
  229MOL    C5346109   5.370   3.373   2.560  0.0723  0.2096  0.5608
  229MOL   Cl5446110   5.432   3.523   2.614  0.0155  0.0661 -0.0123
  229MOL    C5546111   5.441   3.256   2.566 -0.0496  0.3397  0.4738
  229MOL    C5646112   5.568   3.225   2.633 -0.1412  0.1908 -0.5230
  229MOL    H5746113   5.172   3.455   2.558  1.3363  0.4599  0.7440
  229MOL    H5846114   5.178   3.300   2.484  0.8900 -0.5099  0.7119
  229MOL    H5946115   5.401   3.168   2.519  0.8367 -0.5171  1.2991
  229MOL    H6046116   5.632   3.198   2.549 -0.8177  0.8853 -1.2686
  229MOL    H6146117   5.599   3.317   2.681 -1.7357  0.2862  0.3441
  229MOL    C6246118   5.554   3.114   2.740 -0.0540  0.6357  0.5071
  229MOL    C6346119   5.503   2.978   2.689  0.2129 -0.7111  0.0975
  229MOL   Cl6446120   5.359   2.923   2.771  0.0006 -0.2385 -0.0530
  229MOL    C6546121   5.548   2.913   2.584 -0.4586  0.0329 -1.0270
  229MOL    C6646122   5.498   2.785   2.525 -0.0294  0.6360  0.1446
  229MOL    H6746123   5.641   3.097   2.804 -1.0595 -1.1119  1.4688
  229MOL    H6846124   5.473   3.139   2.809  0.6533 -1.2161  2.0633
  229MOL    H6946125   5.637   2.955   2.539  0.3689 -0.7433 -0.1343
  229MOL    H7046126   5.498   2.806   2.418  0.0145  1.0067  0.2151
  229MOL    H7146127   5.400   2.757   2.564 -0.1553  2.5910  1.3430
  229MOL    C7246128   5.601   2.677   2.555  0.3994 -0.3499 -0.7707
  229MOL    C7346129   5.606   2.562   2.457  0.1106  0.2269 -0.0322
  229MOL   Cl7446130   5.714   2.439   2.516  0.0175 -0.5871  0.2915
  229MOL    C7546131   5.538   2.553   2.342  0.3451  0.1071  0.6021
  229MOL    C7646132   5.545   2.446   2.238 -0.5696  0.1414  0.1540
  229MOL    H7746133   5.595   2.655   2.661  2.6703 -1.3568 -0.8134
  229MOL    H7846134   5.705   2.712   2.553  0.9790 -1.9031  1.0157
  229MOL    H7946135   5.467   2.632   2.324 -1.0163 -1.0000  1.0547
  229MOL    H8046136   5.613   2.368   2.273  0.7692  1.3590  0.3289
  229MOL    H8146137   5.601   2.495   2.159 -1.4237 -1.0383 -1.2029
  229MOL    C8246138   5.410   2.406   2.173 -0.2771 -0.2856  0.1482
  229MOL    C8346139   5.424   2.285   2.076  0.1048  0.3875 -0.5029
  229MOL   Cl8446140   5.377   2.330   1.918  0.3841 -0.5601 -0.3479
  229MOL    C8546141   5.486   2.162   2.108 -0.3250 -0.9125 -0.1756
  229MOL    C8646142   5.506   2.055   2.007 -0.4510 -0.1649  0.0820
  229MOL    H8746143   5.360   2.497   2.141 -0.4080 -0.3425  0.1938
  229MOL    H8846144   5.345   2.368   2.252  0.1948  0.3155  0.8317
  229MOL    H8946145   5.515   2.143   2.210  0.0943  0.6053  0.0045
  229MOL    H9046146   5.460   2.090   1.914 -1.9360  0.1429  0.9345
  229MOL    H9146147   5.614   2.054   1.991 -0.0382 -0.8530  2.6571
  229MOL    C9246148   5.452   1.929   2.065  0.0731 -0.5246 -0.5839
  229MOL    C9346149   5.458   1.821   1.957  0.2657  0.2832  0.2768
  229MOL   Cl9446150   5.601   1.728   1.975 -0.0551  0.2565  0.0475
  229MOL    C9546151   5.359   1.779   1.869  0.0801 -0.3816 -0.3036
  229MOL    C9646152   5.231   1.860   1.846  0.0264 -0.1069 -0.0287
  229MOL    H9746153   5.349   1.958   2.087  0.7332  0.9265  0.6564
  229MOL    H9846154   5.490   1.892   2.160  0.1119  1.3592  0.1375
  229MOL    H9946155   5.378   1.688   1.816  1.6642  0.2611 -0.8654
  229MOL   H10046156   5.149   1.812   1.899 -1.6519  0.7392 -1.7711
  229MOL   H10146157   5.247   1.954   1.899 -0.9342 -0.0373  0.1503
  229MOL   C10246158   5.195   1.915   1.710  0.6720  0.1592  0.0231
  229MOL   C10346159   5.098   2.034   1.707 -0.3092 -0.1145 -0.0198
  229MOL  Cl10446160   4.970   2.022   1.826  0.0156  0.2475  0.0450
  229MOL   C10546161   5.111   2.141   1.628  1.3520 -0.1178 -0.5384
  229MOL   C10646162   5.018   2.256   1.609 -0.0676 -0.1702  0.8629
  229MOL   H10746163   5.280   1.956   1.655  1.9526 -0.3300  1.6252
  229MOL   H10846164   5.154   1.834   1.649  2.3936 -0.1224 -0.7936
  229MOL   H10946165   5.200   2.152   1.569  1.3505  0.5543 -0.4277
  229MOL   H11046166   4.930   2.247   1.673 -0.4048 -0.3406  0.3849
  229MOL   H11146167   5.073   2.345   1.638 -0.2089 -0.6790  2.7488
  229MOL   C11246168   4.965   2.291   1.467  0.1760  0.1232 -0.2143
  229MOL   C11346169   4.846   2.394   1.461 -0.1036 -0.2845 -0.2243
  229MOL  Cl11446170   4.825   2.475   1.608 -0.4499 -0.3584 -0.0130
  229MOL   C11546171   4.753   2.407   1.362 -0.5122  0.1893 -0.5222
  229MOL   C11646172   4.748   2.322   1.240 -0.1583 -0.2082 -0.1954
  229MOL   H11746173   5.050   2.337   1.417  0.4357 -3.2637 -3.0835
  229MOL   H11846174   4.943   2.207   1.401  1.7972  0.6197 -1.4244
  229MOL   H11946175   4.673   2.477   1.380  1.2519  2.9985 -3.2619
  229MOL   H12046176   4.652   2.271   1.245  0.7094 -2.0436 -1.7133
  229MOL   H12146177   4.824   2.244   1.243  0.0491 -0.0407 -1.1324
  229MOL   C12246178   4.769   2.404   1.110  0.2697 -0.6209 -0.1463
  229MOL   C12346179   4.662   2.390   0.999  0.3104 -0.1324 -0.6769
  229MOL  Cl12446180   4.508   2.447   1.044 -0.3775  0.2090  0.0177
  229MOL   C12546181   4.674   2.342   0.874 -0.4679 -0.6465  0.3718
  229MOL   C12646182   4.796   2.274   0.821 -0.0085  0.3108  0.3106
  229MOL   H12746183   4.768   2.509   1.137  1.6677 -0.9336  1.1749
  229MOL   H12846184   4.870   2.396   1.070  0.5990  1.7014  0.1927
  229MOL   H12946185   4.584   2.344   0.815 -0.0822 -0.2854 -0.2107
  229MOL   H13046186   4.871   2.289   0.899 -1.4576  3.3353  1.2222
  229MOL   H13146187   4.789   2.166   0.829  0.9051  0.2961  1.0038
  229MOL   C13246188   4.848   2.333   0.692 -0.5230 -0.3681  0.2685
  229MOL   C13346189   4.879   2.477   0.710  0.3327  0.5228  0.3473
  229MOL  Cl13446190   5.035   2.487   0.793  0.2713 -0.1638  0.0872
  229MOL   C13546191   4.810   2.581   0.666  0.2271 -0.1616  0.4471
  229MOL   C13646192   4.674   2.564   0.596  0.6401 -0.5046  0.2808
  229MOL   H13746193   4.934   2.284   0.646  0.6452  0.0942  1.9173
  229MOL   H13846194   4.768   2.329   0.618  0.2383 -0.5931 -0.5574
  229MOL   H13946195   4.844   2.681   0.688 -0.4518 -0.0811  1.1202
  229MOL   H14046196   4.614   2.478   0.626  0.9599 -0.9141 -0.2532
  229MOL   H14146197   4.615   2.643   0.642 -0.6383 -2.3259  1.8566
  229MOL   C14246198   4.680   2.594   0.445 -0.2093 -0.0163  0.4398
  229MOL   C14346199   4.699   2.470   0.355 -0.6668  0.1037  0.3991
  229MOL  Cl14446200   4.558   2.384   0.306 -0.0115  0.1320  0.4111
  229MOL   C14546201   4.814   2.414   0.305 -0.2240 -0.3700 -0.4051
  229MOL   C14646202   4.827   2.286   0.215  0.1729  0.2719 -0.2487
  229MOL   H14746203   4.763   2.661   0.426  0.1897  0.0877  2.4922
  229MOL   H14846204   4.582   2.625   0.410  1.0693 -0.6270 -3.9374
  229MOL   H14946205   4.903   2.463   0.344 -2.0332  2.6383  0.1217
  229MOL   H15046206   4.931   2.255   0.211  0.2015 -0.0448  2.6119
  229MOL   H15146207   4.777   2.197   0.251  0.0633 -0.4262 -2.0484
  229MOL   C15246208   4.773   2.306   0.070  0.3625  0.1187  0.0480
  229MOL   C15346209   4.855   2.227   8.389  0.0979  0.1929 -0.2470
  229MOL  Cl15446210   5.021   2.251   8.397  0.0092  0.5607  0.0571
  229MOL   C15546211   4.798   2.140   8.298 -0.3745 -0.5881  0.1316
  229MOL   C15646212   4.880   2.049   8.209  0.1422  0.7832  0.4855
  229MOL   H15746213   4.670   2.271   0.068  0.4781 -0.2324  0.2954
  229MOL   H15846214   4.784   2.413   0.049  1.8700  0.1256  0.7999
  229MOL   H15946215   4.690   2.130   8.304 -0.3244 -0.5989  1.0900
  229MOL   H16046216   4.942   1.997   8.282 -1.4449  0.6566  1.7649
  229MOL   H16146217   4.948   2.095   8.137  2.6706 -0.0135  2.3151
  229MOL   C16246218   4.788   1.950   8.130  0.4737 -0.0380  0.7806
  229MOL   C16346219   4.710   2.020   8.017  0.3002  0.1015  0.0928
  229MOL  Cl16446220   4.809   2.031   7.877  0.0335 -0.1630 -0.3176
  229MOL   C16546221   4.574   2.041   8.017  0.5802 -0.1791 -0.8870
  229MOL   C16646222   4.499   2.082   7.893 -0.2801  0.0788 -0.2463
  229MOL   H16746223   4.846   1.873   8.079  0.0963 -1.2732  2.2093
  229MOL   H16846224   4.728   1.906   8.210 -0.0496  0.1998  0.5199
  229MOL   H16946225   4.523   2.010   8.107  0.4822  0.3542 -0.7575
  229MOL   H17046226   4.533   2.182   7.867 -0.9560  0.2437 -0.5189
  229MOL   H17146227   4.531   2.026   7.805 -1.2107 -1.3097  0.2783
  229MOL   C17246228   4.347   2.078   7.909 -0.5745  0.4286  0.1438
  229MOL   C17346229   4.281   2.178   7.815  0.2575 -0.1404  0.4693
  229MOL  Cl17446230   4.126   2.128   7.766  0.3929 -0.1975  0.1712
  229MOL   C17546231   4.325   2.304   7.787 -0.6206  0.7013 -1.0616
  229MOL   C17646232   4.263   2.410   7.697 -0.2981  0.5773 -0.1003
  229MOL   H17746233   4.313   2.114   8.006  2.0445  0.7521  0.9967
  229MOL   H17846234   4.317   1.975   7.891  2.6260 -0.5160 -0.1263
  229MOL   H17946235   4.414   2.334   7.839  0.4978 -1.7796 -1.4800
  229MOL   H18046236   4.157   2.385   7.690 -0.8852  3.0114 -0.4792
  229MOL   H18146237   4.311   2.412   7.599  0.0529  2.8629  0.0942
  229MOL   C18246238   4.267   2.546   7.770  0.2773  0.1610  0.0514
  229MOL   C18346239   4.194   2.659   7.694 -0.5707 -0.0074 -0.7018
  229MOL  Cl18446240   4.169   2.797   7.793 -0.4292 -0.4126 -0.6212
  229MOL   C18546241   4.162   2.658   7.565  0.4063 -0.0666 -0.1514
  229MOL   C18646242   4.099   2.779   7.498  0.1274 -0.2217 -0.1343
  229MOL   H18746243   4.237   2.541   7.875  1.8971  1.1801  0.5875
  229MOL   H18846244   4.369   2.578   7.793 -0.5025  1.1277  2.3418
  229MOL   H18946245   4.183   2.572   7.503 -0.3431  0.4354 -1.1115
  229MOL   H19046246   4.022   2.817   7.564  0.7318  2.0193 -0.6790
  229MOL   H19146247   4.169   2.863   7.501 -0.1316 -0.0317  1.6492
  229MOL   C19246248   4.038   2.744   7.360 -0.7604  0.0503 -0.3645
  229MOL   C19346249   3.948   2.859   7.310  1.3050  0.2775 -0.9239
  229MOL  Cl19446250   3.777   2.824   7.343 -0.0661  0.2897  0.1344
  229MOL   C19546251   3.982   2.971   7.245 -0.1712 -0.2799  0.0533
  229MOL   C19646252   4.128   3.012   7.206 -0.3739  0.0476  0.2612
  229MOL   H19746253   3.983   2.652   7.381 -2.2647  0.8189 -0.8050
  229MOL   H19846254   4.109   2.724   7.281  0.5894 -2.1183  1.3642
  229MOL   H19946255   3.903   3.039   7.220 -1.5482 -2.0717 -0.5641
  229MOL   H20046256   4.142   3.024   7.099  1.3352 -0.1509  0.4453
  229MOL   H20146257   4.200   2.936   7.235 -1.4790 -1.4756 -0.8925
  229MOL   H20246258   4.151   3.106   7.256  0.0388  0.8025 -1.3165
  230MOL     C146259   4.861   5.792   2.237 -0.2521 -0.0307 -0.1755
  230MOL     C246260   4.727   5.751   2.299 -0.6960  0.3208 -0.0545
  230MOL    Cl346261   4.745   5.686   2.458  0.4097 -0.0079  0.2290
  230MOL     C446262   4.604   5.762   2.242  0.5383  0.1495  0.3273
  230MOL     C546263   4.589   5.821   2.104  0.0243 -0.5525  0.7339
  230MOL     H646264   4.884   5.895   2.263 -1.5239  0.4393 -0.8744
  230MOL     H746265   4.850   5.800   2.129 -1.9478  2.3477  0.1328
  230MOL     H846266   4.508   5.742   2.286 -0.1485  2.6971  0.0412
  230MOL     H946267   4.675   5.873   2.062 -1.7566 -1.4121 -4.2243
  230MOL    H1046268   4.564   5.741   2.035 -1.1884 -0.5716  1.1801
  230MOL    H1146269   4.954   5.740   2.261  0.8203  1.6207 -0.7087
  230MOL    C1246270   4.466   5.916   2.098  0.6867 -0.5433  0.4081
  230MOL    C1346271   4.431   5.946   1.956 -0.1411 -0.0516  0.9955
  230MOL   Cl1446272   4.567   5.993   1.867  0.3243  0.3633  0.0875
  230MOL    C1546273   4.304   5.929   1.910  0.8011  0.4469  0.4544
  230MOL    C1646274   4.184   5.903   1.999 -0.4832  0.1423 -0.0880
  230MOL    H1746275   4.385   5.876   2.158 -1.3225 -1.1227 -2.5730
  230MOL    H1846276   4.499   6.011   2.140  0.4731 -0.7513  1.0559
  230MOL    H1946277   4.283   5.938   1.805 -0.1406  0.4627  0.6415
  230MOL    H2046278   4.216   5.809   2.044 -2.8363  0.3039  1.9863
  230MOL    H2146279   4.190   5.975   2.081  1.6726  0.5333 -0.5358
  230MOL    C2246280   4.043   5.903   1.929  0.6610 -0.1905 -0.3458
  230MOL    C2346281   3.933   5.948   2.019  0.6421  0.5169 -0.5702
  230MOL   Cl2446282   3.848   6.090   1.955 -0.0672 -0.0720 -0.3596
  230MOL    C2546283   3.901   5.887   2.141  0.8332 -0.7378  0.1010
  230MOL    C2646284   3.788   5.925   2.228 -0.5924  0.1795  0.6459
  230MOL    H2746285   4.044   5.969   1.842  0.8845 -0.7934 -0.8068
  230MOL    H2846286   4.014   5.802   1.901  0.7463 -0.6999  1.3656
  230MOL    H2946287   3.959   5.804   2.178 -1.2559 -2.4380 -0.3161
  230MOL    H3046288   3.758   6.029   2.213 -0.9891  0.1013  0.8918
  230MOL    H3146289   3.695   5.874   2.200  0.5954 -2.8915  2.0915
  230MOL    C3246290   3.834   5.892   2.370  0.0642  0.3429 -0.4503
  230MOL    C3346291   3.935   5.992   2.422 -0.2620  0.0550 -0.2899
  230MOL   Cl3446292   3.854   6.143   2.458  0.1697  0.4669 -0.4266
  230MOL    C3546293   4.065   5.977   2.433  0.3514  0.7718  0.1473
  230MOL    C3646294   4.170   6.072   2.469  0.5311 -1.2008 -0.3868
  230MOL    H3746295   3.744   5.904   2.429 -0.6328 -1.7690 -1.0569
  230MOL    H3846296   3.874   5.792   2.385  0.6261  0.5286 -0.6812
  230MOL    H3946297   4.115   5.885   2.405 -1.2883  0.2050 -0.9740
  230MOL    H4046298   4.227   6.107   2.383 -2.0500  3.1649 -0.5222
  230MOL    H4146299   4.119   6.163   2.502  0.3230 -1.0617 -1.0889
  230MOL    C4246300   4.258   6.023   2.583 -0.6916  0.1593  0.1380
  230MOL    C4346301   4.373   5.930   2.538  0.4369 -0.2202 -0.7517
  230MOL   Cl4446302   4.314   5.771   2.496  0.1079  0.2434 -0.0907
  230MOL    C4546303   4.501   5.967   2.535 -0.0291 -0.1020  0.4517
  230MOL    C4646304   4.553   6.105   2.565  0.0494 -0.0341  0.0270
  230MOL    H4746305   4.300   6.112   2.631 -0.4021  1.0503 -1.7257
  230MOL    H4846306   4.195   5.963   2.650 -1.5155  0.1235 -0.6606
  230MOL    H4946307   4.574   5.888   2.526 -0.8068 -0.8850  0.8903
  230MOL    H5046308   4.488   6.183   2.526 -0.4848 -1.8159 -2.7454
  230MOL    H5146309   4.561   6.119   2.673 -1.9418 -2.2177  0.4887
  230MOL    C5246310   4.682   6.145   2.498 -0.4513  0.7994  0.1665
  230MOL    C5346311   4.733   6.282   2.552  0.0930  0.2414 -0.2957
  230MOL   Cl5446312   4.896   6.312   2.509  0.2884  0.3489  0.1420
  230MOL    C5546313   4.661   6.383   2.607  0.4883 -0.3540  0.1289
  230MOL    C5646314   4.712   6.518   2.650  0.1091 -0.4913 -0.3848
  230MOL    H5746315   4.753   6.063   2.495 -0.7686  0.5370 -0.2050
  230MOL    H5846316   4.649   6.147   2.394 -0.6237  1.7578  0.2349
  230MOL    H5946317   4.554   6.379   2.620  0.3287  0.6134 -0.7579
  230MOL    H6046318   4.733   6.518   2.757  1.7708 -1.0884 -0.6832
  230MOL    H6146319   4.811   6.532   2.606 -0.1310  0.2501 -0.6909
  230MOL    C6246320   4.621   6.630   2.609 -0.1753  0.0005 -1.3333
  230MOL    C6346321   4.647   6.764   2.666 -0.5955  0.9470  0.5777
  230MOL   Cl6446322   4.818   6.815   2.648 -0.2606  0.1695  0.0231
  230MOL    C6546323   4.553   6.852   2.701  0.0395 -0.2416  0.3793
  230MOL    C6646324   4.585   6.982   2.755  0.1821 -0.2179  0.3053
  230MOL    H6746325   4.607   6.645   2.502  2.0034  0.3079 -1.6105
  230MOL    H6846326   4.523   6.600   2.646 -0.0834 -0.6506 -1.6162
  230MOL    H6946327   4.447   6.832   2.690 -0.0136 -0.1572  0.7597
  230MOL    H7046328   4.586   7.049   2.669  0.6983 -0.6692 -0.0399
  230MOL    H7146329   4.676   6.990   2.815 -0.6749  1.6371  1.4185
  230MOL    C7246330   4.480   7.042   2.856  0.5642  0.1660  0.2893
  230MOL    C7346331   4.522   7.178   2.912  0.2004 -0.6133 -0.9104
  230MOL   Cl7446332   4.541   7.290   2.782 -0.2871 -0.1895  0.1546
  230MOL    C7546333   4.536   7.201   3.045  0.6647  0.1961  0.8192
  230MOL    C7646334   4.564   7.329   3.113  0.5260  0.7445  0.1449
  230MOL    H7746335   4.446   6.975   2.935  1.0339  0.2423  0.5530
  230MOL    H7846336   4.390   7.059   2.797 -1.3424 -0.6418  2.8731
  230MOL    H7946337   4.540   7.112   3.105 -0.2118 -0.2896  0.1762
  230MOL    H8046338   4.486   7.336   3.188 -0.9356  1.4443 -1.4190
  230MOL    H8146339   4.535   7.418   3.056  1.0472  1.2009  0.5788
  230MOL    C8246340   4.714   7.330   3.153 -0.2974  0.8193  0.4599
  230MOL    C8346341   4.808   7.386   3.042  0.3436  0.7637  0.2157
  230MOL   Cl8446342   4.886   7.248   2.962  0.5544 -0.0146 -0.3985
  230MOL    C8546343   4.817   7.515   3.009  0.3555  0.0298 -0.2791
  230MOL    C8646344   4.898   7.567   2.893  0.0876 -0.2158 -0.3626
  230MOL    H8746345   4.750   7.232   3.187  0.4712  0.2084 -1.9915
  230MOL    H8846346   4.730   7.406   3.228 -1.2469  2.3999 -0.9049
  230MOL    H8946347   4.754   7.588   3.059  0.7193  1.9459 -2.5001
  230MOL    H9046348   4.933   7.482   2.834  1.6097  2.0864 -2.9040
  230MOL    H9146349   4.830   7.602   2.816 -0.7535  0.5137  0.6957
  230MOL    C9246350   5.016   7.663   2.926 -0.3131 -0.5752 -0.0951
  230MOL    C9346351   5.143   7.635   2.846  0.1808  0.3058  0.5162
  230MOL   Cl9446352   5.218   7.487   2.900  0.3707 -0.1477  0.2755
  230MOL    C9546353   5.195   7.717   2.756 -0.1496 -1.1922  0.3278
  230MOL    C9646354   5.132   7.844   2.704 -0.0983 -0.3803 -0.2422
  230MOL    H9746355   5.036   7.676   3.032  1.6204 -0.8236 -0.4100
  230MOL    H9846356   4.972   7.759   2.898 -2.2067 -0.5970  2.5269
  230MOL    H9946357   5.291   7.704   2.707 -0.3868 -0.3699 -0.3661
  230MOL   H10046358   5.035   7.874   2.743  0.2712 -0.0154  0.4089
  230MOL   H10146359   5.199   7.926   2.730  0.7340 -1.1235 -0.0283
  230MOL   C10246360   5.106   7.839   2.555  0.6485 -0.2176 -1.1281
  230MOL   C10346361   4.989   7.759   2.499  0.8027  0.3367  0.4244
  230MOL  Cl10446362   5.010   7.707   2.340  0.5143 -0.0323 -0.0759
  230MOL   C10546363   4.874   7.736   2.562  0.4165 -0.1627  0.3087
  230MOL   C10646364   4.752   7.648   2.516 -0.3871  0.7917 -0.4667
  230MOL   H10746365   5.097   7.944   2.529  0.3101  0.9071  3.0825
  230MOL   H10846366   5.191   7.803   2.498  1.9205  0.1595  0.4862
  230MOL   H10946367   4.868   7.775   2.662  0.7493  0.4909  0.0753
  230MOL   H11046368   4.761   7.608   2.415  1.7043 -1.5912  0.6035
  230MOL   H11146369   4.741   7.566   2.588 -0.6222  1.3959  0.1934
  230MOL   C11246370   4.623   7.729   2.535  0.0357 -0.3368  0.8151
  230MOL   C11346371   4.498   7.644   2.514  0.7350 -0.5892 -0.5490
  230MOL  Cl11446372   4.516   7.474   2.480 -0.1070  0.0530 -0.1431
  230MOL   C11546373   4.376   7.700   2.540 -0.2613 -1.0685 -0.0383
  230MOL   C11646374   4.346   7.839   2.584 -0.3406 -0.3166  0.1026
  230MOL   H11746375   4.611   7.770   2.635 -0.4390 -1.0658  1.0643
  230MOL   H11846376   4.614   7.810   2.463 -1.3635 -1.1538  0.0361
  230MOL   H11946377   4.292   7.633   2.530 -0.4259 -0.7308 -0.9563
  230MOL   H12046378   4.434   7.901   2.598  0.0615 -1.0063  0.6300
  230MOL   H12146379   4.313   7.831   2.687  1.8570 -1.7660  0.7390
  230MOL   C12246380   4.254   7.912   2.488  0.6949  0.5035  0.8849
  230MOL   C12346381   4.298   7.933   2.345 -0.5126  0.7790  0.1813
  230MOL  Cl12446382   4.208   7.837   2.231 -0.2879 -0.2125  0.0958
  230MOL   C12546383   4.386   8.031   2.308 -0.2209 -0.2376 -0.1643
  230MOL   C12646384   4.463   8.124   2.397  0.2567 -0.4869 -0.2002
  230MOL   H12746385   4.154   7.869   2.474  0.2780  0.7030  3.0531
  230MOL   H12846386   4.231   8.011   2.526 -0.3010  0.3230  0.7872
  230MOL   H12946387   4.410   8.040   2.203 -1.8257 -0.1400 -0.5323
  230MOL   H13046388   4.419   8.223   2.408 -0.3700 -1.0231  2.5131
  230MOL   H13146389   4.458   8.088   2.500  0.5595  2.6401  0.9608
  230MOL   C13246390   4.602   8.132   2.353 -0.2684  0.0221  0.6577
  230MOL   C13346391   4.691   8.210   2.448  0.3774  0.5552 -0.5423
  230MOL  Cl13446392   4.778   8.103   2.560 -0.2362 -0.5168  0.2857
  230MOL   C13546393   4.695   8.343   2.467 -0.4794 -0.4339 -0.2086
  230MOL   C13646394   4.632   0.027   2.376 -0.2787 -0.5425  0.2939
  230MOL   H13746395   4.653   8.037   2.339 -3.7724 -1.6958 -1.2660
  230MOL   H13846396   4.591   8.177   2.254 -1.6277 -1.3681  0.1477
  230MOL   H13946397   4.760   8.385   2.543 -0.6316 -0.6511  0.0386
  230MOL   H14046398   4.593   8.406   2.284  0.6315 -0.9435  0.0825
  230MOL   H14146399   4.548   0.071   2.430 -0.3930  0.9527 -1.0768
  230MOL   C14246400   4.738   0.126   2.324  1.2859  0.1699 -0.2393
  230MOL   C14346401   4.675   0.239   2.245 -0.6077  0.0078 -0.7661
  230MOL  Cl14446402   4.661   0.197   2.075 -0.1076 -0.0687  0.4071
  230MOL   C14546403   4.639   0.357   2.294  0.4699  0.1398  0.1015
  230MOL   C14646404   4.576   0.478   2.221 -0.8233  0.0261 -0.5369
  230MOL   H14746405   4.809   0.077   2.258  0.2870 -0.8004 -0.6054
  230MOL   H14846406   4.784   0.166   2.415 -0.4753 -0.2732  0.8761
  230MOL   H14946407   4.666   0.366   2.398 -1.7979  0.0573  0.7148
  230MOL   H15046408   4.562   0.461   2.115 -0.1478  0.0564 -0.6360
  230MOL   H15146409   4.481   0.493   2.272 -0.1241  1.5035  0.3812
  230MOL   C15246410   4.657   0.604   2.242 -0.2489 -0.2429  0.0817
  230MOL   C15346411   4.725   0.655   2.121 -0.3434 -0.1999 -0.1396
  230MOL  Cl15446412   4.684   0.813   2.077  0.2873 -0.1598  0.3540
  230MOL   C15546413   4.818   0.588   2.050 -0.3809 -0.8380 -0.0732
  230MOL   C15646414   4.891   0.643   1.928 -0.1059  0.0164  0.3232
  230MOL   H15746415   4.588   0.677   2.287 -1.1463 -1.0990  0.1061
  230MOL   H15846416   4.726   0.577   2.321 -0.5633 -1.6883 -0.1371
  230MOL   H15946417   4.850   0.492   2.087 -0.4642  0.1514  2.6661
  230MOL   H16046418   4.828   0.710   1.870 -0.4194 -0.7312 -0.2137
  230MOL   H16146419   4.916   0.556   1.867  1.6274  0.7482 -0.0382
  230MOL   C16246420   5.018   0.714   1.975 -0.1264  0.0539  0.5431
  230MOL   C16346421   5.100   0.780   1.859  0.0627  1.0861  0.0046
  230MOL  Cl16446422   5.121   0.947   1.905 -0.3625 -0.2714 -0.2558
  230MOL   C16546423   5.150   0.719   1.755  0.1242  0.1372  0.4518
  230MOL   C16646424   5.234   0.761   1.635 -0.1622 -0.6120  0.1624
  230MOL   H16746425   4.995   0.789   2.050 -0.0983 -0.8383  1.4538
  230MOL   H16846426   5.080   0.638   2.023  0.3814  1.0096  1.4183
  230MOL   H16946427   5.120   0.616   1.758 -0.3226  0.3019  2.0174
  230MOL   H17046428   5.265   0.663   1.598 -2.2964 -0.3186 -2.5591
  230MOL   H17146429   5.166   0.810   1.565 -1.2437 -2.5130 -0.1670
  230MOL   C17246430   5.364   0.843   1.655 -0.6123 -0.1530  0.2874
  230MOL   C17346431   5.457   0.760   1.739 -0.4468  0.4104  0.7646
  230MOL  Cl17446432   5.549   0.646   1.641  0.5482 -0.1301  0.2805
  230MOL   C17546433   5.479   0.778   1.872  0.1773 -0.5801 -0.0659
  230MOL   C17646434   5.572   0.697   1.966  0.0180  0.3645  0.2864
  230MOL   H17746435   5.350   0.936   1.709  0.7550 -0.9872  2.1365
  230MOL   H17846436   5.419   0.869   1.565  1.2416 -2.4528  0.7020
  230MOL   H17946437   5.422   0.857   1.919  1.2997  0.2432 -0.0699
  230MOL   H18046438   5.664   0.754   1.982  0.3091 -0.3895  1.3941
  230MOL   H18146439   5.593   0.606   1.909 -1.2822  0.0474  0.2905
  230MOL   C18246440   5.514   0.654   2.106  0.9334  0.5263  0.1996
  230MOL   C18346441   5.612   0.560   2.184  0.0219 -1.1061  0.4285
  230MOL  Cl18446442   5.740   0.638   2.261 -0.5293 -0.2282  0.2714
  230MOL   C18546443   5.599   0.425   2.179 -0.3081 -0.1122 -0.8395
  230MOL   C18646444   5.686   0.322   2.245  0.1862 -0.3305  0.4591
  230MOL   H18746445   5.509   0.745   2.166  1.6691 -0.4780  1.8057
  230MOL   H18846446   5.415   0.610   2.092  1.0549  0.0886  0.7257
  230MOL   H18946447   5.529   0.369   2.118 -1.1641  1.1318 -1.0202
  230MOL   H19046448   5.759   0.370   2.311  2.1629  0.2880 -2.0973
  230MOL   H19146449   5.612   0.264   2.300 -1.8324  0.5040 -1.3167
  230MOL   C19246450   5.756   0.233   2.134 -0.4248  0.3701 -0.1769
  230MOL   C19346451   5.857   0.316   2.056 -0.3585 -0.0302 -0.6841
  230MOL  Cl19446452   5.793   0.358   1.904  0.0936  0.0024  0.0630
  230MOL   C19546453   5.979   0.349   2.105  0.5094 -0.7216  0.3851
  230MOL   C19646454   6.045   0.307   2.237  0.1383  0.1120  0.3449
  230MOL   H19746455   5.692   0.188   2.058  1.0572 -1.0027 -0.6544
  230MOL   H19846456   5.802   0.144   2.177 -2.2755 -1.8967 -2.6784
  230MOL   H19946457   6.042   0.419   2.052 -0.3704  0.9739  1.5269
  230MOL   H20046458   6.126   0.234   2.229 -1.0601 -1.1859 -0.1759
  230MOL   H20146459   5.973   0.276   2.313  0.4030 -2.0542 -0.2523
  230MOL   H20246460   6.091   0.401   2.266  0.0677  0.5491 -0.8953
  231MOL     C146461   5.465   8.004   1.984  0.2349 -0.6489 -0.3960
  231MOL     C246462   5.345   8.034   2.077 -0.0249 -0.6284 -0.5089
  231MOL    Cl346463   5.327   7.906   2.183 -0.0811  0.2250 -0.0818
  231MOL     C446464   5.262   8.141   2.079 -0.1171 -0.0590 -0.1348
  231MOL     C546465   5.256   8.255   1.976 -0.1918 -0.0899  0.1990
  231MOL     H646466   5.477   7.898   1.960  0.5955 -0.3476 -1.5865
  231MOL     H746467   5.558   8.047   2.022 -2.1043  2.6075  1.8309
  231MOL     H846468   5.194   8.146   2.162 -1.4431  1.5126 -1.2875
  231MOL     H946469   5.274   8.208   1.879  0.6411  0.6036  0.0095
  231MOL    H1046470   5.159   8.304   1.968 -0.1723 -0.0145  0.4186
  231MOL    H1146471   5.454   8.054   1.888 -1.3556 -2.7247 -1.3490
  231MOL    C1246472   5.346   8.375   2.009 -0.2184  0.2956 -0.2776
  231MOL    C1346473   5.494   8.343   2.031  0.5415  0.7860  0.0651
  231MOL   Cl1446474   5.575   8.339   1.876  0.1475 -0.1068 -0.2041
  231MOL    C1546475   5.544   8.315   2.149  0.4555  0.1640 -0.7402
  231MOL    C1646476   5.474   8.320   2.281 -0.1361  0.1940 -0.0391
  231MOL    H1746477   5.346   0.020   1.922 -2.5594 -1.7999 -1.9239
  231MOL    H1846478   5.307   0.008   2.095  3.2758 -1.5430  2.6183
  231MOL    H1946479   5.650   8.292   2.151 -0.0566 -2.3027  0.2689
  231MOL    H2046480   5.505   8.409   2.337  3.1298 -1.0157  0.1728
  231MOL    H2146481   5.365   8.329   2.275 -0.3264 -0.3015  2.0681
  231MOL    C2246482   5.518   8.193   2.368  0.7977 -0.2911 -0.0167
  231MOL    C2346483   5.452   8.201   2.509 -0.3788  0.2353  0.3954
  231MOL   Cl2446484   5.291   8.142   2.505 -0.1440 -0.0039 -0.4423
  231MOL    C2546485   5.510   8.231   2.623  0.4316 -0.5579  1.2655
  231MOL    C2646486   5.443   8.235   2.755 -0.1827 -0.4612 -0.2989
  231MOL    H2746487   5.487   8.102   2.316  0.7746 -0.4162  0.2130
  231MOL    H2846488   5.626   8.184   2.372  0.9415  1.5735  0.3934
  231MOL    H2946489   5.613   8.263   2.611 -0.1422  1.2789  1.1629
  231MOL    H3046490   5.357   8.167   2.755 -0.4078 -0.1864 -1.5212
  231MOL    H3146491   5.510   8.188   2.827  0.8432  0.7516 -0.4587
  231MOL    C3246492   5.417   8.371   2.799  0.1366 -0.0200 -0.1088
  231MOL    C3346493   5.536   0.048   2.788  0.1007 -0.2940 -0.2688
  231MOL   Cl3446494   5.678   8.419   2.861 -0.0623 -0.0929 -0.1091
  231MOL    C3546495   5.525   0.164   2.725 -0.2988 -0.0889 -0.1208
  231MOL    C3646496   5.639   0.261   2.714  0.4645  0.6649 -0.0276
  231MOL    H3746497   5.331   8.404   2.739  2.4567  2.9033 -1.9254
  231MOL    H3846498   5.377   8.374   2.900  2.4791  1.3547  0.7973
  231MOL    H3946499   5.432   0.185   2.676 -0.1674 -1.3263 -0.9215
  231MOL    H4046500   5.596   0.347   2.765 -2.2685 -0.6410 -0.0218
  231MOL    H4146501   5.725   0.246   2.779  0.3597  1.7656  0.3742
  231MOL    C4246502   5.681   0.286   2.567  1.0477  0.5671  0.2349
  231MOL    C4346503   5.808   0.368   2.577 -0.1221  0.3899  0.2024
  231MOL   Cl4446504   5.963   0.277   2.582  0.1098  0.2586  0.5701
  231MOL    C4546505   5.811   0.502   2.578  0.3096 -0.1317  0.4729
  231MOL    C4646506   5.693   0.596   2.572  0.2622  0.1739  0.3725
  231MOL    H4746507   5.710   0.197   2.511  0.2627 -1.5104  3.0586
  231MOL    H4846508   5.601   0.333   2.510 -0.1426  2.0408  3.0093
  231MOL    H4946509   5.908   0.547   2.593  0.6882 -0.7348 -0.1450
  231MOL    H5046510   5.615   0.576   2.499  0.2883 -0.8267  0.6043
  231MOL    H5146511   5.632   0.577   2.661  1.3573  0.8326  1.2752
  231MOL    C5246512   5.738   0.740   2.565 -0.8131 -0.6852 -0.0962
  231MOL    C5346513   5.620   0.841   2.553  0.3643  0.7340 -0.1069
  231MOL   Cl5446514   5.559   0.867   2.708 -0.0762 -0.1207 -0.2432
  231MOL    C5546515   5.594   0.905   2.441 -0.3266  0.6046  0.0312
  231MOL    C5646516   5.496   1.026   2.430 -0.7741 -0.5679  0.3104
  231MOL    H5746517   5.796   0.771   2.652 -0.4470  1.0993 -0.9505
  231MOL    H5846518   5.793   0.740   2.471 -0.0249 -2.3974  0.3510
  231MOL    H5946519   5.651   0.874   2.355 -1.3671 -0.3482 -0.3399
  231MOL    H6046520   5.441   1.027   2.524 -1.4976  0.2819 -0.1161
  231MOL    H6146521   5.547   1.123   2.428  0.2723 -1.1113  0.6648
  231MOL    C6246522   5.401   0.999   2.306  0.1954 -0.3918 -0.2168
  231MOL    C6346523   5.275   1.089   2.316 -0.0205 -0.3292  0.0001
  231MOL   Cl6446524   5.291   1.253   2.372 -0.2286  0.1369  0.2451
  231MOL    C6546525   5.156   1.034   2.300  0.5381 -0.4128 -0.4952
  231MOL    C6646526   5.027   1.107   2.322  0.7569 -0.8143 -0.0086
  231MOL    H6746527   5.442   0.991   2.205  0.1787 -0.8344 -0.1888
  231MOL    H6846528   5.357   0.900   2.316  1.0421 -0.8261 -0.6819
  231MOL    H6946529   5.141   0.928   2.284 -1.3160 -0.2006 -0.3296
  231MOL    H7046530   5.028   1.165   2.415  1.0988  0.0149 -0.5213
  231MOL    H7146531   4.947   1.041   2.354 -0.4166  0.9906  0.8469
  231MOL    C7246532   4.968   1.193   2.204 -0.1072  0.2034  0.1513
  231MOL    C7346533   4.830   1.245   2.243  0.9452 -0.4801 -0.1394
  231MOL   Cl7446534   4.715   1.162   2.151  0.5555  0.0829  0.1923
  231MOL    C7546535   4.806   1.345   2.332  0.0745  0.7007 -0.5283
  231MOL    C7646536   4.677   1.425   2.352 -0.7795  0.0405 -0.7505
  231MOL    H7746537   4.952   1.123   2.122  2.5090 -1.4932  1.0190
  231MOL    H7846538   5.024   1.277   2.162 -2.6616  0.8368 -2.1427
  231MOL    H7946539   4.889   1.377   2.393  0.4385 -4.0593  1.6592
  231MOL    H8046540   4.655   1.412   2.458 -2.1291 -0.8004 -1.1192
  231MOL    H8146541   4.596   1.384   2.291 -1.0460 -0.2238 -0.2211
  231MOL    C8246542   4.706   1.573   2.315  0.0766  0.3391 -0.3430
  231MOL    C8346543   4.586   1.655   2.340 -0.2786 -0.4188 -0.0489
  231MOL   Cl8446544   4.615   1.803   2.440  0.2041 -0.4205 -0.1096
  231MOL    C8546545   4.466   1.633   2.288  0.7087 -0.2755 -0.6516
  231MOL    C8646546   4.335   1.711   2.312  0.1936  0.2859 -0.2204
  231MOL    H8746547   4.732   1.580   2.209  2.2834  2.2289  0.2739
  231MOL    H8846548   4.803   1.603   2.354  0.8456 -2.4210 -0.0444
  231MOL    H8946549   4.448   1.549   2.222 -0.6339 -0.1542 -0.4407
  231MOL    H9046550   4.309   1.662   2.406  0.0560  0.3562 -0.2214
  231MOL    H9146551   4.355   1.813   2.344 -1.5077  0.8444 -0.8789
  231MOL    C9246552   4.236   1.694   2.199 -0.5558  0.1418  0.2989
  231MOL    C9346553   4.096   1.732   2.238 -0.2423  0.5043  1.1182
  231MOL   Cl9446554   4.088   1.901   2.281  0.6537 -0.4638  0.4573
  231MOL    C9546555   3.984   1.657   2.232  0.0885  0.1933  0.5965
  231MOL    C9646556   3.967   1.508   2.200  0.0077  0.3793 -0.1304
  231MOL    H9746557   4.229   1.592   2.161 -1.6393  1.5283 -3.4518
  231MOL    H9846558   4.268   1.757   2.116 -1.1682  1.3541  0.9688
  231MOL    H9946559   3.896   1.712   2.263  1.3111  1.8111  1.2456
  231MOL   H10046560   4.060   1.453   2.184 -1.1312 -1.1562 -1.5825
  231MOL   H10146561   3.907   1.453   2.273 -1.0662 -0.0755 -1.3424
  231MOL   C10246562   3.908   1.488   2.058  0.2276  0.1067  0.6487
  231MOL   C10346563   3.900   1.347   2.015  0.5886  0.2050  0.2719
  231MOL  Cl10446564   3.740   1.277   2.039  0.0972  0.1177 -0.3752
  231MOL   C10546565   3.993   1.278   1.944  0.0385 -0.3753  0.0438
  231MOL   C10646566   3.968   1.145   1.886  0.0461  0.4134  0.6193
  231MOL   H10746567   3.806   1.524   2.065 -0.0602  0.2180 -2.9417
  231MOL   H10846568   3.960   1.551   1.986  1.7482 -2.5590 -0.6660
  231MOL   H10946569   4.092   1.320   1.939  0.1080 -0.6027 -0.6927
  231MOL   H11046570   4.030   1.070   1.934 -0.9528 -0.4902  0.5104
  231MOL   H11146571   3.862   1.121   1.894  0.3385 -0.5848  1.6282
  231MOL   C11246572   3.990   1.128   1.731 -0.1035 -0.2378  0.1743
  231MOL   C11346573   3.910   1.218   1.631 -0.4909 -0.0803  0.4214
  231MOL  Cl11446574   3.767   1.142   1.568 -0.3769  0.2343  0.1835
  231MOL   C11546575   3.953   1.329   1.570  0.0278 -0.4206  0.1171
  231MOL   C11646576   4.086   1.394   1.592 -0.1698 -0.7329  0.0847
  231MOL   H11746577   4.097   1.139   1.713  0.0116 -1.7750 -0.1233
  231MOL   H11846578   3.982   1.022   1.709 -0.6599 -0.6783  2.3213
  231MOL   H11946579   3.885   1.374   1.500 -0.2440  0.1743  0.7713
  231MOL   H12046580   4.149   1.362   1.510  2.2868 -0.3737  1.7822
  231MOL   H12146581   4.142   1.355   1.677  0.7764  0.5172  0.0361
  231MOL   C12246582   4.079   1.549   1.612 -0.3272  0.8540 -0.6142
  231MOL   C12346583   4.212   1.620   1.630 -0.5166  0.3958  0.4267
  231MOL  Cl12446584   4.238   1.659   1.797 -0.1820  0.0099 -0.0635
  231MOL   C12546585   4.281   1.677   1.529  0.6987  0.1782  0.5964
  231MOL   C12646586   4.260   1.662   1.380  0.0184 -0.0122  0.1436
  231MOL   H12746587   4.031   1.591   1.524  0.1679  0.1493 -1.2305
  231MOL   H12846588   4.012   1.564   1.696  0.8624  4.8585 -0.2709
  231MOL   H12946589   4.363   1.742   1.556  1.3383 -0.0930 -0.6484
  231MOL   H13046590   4.165   1.613   1.361  0.5384 -1.2054  0.5660
  231MOL   H13146591   4.246   1.753   1.321 -0.2814 -0.5937 -0.6867
  231MOL   C13246592   4.379   1.588   1.328 -0.4034  0.6108  0.4680
  231MOL   C13346593   4.394   1.584   1.184  0.4088 -0.1519  0.5754
  231MOL  Cl13446594   4.507   1.699   1.129 -0.4140  0.1014  0.1160
  231MOL   C13546595   4.318   1.515   1.094  0.2046  0.2317  0.3078
  231MOL   C13646596   4.211   1.409   1.137 -0.4051 -0.5620  0.0688
  231MOL   H13746597   4.471   1.626   1.372  1.2952 -1.4624 -1.1617
  231MOL   H13846598   4.392   1.486   1.365  1.4199  0.4602 -0.5323
  231MOL   H13946599   4.337   1.533   0.989 -0.8774  1.5850  0.3256
  231MOL   H14046600   4.249   1.351   1.221 -1.0927  0.2545  0.9535
  231MOL   H14146601   4.132   1.470   1.180  0.0003  0.4178 -0.5469
  231MOL   C14246602   4.156   1.332   1.017  0.4847 -0.5613  0.8406
  231MOL   C14346603   4.009   1.298   1.032  0.5197 -0.3219  0.3226
  231MOL  Cl14446604   3.912   1.378   0.906  0.1802 -0.2899 -0.0950
  231MOL   C14546605   3.956   1.237   1.137 -0.4646  0.2983  0.1208
  231MOL   C14646606   3.803   1.226   1.168 -0.0037 -0.1917  0.2993
  231MOL   H14746607   4.209   1.237   1.016  0.1816 -0.7256 -0.4110
  231MOL   H14846608   4.185   1.360   0.916  0.0731  0.8769  1.1029
  231MOL   H14946609   4.024   1.197   1.212 -0.3575  2.1507  1.0225
  231MOL   H15046610   3.799   1.267   1.268  1.2172  1.7940 -0.4313
  231MOL   H15146611   3.747   1.298   1.107  0.7368  1.3604  1.4343
  231MOL   C15246612   3.758   1.081   1.149 -0.9551 -0.3290 -0.5260
  231MOL   C15346613   3.613   1.080   1.101 -0.1956  0.7254  0.0088
  231MOL  Cl15446614   3.520   0.987   1.209 -0.1633  0.2383 -0.1782
  231MOL   C15546615   3.561   1.142   0.992 -0.3208  1.0528  0.1371
  231MOL   C15646616   3.428   1.146   0.931 -0.0398 -0.0984 -0.5917
  231MOL   H15746617   3.824   1.024   1.083 -0.3446 -1.0743  0.7109
  231MOL   H15846618   3.765   1.019   1.238  0.1674 -0.6543 -0.8303
  231MOL   H15946619   3.634   1.194   0.933  1.5020  0.8077  2.1079
  231MOL   H16046620   3.381   1.237   0.966  1.8119  0.7096 -0.1534
  231MOL   H16146621   3.369   1.071   0.984 -0.1406  0.5423  0.2005
  231MOL   C16246622   3.428   1.137   0.779  0.0390 -0.2772  0.8404
  231MOL   C16346623   3.289   1.122   0.710  0.2916 -0.5502 -0.2276
  231MOL  Cl16446624   3.195   1.270   0.707 -0.5013 -0.3353  0.1021
  231MOL   C16546625   3.249   1.015   0.639  0.5338  0.3788  0.2348
  231MOL   C16646626   3.123   1.002   0.561  0.1853  0.3754 -0.4951
  231MOL   H16746627   3.493   1.215   0.742 -0.7946 -0.6491 -1.4870
  231MOL   H16846628   3.473   1.046   0.739 -0.3876 -0.0084 -0.2799
  231MOL   H16946629   3.303   0.922   0.641 -0.7562 -0.3906 -0.3477
  231MOL   H17046630   3.066   1.095   0.559  0.7522  0.6960 -1.7534
  231MOL   H17146631   3.149   0.967   0.462  0.1407 -0.6135 -0.1654
  231MOL   C17246632   3.044   0.880   0.611 -0.9755 -0.1250 -0.0675
  231MOL   C17346633   2.957   0.837   0.500 -0.3022  0.6095  0.4735
  231MOL  Cl17446634   2.787   0.858   0.537 -0.2432 -0.1393 -0.4278
  231MOL   C17546635   2.991   0.782   0.385 -0.1180  0.4724  0.2741
  231MOL   C17646636   2.905   0.738   0.267  0.6561  0.2874  0.0277
  231MOL   H17746637   2.982   0.909   0.696 -0.9437  2.0761 -0.7770
  231MOL   H17846638   3.103   0.790   0.629 -0.3859  0.4411  0.8339
  231MOL   H17946639   3.097   0.761   0.373 -0.1781  0.7347 -0.8180
  231MOL   H18046640   2.804   0.766   0.297  0.9665  0.2665  1.1021
  231MOL   H18146641   2.914   0.631   0.246  0.7546  0.4444 -0.7602
  231MOL   C18246642   2.938   0.812   0.139  0.7582 -0.8944  0.0978
  231MOL   C18346643   2.868   0.741   0.025  0.5893 -0.3667 -0.2397
  231MOL  Cl18446644   2.697   0.771   0.019 -0.0320 -0.2825 -0.3926
  231MOL   C18546645   2.925   0.662   8.356  0.3974  0.5634  0.3461
  231MOL   C18646646   2.855   0.581   8.245  0.3566  0.2418  0.6569
  231MOL   H18746647   2.910   0.916   0.155  2.2340 -0.5365  0.4685
  231MOL   H18846648   3.045   0.819   0.119  0.6555  0.5371  0.0296
  231MOL   H18946649   3.033   0.654   8.358  0.3772 -0.4556 -1.6509
  231MOL   H19046650   2.887   0.478   8.264  1.0915  0.6153  1.4756
  231MOL   H19146651   2.747   0.580   8.261  0.6667  0.5427  2.9132
  231MOL   C19246652   2.894   0.610   8.105  0.6338  0.3335 -0.0226
  231MOL   C19346653   2.824   0.525   7.996  0.4896 -0.1522  0.2238
  231MOL  Cl19446654   2.923   0.387   7.973 -0.4499 -0.0695 -0.0263
  231MOL   C19546655   2.712   0.539   7.931 -0.5389  0.2400  0.1556
  231MOL   C19646656   2.616   0.656   7.949 -0.4235 -0.3012 -0.3990
  231MOL   H19746657   3.002   0.593   8.098  1.0022  1.2895  2.6521
  231MOL   H19846658   2.879   0.715   8.081 -0.1903  0.1941 -0.1097
  231MOL   H19946659   2.691   0.463   7.858 -0.3078  1.1881 -0.9085
  231MOL   H20046660   2.509   0.632   7.951 -0.4613 -0.1349  3.1278
  231MOL   H20146661   2.628   0.741   7.882 -1.8042  1.4505  1.5200
  231MOL   H20246662   2.629   0.691   8.051 -0.5731  1.7020 -1.0482
  232MOL     C146663   6.569   8.029   2.461  0.1841  0.9468 -0.3995
  232MOL     C246664   6.661   7.920   2.403  0.3367  0.5534 -0.4107
  232MOL    Cl346665   6.726   7.815   2.521 -0.4476  0.1127 -0.1466
  232MOL     C446666   6.686   7.886   2.275 -0.6794 -0.4377 -0.4102
  232MOL     C546667   6.629   7.962   2.161  0.6213 -0.0241  0.0986
  232MOL     H646668   6.472   8.035   2.410 -0.4088 -0.9247  0.4336
  232MOL     H746669   6.607   8.130   2.468  0.7668  0.8334 -1.8448
  232MOL     H846670   6.757   7.809   2.248 -2.4744 -3.7187  3.7227
  232MOL     H946671   6.521   7.947   2.165  0.7802 -1.1940  0.2222
  232MOL    H1046672   6.660   8.065   2.179  0.9150  0.0470 -0.7989
  232MOL    H1146673   6.550   8.011   2.567  2.1071  0.0361 -0.1846
  232MOL    C1246674   6.675   7.910   2.028 -0.6687  0.6801  0.6417
  232MOL    C1346675   6.810   7.968   1.983  0.8505 -0.5694 -0.7765
  232MOL   Cl1446676   6.796   8.131   1.921  0.1429 -0.2049 -0.0800
  232MOL    C1546677   6.929   7.911   1.992  0.0637  0.4233 -0.9255
  232MOL    C1646678   6.962   7.767   2.034 -0.7160 -0.0479 -0.7806
  232MOL    H1746679   6.688   7.802   2.020  0.2751  0.6860  1.8192
  232MOL    H1846680   6.598   7.934   1.955 -0.8663  1.5509  1.1224
  232MOL    H1946681   7.022   7.964   1.981 -0.3502  1.8988  2.0999
  232MOL    H2046682   6.870   7.709   2.022 -0.7428 -0.0909 -0.3455
  232MOL    H2146683   7.039   7.728   1.967  0.0291 -2.4601  1.4174
  232MOL    C2246684   7.034   7.754   2.174  0.2555  0.2358 -0.0020
  232MOL    C2346685   7.060   7.610   2.226 -0.4848 -0.2541  0.2720
  232MOL   Cl2446686   7.111   7.615   2.393 -0.1561  0.3522  0.2964
  232MOL    C2546687   7.052   7.489   2.162  0.5461 -0.1107 -0.1815
  232MOL    C2646688   7.093   7.356   2.219 -0.4295  0.3669  0.4229
  232MOL    H2746689   7.135   7.793   2.161  0.9617 -1.9936 -1.6015
  232MOL    H2846690   6.988   7.818   2.250 -1.1229 -1.9032  1.0206
  232MOL    H2946691   7.019   7.494   2.059 -0.6712 -0.6623  0.1800
  232MOL    H3046692   7.191   7.322   2.185 -0.6940  0.8349 -0.8215
  232MOL    H3146693   7.101   7.354   2.328  2.7842 -2.8428  0.2277
  232MOL    C3246694   6.993   7.247   2.169  0.2740 -0.7399 -0.4787
  232MOL    C3346695   7.019   7.103   2.197  0.3688  0.5116  0.1717
  232MOL   Cl3446696   6.936   7.006   2.086 -0.0339 -0.0542 -0.1999
  232MOL    C3546697   7.104   7.058   2.287 -0.6207 -0.1576  0.3026
  232MOL    C3646698   7.134   6.915   2.319  0.5325  0.4810 -0.1940
  232MOL    H3746699   6.890   7.258   2.205 -0.1029  2.2200 -2.3373
  232MOL    H3846700   6.991   7.253   2.060  0.3548 -3.3680 -0.6650
  232MOL    H3946701   7.154   7.127   2.353  0.7930 -1.4376  0.6131
  232MOL    H4046702   7.161   6.905   2.424 -1.0702  0.9460  0.2824
  232MOL    H4146703   7.044   6.855   2.299 -1.2888  2.1632  2.6497
  232MOL    C4246704   7.249   6.856   2.239  0.3670 -0.2690 -0.2306
  232MOL    C4346705   7.250   6.705   2.247 -0.1636  0.0889  0.4384
  232MOL   Cl4446706   7.318   6.652   2.396  0.5929 -0.0100 -0.2041
  232MOL    C4546707   7.203   6.620   2.153  0.1233 -0.6054 -0.0425
  232MOL    C4646708   7.138   6.660   2.018 -0.4915 -0.1564 -0.0552
  232MOL    H4746709   7.230   6.885   2.135 -1.9485 -0.8035  0.0306
  232MOL    H4846710   7.346   6.890   2.275 -0.0340 -0.4336  1.0264
  232MOL    H4946711   7.212   6.513   2.160 -2.1424 -0.7831  0.4412
  232MOL    H5046712   7.067   6.740   2.039  0.3390  0.3463  0.8964
  232MOL    H5146713   7.214   6.681   1.942 -2.3463  1.3154 -1.5544
  232MOL    C5246714   7.048   6.547   1.967 -0.8431 -0.3987 -0.6815
  232MOL    C5346715   6.980   6.591   1.842  0.3113  0.3129 -0.5081
  232MOL   Cl5446716   7.035   6.509   1.699  0.2753  0.1020  0.6891
  232MOL    C5546717   6.875   6.679   1.851  0.0024 -0.2592  0.0161
  232MOL    C5646718   6.812   6.731   1.723 -0.1960 -0.0582 -0.4074
  232MOL    H5746719   7.101   6.457   1.936 -1.9289 -0.8387 -1.2443
  232MOL    H5846720   6.972   6.513   2.037 -0.0075  1.6706  1.3135
  232MOL    H5946721   6.832   6.707   1.946 -1.1334 -1.9908  0.0314
  232MOL    H6046722   6.863   6.687   1.637 -3.4593 -1.2318 -1.8394
  232MOL    H6146723   6.707   6.705   1.735 -0.9423  3.4542  1.4386
  232MOL    C6246724   6.823   6.886   1.715  0.0731 -0.3344  0.4794
  232MOL    C6346725   6.764   6.936   1.584 -0.5887 -0.3789  0.3169
  232MOL   Cl6446726   6.865   7.041   1.488 -0.0617 -0.1161  0.3285
  232MOL    C6546727   6.634   6.912   1.556 -0.3416 -0.5659 -0.0897
  232MOL    C6646728   6.565   6.970   1.432 -0.3295  0.1736  0.2772
  232MOL    H6746729   6.777   6.933   1.802 -1.9865 -2.1170  0.3987
  232MOL    H6846730   6.927   6.919   1.708  0.0409 -0.4417 -0.6236
  232MOL    H6946731   6.578   6.854   1.628 -1.2945  0.4479 -0.0042
  232MOL    H7046732   6.631   7.040   1.382 -0.4783  0.3244  0.2938
  232MOL    H7146733   6.482   7.029   1.471  2.1530  3.8760  0.1652
  232MOL    C7246734   6.500   6.863   1.344  0.0788 -0.2827 -0.5529
  232MOL    C7346735   6.406   6.928   1.235  0.5102  0.2023  0.4478
  232MOL   Cl7446736   6.482   6.918   1.080  0.0823 -0.0116 -0.3199
  232MOL    C7546737   6.283   6.969   1.263 -0.1431 -0.6809 -0.0442
  232MOL    C7646738   6.182   7.013   1.162 -0.0174  0.0021 -0.3153
  232MOL    H7746739   6.458   6.785   1.407 -0.3206 -0.8454 -1.5176
  232MOL    H7846740   6.580   6.803   1.301  1.4720 -0.0241  1.5985
  232MOL    H7946741   6.246   6.968   1.365  1.0965  1.2784  0.4342
  232MOL    H8046742   6.102   6.939   1.158  0.8714 -0.8944 -1.8331
  232MOL    H8146743   6.223   7.011   1.061 -0.1929  3.5091 -0.5323
  232MOL    C8246744   6.116   7.147   1.197  0.3291  0.0762  0.0894
  232MOL    C8346745   6.038   7.149   1.327  0.6781  0.1072 -0.7538
  232MOL   Cl8446746   6.140   7.224   1.443  0.3328  0.0311 -0.3620
  232MOL    C8546747   5.918   7.097   1.355 -0.0020 -0.1001 -0.4942
  232MOL    C8646748   5.854   7.095   1.495  0.2236  0.2666  0.5584
  232MOL    H8746749   6.061   7.177   1.108  1.8732 -0.6230 -1.1290
  232MOL    H8846750   6.189   7.228   1.196 -0.2400  0.6076 -1.7552
  232MOL    H8946751   5.867   7.050   1.272 -1.6758  0.8088  0.0006
  232MOL    H9046752   5.889   7.180   1.554 -2.4330  1.4806  0.4739
  232MOL    H9146753   5.749   7.120   1.484  0.9191  2.1890 -2.3732
  232MOL    C9246754   5.866   6.963   1.570 -0.0466 -0.5078  0.6305
  232MOL    C9346755   6.003   6.933   1.619 -0.1290  0.3587  1.0196
  232MOL   Cl9446756   6.078   6.808   1.520 -0.1761  0.1478 -0.4610
  232MOL    C9546757   6.071   6.996   1.722  0.1918  0.4260  0.1291
  232MOL    C9646758   6.027   7.119   1.809  0.1382  0.7885  0.2398
  232MOL    H9746759   5.822   6.877   1.519  1.1545 -0.5652 -0.3095
  232MOL    H9846760   5.804   6.967   1.660 -1.6008 -0.6532 -0.4041
  232MOL    H9946761   6.175   6.974   1.740  1.3769  3.4769 -2.5159
  232MOL   H10046762   5.933   7.165   1.778 -0.6281 -0.5570  0.4937
  232MOL   H10146763   6.012   7.098   1.915  0.1948 -2.4134 -0.3429
  232MOL   C10246764   6.136   7.227   1.801  0.0558  0.7199  0.4691
  232MOL   C10346765   6.101   7.340   1.902 -0.5562 -0.0160 -0.8517
  232MOL  Cl10446766   6.179   7.324   2.055 -0.3127  0.0250 -0.7465
  232MOL   C10546767   6.010   7.442   1.895  1.0956  0.3415  0.0578
  232MOL   C10646768   5.978   7.541   2.005  0.0985 -0.4978 -0.1791
  232MOL   H10746769   6.239   7.194   1.814 -0.5379 -1.5837 -0.3764
  232MOL   H10846770   6.143   7.269   1.701  2.1069  1.0544  0.7346
  232MOL   H10946771   5.956   7.451   1.802  1.0708 -2.7438 -0.2683
  232MOL   H11046772   6.067   7.575   2.058 -1.0612  0.9884  0.8707
  232MOL   H11146773   5.951   7.628   1.945 -0.2921 -1.3806 -1.2841
  232MOL   C11246774   5.870   7.497   2.102  0.0495 -0.5861  0.3532
  232MOL   C11346775   5.836   7.607   2.193 -0.3926  0.5054  0.1042
  232MOL  Cl11446776   5.689   7.689   2.147 -0.1485  0.0889 -0.0988
  232MOL   C11546777   5.913   7.656   2.293 -0.0850  0.1105  0.2910
  232MOL   C11646778   6.050   7.611   2.354  0.0693 -0.1152  0.0872
  232MOL   H11746779   5.779   7.469   2.048  0.0264 -0.4678  0.3294
  232MOL   H11846780   5.905   7.414   2.163 -1.4503 -1.8272 -0.4343
  232MOL   H11946781   5.865   7.740   2.341  0.1819  0.3338  0.1682
  232MOL   H12046782   6.116   7.547   2.296  1.0808  1.2736 -0.3177
  232MOL   H12146783   6.022   7.559   2.446 -1.0077 -0.1193 -0.2303
  232MOL   C12246784   6.135   7.725   2.396  0.2049  0.0955 -0.0415
  232MOL   C12346785   6.243   7.680   2.503  0.2855  0.1324  0.7686
  232MOL  Cl12446786   6.193   7.710   2.668 -0.0773 -0.3477 -0.7314
  232MOL   C12546787   6.362   7.635   2.472  0.1011 -0.4938  0.6395
  232MOL   C12646788   6.418   7.620   2.334  0.2975 -0.0123 -0.1972
  232MOL   H12746789   6.175   7.772   2.306 -0.2809 -0.6684 -0.6577
  232MOL   H12846790   6.064   7.798   2.433 -0.4890 -0.2087 -0.7466
  232MOL   H12946791   6.427   7.605   2.554  2.0786  1.1123 -0.3037
  232MOL   H13046792   6.353   7.667   2.261 -0.7707  1.2275  1.5044
  232MOL   H13146793   6.496   7.697   2.337 -1.2535  1.5805  0.7299
  232MOL   C13246794   6.460   7.489   2.284 -0.7953 -0.0905 -0.2247
  232MOL   C13346795   6.558   7.504   2.167 -0.8022 -0.0584  0.0987
  232MOL  Cl13446796   6.729   7.476   2.209  0.4058  0.1385 -0.1314
  232MOL   C13546797   6.526   7.534   2.043  0.4104  0.4480  0.1068
  232MOL   C13646798   6.389   7.565   1.982 -0.2717  0.0090 -0.5348
  232MOL   H13746799   6.527   7.455   2.363  1.7216  1.0481 -1.8268
  232MOL   H13846800   6.387   7.410   2.267  1.1794 -1.6048 -1.8584
  232MOL   H13946801   6.610   7.540   1.975  0.2306  0.6606 -0.0916
  232MOL   H14046802   6.358   7.484   1.916 -1.2747 -0.0506 -0.0055
  232MOL   H14146803   6.310   7.570   2.058 -0.6200 -2.6652 -0.6639
  232MOL   C14246804   6.399   7.694   1.910 -0.0228 -0.3323  0.1885
  232MOL   C14346805   6.274   7.733   1.829 -0.2886  0.2603 -0.2763
  232MOL  Cl14446806   6.198   7.879   1.890 -0.1922  0.4447 -0.1485
  232MOL   C14546807   6.224   7.656   1.734  0.4537  0.0769  0.0689
  232MOL   C14646808   6.110   7.694   1.643  0.2003 -0.0100  0.2822
  232MOL   H14746809   6.473   7.675   1.833 -0.1772  1.3509 -0.3872
  232MOL   H14846810   6.436   7.773   1.975  1.2071 -0.7762  0.0480
  232MOL   H14946811   6.275   7.563   1.716  0.1378 -0.1545  0.3681
  232MOL   H15046812   6.020   7.643   1.676 -0.5216  0.9740 -0.1324
  232MOL   H15146813   6.094   7.802   1.637 -1.8216 -0.1760  2.2608
  232MOL   C15246814   6.139   7.632   1.505  0.4144 -0.0804 -0.3843
  232MOL   C15346815   6.033   7.673   1.403  0.0381  0.1238  0.3830
  232MOL  Cl15446816   5.880   7.610   1.444 -0.2456  0.1157  0.0477
  232MOL   C15546817   6.052   7.766   1.303 -0.1866 -0.4287 -0.4420
  232MOL   C15646818   5.942   7.823   1.212  0.1576 -0.4375 -0.8780
  232MOL   H15746819   6.242   7.644   1.471  1.2242 -0.2436  1.9219
  232MOL   H15846820   6.130   7.524   1.516  0.6994 -0.2529 -1.7332
  232MOL   H15946821   6.146   7.817   1.292 -0.8469  1.1376  0.8481
  232MOL   H16046822   5.944   7.932   1.214  1.1782 -0.4552 -1.0634
  232MOL   H16146823   5.843   7.789   1.242  0.3428 -0.4284 -0.2422
  232MOL   C16246824   5.961   7.792   1.058  0.3346 -0.2133 -0.0288
  232MOL   C16346825   5.869   7.864   0.962 -1.2038 -0.2610 -0.5318
  232MOL  Cl16446826   5.901   7.814   0.801  0.0815  0.5007  0.3259
  232MOL   C16546827   5.789   7.970   0.997  0.0735  0.2420  0.2196
  232MOL   C16646828   5.706   8.057   0.906  0.2530 -0.7759  1.0178
  232MOL   H16746829   6.065   7.821   1.041  0.1962  0.0288 -0.4892
  232MOL   H16846830   5.949   7.687   1.034 -0.0449 -0.5009  1.3988
  232MOL   H16946831   5.779   8.001   1.100 -0.2590  0.1797  0.2076
  232MOL   H17046832   5.735   8.160   0.929  0.4894 -0.5375 -0.3406
  232MOL   H17146833   5.739   8.036   0.805 -0.8852  2.2033 -0.0460
  232MOL   C17246834   5.551   8.038   0.926  0.9208  0.4269  0.3391
  232MOL   C17346835   5.466   8.114   0.829  0.7683 -0.2370  0.0695
  232MOL  Cl17446836   5.341   8.012   0.770 -0.6263  0.0538  0.0735
  232MOL   C17546837   5.487   8.242   0.787  0.2072 -0.1887 -0.3386
  232MOL   C17646838   5.402   8.323   0.678 -0.4008 -0.2941 -0.3241
  232MOL   H17746839   5.521   8.055   1.029 -1.2755  1.8788 -0.5177
  232MOL   H17846840   5.522   7.933   0.916  2.9481 -0.1401  0.1020
  232MOL   H17946841   5.576   8.293   0.822 -1.6606  2.6817  0.3399
  232MOL   H18046842   5.300   8.301   0.708 -0.5626  0.7390 -0.1163
  232MOL   H18146843   5.410   8.268   0.584  2.4275  1.0591 -0.9267
  232MOL   C18246844   5.435   0.048   0.652 -0.1931 -0.2482 -0.3444
  232MOL   C18346845   5.335   0.110   0.554  0.5391 -0.1267 -0.1826
  232MOL  Cl18446846   5.420   0.150   0.407 -0.0043  0.1794  0.2237
  232MOL   C18546847   5.203   0.108   0.570  0.2717  0.0749  0.5430
  232MOL   C18646848   5.096   0.157   0.476 -0.0822 -0.2242 -0.1464
  232MOL   H18746849   5.439   0.100   0.748  0.4299 -1.1233  0.1150
  232MOL   H18846850   5.534   0.049   0.606  1.0251 -1.4043  2.0990
  232MOL   H18946851   5.161   0.053   0.654 -0.4747 -1.7840 -1.0171
  232MOL   H19046852   5.045   0.242   0.520  0.5460  0.8097 -1.4096
  232MOL   H19146853   5.139   0.194   0.384 -1.2580  0.0357 -0.5957
  232MOL   C19246854   4.992   0.045   0.452 -0.6919 -0.5317 -0.0790
  232MOL   C19346855   4.867   0.090   0.378  0.0718  0.3750 -0.2489
  232MOL  Cl19446856   4.736   0.139   0.476  0.2680 -0.1980 -0.4545
  232MOL   C19546857   4.844   0.092   0.245  0.1099 -0.7349 -0.6160
  232MOL   C19646858   4.941   0.057   0.132  0.4208 -0.7073  0.1167
  232MOL   H19746859   4.951   0.012   0.548 -2.3062  2.4522  0.3076
  232MOL   H19846860   5.038   8.374   0.416  1.8903  1.0805 -0.9935
  232MOL   H19946861   4.751   0.125   0.200 -0.2243  1.5945  1.6663
  232MOL   H20046862   5.037   0.059   0.184  0.4186  2.3623  0.0924
  232MOL   H20146863   4.935   0.141   0.063  0.0967 -0.8016  0.0301
  232MOL   H20246864   4.932   8.381   0.084  2.4623 -0.3598 -1.0027
  233MOL     C146865   1.200   4.162   4.376  0.5751  0.3996  0.2111
  233MOL     C246866   1.262   4.294   4.420  0.2113  1.0527  0.1452
  233MOL    Cl346867   1.250   4.402   4.287 -0.0984 -0.2466 -0.3595
  233MOL     C446868   1.332   4.316   4.535 -0.6320  0.1601 -0.1140
  233MOL     C546869   1.332   4.228   4.655  0.5230  0.4687  0.3552
  233MOL     H646870   1.104   4.185   4.328 -1.2124 -2.3705  2.2970
  233MOL     H746871   1.169   4.111   4.468 -0.5217  1.2045  0.3106
  233MOL     H846872   1.393   4.404   4.547  0.9266 -1.0377  0.9322
  233MOL     H946873   1.283   4.133   4.632  0.5591  0.8362 -1.3087
  233MOL    H1046874   1.436   4.213   4.683 -0.5328 -0.3803  4.1213
  233MOL    H1146875   1.273   4.107   4.318  1.4091  1.4884  0.2163
  233MOL    C1246876   1.275   4.294   4.780  0.8424  0.4521  0.4357
  233MOL    C1346877   1.251   4.210   4.902  0.1812  0.6447 -0.2939
  233MOL   Cl1446878   1.369   4.251   5.025  0.2247  0.2038  0.1379
  233MOL    C1546879   1.152   4.123   4.908 -0.3958 -0.0355 -0.0868
  233MOL    C1646880   1.050   4.095   4.806 -0.0725  0.3090  0.4121
  233MOL    H1746881   1.346   4.373   4.805 -0.4916  1.4149  1.2951
  233MOL    H1846882   1.180   4.344   4.757  1.2174  1.5378  1.2205
  233MOL    H1946883   1.130   4.065   4.997 -0.1049  0.0894  0.0676
  233MOL    H2046884   0.952   4.107   4.851 -0.6350 -1.5325 -0.3047
  233MOL    H2146885   1.058   4.154   4.714 -2.7708  1.6376  0.9860
  233MOL    C2246886   1.051   3.941   4.780 -0.4099  0.1624  0.3685
  233MOL    C2346887   0.960   3.913   4.669 -0.2910 -0.0484  0.2614
  233MOL   Cl2446888   0.802   3.872   4.726  0.1816  0.1101  0.4001
  233MOL    C2546889   0.991   3.900   4.537  0.3898  0.2019  0.5857
  233MOL    C2646890   0.910   3.845   4.424 -0.1585  0.0715 -0.6628
  233MOL    H2746891   1.152   3.905   4.760 -0.6156  0.1816 -0.7388
  233MOL    H2846892   1.011   3.880   4.861 -0.8593  2.3125  1.8081
  233MOL    H2946893   1.092   3.930   4.512  0.4015 -1.8415 -2.0752
  233MOL    H3046894   0.821   3.801   4.468  1.8461 -0.5729  2.9623
  233MOL    H3146895   0.877   3.923   4.355  1.0317 -0.5769 -1.9960
  233MOL    C3246896   0.980   3.731   4.347 -0.2866 -0.9450  0.2463
  233MOL    C3346897   1.048   3.777   4.220 -0.3782 -0.1327  0.6074
  233MOL   Cl3446898   0.974   3.692   4.086  0.1948 -0.3807  0.1993
  233MOL    C3546899   1.147   3.862   4.205  0.4985  0.8581  0.3740
  233MOL    C3646900   1.220   3.900   4.078  0.1361 -0.1816 -0.0777
  233MOL    H3746901   1.053   3.673   4.403  0.5756 -0.0048  0.1083
  233MOL    H3846902   0.903   3.656   4.329 -1.0114  0.1456 -1.3536
  233MOL    H3946903   1.170   3.913   4.297  3.0835 -0.4155  0.4676
  233MOL    H4046904   1.318   3.934   4.110 -0.2519  0.6693  0.1993
  233MOL    H4146905   1.229   3.805   4.024  3.4355  1.2630 -2.2328
  233MOL    C4246906   1.155   4.015   4.002  0.6328 -1.0185 -0.8290
  233MOL    C4346907   1.229   4.067   3.878  0.4614 -0.1732 -0.2264
  233MOL   Cl4446908   1.379   3.979   3.846  0.0145 -0.2483  0.0140
  233MOL    C4546909   1.203   4.170   3.800 -0.6373  0.5679 -0.4142
  233MOL    C4646910   1.089   4.267   3.821 -0.7920  0.0179  0.0249
  233MOL    H4746911   1.055   3.986   3.972 -0.2327 -0.8288  1.6929
  233MOL    H4846912   1.146   4.093   4.078 -1.6788  0.0734 -2.1819
  233MOL    H4946913   1.272   4.199   3.722  1.9163 -2.3461  0.6625
  233MOL    H5046914   0.998   4.209   3.809 -0.3261 -0.4303 -1.5338
  233MOL    H5146915   1.099   4.299   3.925 -0.9514  1.5548 -0.4220
  233MOL    C5246916   1.094   4.378   3.713  0.0534 -0.3116 -0.1645
  233MOL    C5346917   0.988   4.481   3.746  0.8882  0.1760 -0.4715
  233MOL   Cl5446918   0.972   4.599   3.623  0.0634  0.4442 -0.3914
  233MOL    C5546919   0.910   4.490   3.858 -0.0183  0.7223 -0.0841
  233MOL    C5646920   0.813   4.601   3.893  0.2080  0.0182 -0.3301
  233MOL    H5746921   1.187   4.434   3.713  0.4218 -0.9121  1.8013
  233MOL    H5846922   1.079   4.331   3.615  3.9045 -2.9704  0.4300
  233MOL    H5946923   0.914   4.411   3.931 -2.9744  1.9438  1.4392
  233MOL    H6046924   0.854   4.700   3.877 -0.5564  0.9440  2.9442
  233MOL    H6146925   0.716   4.606   3.843  0.5500  0.5836 -0.9385
  233MOL    C6246926   0.795   4.615   4.039 -0.5754  0.0418  0.1607
  233MOL    C6346927   0.711   4.732   4.076  0.2452 -0.0331 -0.5244
  233MOL   Cl6446928   0.552   4.683   4.129  0.0654 -0.1450 -0.1152
  233MOL    C6546929   0.750   4.860   4.077 -0.2360 -0.3865 -0.0164
  233MOL    C6646930   0.663   4.975   4.116 -0.0352  0.4077 -0.9296
  233MOL    H6746931   0.736   4.528   4.066  1.7018 -0.9363  2.1555
  233MOL    H6846932   0.892   4.608   4.088 -0.8661 -1.8627  0.5165
  233MOL    H6946933   0.851   4.877   4.041  0.8908 -0.7627  2.8134
  233MOL    H7046934   0.696   5.010   4.214 -0.5242  0.3893 -0.7558
  233MOL    H7146935   0.561   4.946   4.138  0.7180 -1.2625  0.4371
  233MOL    C7246936   0.662   5.090   4.020 -0.0228 -0.1404  0.1026
  233MOL    C7346937   0.609   5.228   4.079 -0.0220 -0.3015 -0.0139
  233MOL   Cl7446938   0.719   5.283   4.201  0.2139 -0.0566  0.4702
  233MOL    C7546939   0.504   5.300   4.037  0.0185  0.0708 -0.2042
  233MOL    C7646940   0.457   5.433   4.096  0.4824 -0.2978  0.5386
  233MOL    H7746941   0.605   5.062   3.932  0.7354 -1.0764 -0.1011
  233MOL    H7846942   0.758   5.121   3.980  0.1889 -1.2955 -0.3159
  233MOL    H7946943   0.440   5.265   3.957 -1.1299  3.2712 -0.7227
  233MOL    H8046944   0.532   5.478   4.161  0.8201  1.6478 -1.1501
  233MOL    H8146945   0.379   5.403   4.166  0.0272 -3.9805 -1.4101
  233MOL    C8246946   0.387   5.533   3.995 -0.4323 -0.1058  0.1132
  233MOL    C8346947   0.459   5.554   3.862 -0.1870  0.2774 -0.0694
  233MOL   Cl8446948   0.596   5.660   3.886  0.2611 -0.6287 -0.2453
  233MOL    C8546949   0.428   5.487   3.745 -0.4293 -0.3455  0.1515
  233MOL    C8646950   0.508   5.494   3.621 -0.3423 -0.2262 -0.5648
  233MOL    H8746951   0.367   5.625   4.049 -1.8814 -1.6677  2.3117
  233MOL    H8846952   0.283   5.513   3.968 -0.8424  1.3549  0.5442
  233MOL    H8946953   0.342   5.421   3.735 -0.9675  0.6344 -1.8753
  233MOL    H9046954   0.449   5.560   3.557 -0.6528  0.7768  0.7336
  233MOL    H9146955   0.610   5.531   3.625 -0.2752 -0.4893  0.3145
  233MOL    C9246956   0.514   5.358   3.552  1.0856  0.0080  0.1850
  233MOL    C9346957   0.559   5.237   3.640 -0.1252  0.0255  0.1185
  233MOL   Cl9446958   0.430   5.126   3.679 -0.1397  0.3038  0.2510
  233MOL    C9546959   0.685   5.210   3.678 -0.4942  0.5750 -0.2664
  233MOL    C9646960   0.810   5.294   3.650  0.2360 -0.1382  0.3595
  233MOL    H9746961   0.570   5.354   3.459 -0.3329  2.2667 -0.8047
  233MOL    H9846962   0.413   5.331   3.521  1.0770  0.3774 -0.1149
  233MOL    H9946963   0.691   5.118   3.735 -1.8060  0.6398 -0.0060
  233MOL   H10046964   0.884   5.235   3.595  0.6725  0.6813  0.0496
  233MOL   H10146965   0.783   5.368   3.575  0.3925  1.8665  2.2423
  233MOL   C10246966   0.873   5.362   3.774  0.9864 -0.1160  0.4949
  233MOL   C10346967   0.996   5.443   3.742  0.0554 -0.3915  0.1018
  233MOL  Cl10446968   1.124   5.334   3.708 -0.5404 -0.1493 -0.0444
  233MOL   C10546969   1.010   5.579   3.740  0.8467 -0.1543  0.2388
  233MOL   C10646970   1.130   5.653   3.709 -1.3360  0.5049  0.2898
  233MOL   H10746971   0.803   5.436   3.812 -0.9003 -1.3419 -0.5472
  233MOL   H10846972   0.899   5.283   3.845  2.1810  0.1868  0.4109
  233MOL   H10946973   0.934   5.651   3.766  1.1628  0.5906 -0.8390
  233MOL   H11046974   1.148   5.725   3.789  0.0326 -0.9646  1.3320
  233MOL   H11146975   1.220   5.592   3.716 -1.5863  0.0976 -0.0400
  233MOL   C11246976   1.123   5.716   3.566 -0.2994 -0.1786  1.2640
  233MOL   C11346977   1.100   5.621   3.449  0.3348  0.2152 -0.5084
  233MOL  Cl11446978   1.236   5.520   3.422  0.5490  0.3173 -0.8480
  233MOL   C11546979   0.990   5.605   3.373  0.4219  0.3680  0.3615
  233MOL   C11646980   0.855   5.683   3.384 -0.2609 -0.6866  0.0867
  233MOL   H11746981   1.042   5.787   3.549  0.0669 -0.2321 -0.8469
  233MOL   H11846982   1.206   5.780   3.537  0.2557 -1.7264 -0.6746
  233MOL   H11946983   0.992   5.528   3.298  1.0256  0.1879  0.5529
  233MOL   H12046984   0.877   5.777   3.435 -1.6418 -0.3825  0.1487
  233MOL   H12146985   0.788   5.639   3.457  1.8679  0.1607  2.6203
  233MOL   C12246986   0.769   5.703   3.252 -0.7729  0.4074  0.2946
  233MOL   C12346987   0.632   5.755   3.281 -0.4606 -0.1449 -0.1423
  233MOL  Cl12446988   0.621   5.922   3.329 -0.3575  0.1185 -0.5475
  233MOL   C12546989   0.519   5.684   3.256  0.5405  1.2215 -0.2335
  233MOL   C12646990   0.514   5.539   3.225 -0.1407  0.6118  0.1451
  233MOL   H12746991   0.820   5.779   3.192 -2.6588  1.2331 -0.2866
  233MOL   H12846992   0.753   5.614   3.192 -1.8956  1.2983 -0.7652
  233MOL   H12946993   0.422   5.730   3.265 -0.7567 -1.0513 -2.2051
  233MOL   H13046994   0.604   5.489   3.261 -0.7089  0.3821  1.3042
  233MOL   H13146995   0.429   5.491   3.274 -1.7383  3.3126  0.1272
  233MOL   C13246996   0.503   5.522   3.070  0.0784 -0.1010 -0.0320
  233MOL   C13346997   0.464   5.387   3.009  0.3953 -0.0747 -0.8271
  233MOL  Cl13446998   0.296   5.381   2.971 -0.2983  0.1327  0.3020
  233MOL   C13546999   0.550   5.289   2.987  0.0733  0.3521  0.9585
  233MOL   C13647000   0.698   5.290   3.028  0.2367  0.2822  0.1813
  233MOL   H13747001   0.423   5.588   3.037 -0.1073 -1.7600 -3.1592
  233MOL   H13847002   0.592   5.554   3.015  0.3573  1.8659  1.5148
  233MOL   H13947003   0.525   5.198   2.935 -0.2956 -0.1615  2.0308
  233MOL   H14047004   0.754   5.265   2.937  0.9640 -0.3524  0.7951
  233MOL   H14147005   0.726   5.386   3.071 -0.1182 -0.1580  1.4151
  233MOL   C14247006   0.737   5.176   3.123  0.0014  0.0543  0.2055
  233MOL   C14347007   0.891   5.181   3.149 -0.2593  0.3080 -0.6108
  233MOL  Cl14447008   0.949   5.275   3.280 -0.0428 -0.3263 -0.0309
  233MOL   C14547009   0.969   5.098   3.076  0.1918 -0.1202 -0.5712
  233MOL   C14647010   1.114   5.077   3.088 -0.3935 -0.5116 -0.0682
  233MOL   H14747011   0.703   5.075   3.097  0.4100 -0.3303  1.1520
  233MOL   H14847012   0.662   5.193   3.201 -1.0458 -1.0795 -0.5394
  233MOL   H14947013   0.911   5.041   3.004 -0.2176  0.9673 -1.1101
  233MOL   H15047014   1.150   5.110   2.991 -2.0253  0.0013 -0.5172
  233MOL   H15147015   1.152   5.146   3.163 -0.2176 -0.8272  0.1375
  233MOL   C15247016   1.147   4.933   3.114 -0.8694 -0.2917  0.3478
  233MOL   C15347017   1.138   4.892   3.262 -0.0004 -0.2953 -0.7099
  233MOL  Cl15447018   1.035   4.752   3.281 -0.3180 -0.1547  0.6165
  233MOL   C15547019   1.208   4.943   3.368 -0.7619 -0.3648 -0.8900
  233MOL   C15647020   1.201   4.908   3.515  0.1647 -0.1512  0.3358
  233MOL   H15747021   1.083   4.879   3.044  0.5544 -1.4168 -0.1042
  233MOL   H15847022   1.239   4.896   3.069  0.3091 -1.0923  3.3149
  233MOL   H15947023   1.278   5.020   3.339 -0.1985 -0.8556 -0.8508
  233MOL   H16047024   1.299   4.866   3.541  0.0324 -0.1897  0.7812
  233MOL   H16147025   1.135   4.825   3.541 -0.0012 -0.6025 -1.4959
  233MOL   C16247026   1.160   5.036   3.599 -0.2361  0.5680 -0.5711
  233MOL   C16347027   1.132   5.000   3.745 -0.0054  0.3107 -0.0640
  233MOL  Cl16447028   0.982   4.922   3.761  0.1130  0.3588 -0.1606
  233MOL   C16547029   1.214   5.036   3.854  0.2398  0.4897 -0.0326
  233MOL   C16647030   1.169   5.017   3.992 -0.3172  0.5841 -0.0022
  233MOL   H16747031   1.247   5.101   3.600  1.0178 -1.0795  1.1564
  233MOL   H16847032   1.080   5.091   3.548  0.1882  1.9946  0.2859
  233MOL   H16947033   1.309   5.086   3.843  0.3202  0.2990 -0.2254
  233MOL   H17047034   1.080   4.956   4.003  0.6003 -0.9611 -1.0522
  233MOL   H17147035   1.255   4.983   4.051 -0.2059  1.8665  0.5953
  233MOL   C17247036   1.131   5.159   4.056 -0.3435 -0.2628  0.0489
  233MOL   C17347037   1.136   5.161   4.202  0.0628  0.3739  0.2598
  233MOL  Cl17447038   1.294   5.198   4.260  0.3632 -0.2180 -0.4613
  233MOL   C17547039   1.032   5.151   4.282  0.1744 -0.1183 -0.1426
  233MOL   C17647040   1.045   5.169   4.435  0.2848 -0.4000  0.1580
  233MOL   H17747041   1.039   5.207   4.023 -0.3703 -1.0959 -1.1435
  233MOL   H17847042   1.198   5.238   4.024 -0.7745  0.8492  1.8098
  233MOL   H17947043   0.938   5.128   4.234 -0.4888  0.9044  0.6375
  233MOL   H18047044   0.989   5.258   4.465  2.3688  0.4243  1.7695
  233MOL   H18147045   1.152   5.178   4.453  0.4254  0.0220 -0.8942
  233MOL   C18247046   0.989   5.040   4.506  0.5640 -0.1524 -0.0701
  233MOL   C18347047   0.978   5.077   4.652  0.3748  0.4536  0.6967
  233MOL  Cl18447048   0.824   5.157   4.676 -0.1766  0.1851  0.3257
  233MOL   C18547049   1.059   5.039   4.750  0.1336 -0.3411  0.0022
  233MOL   C18647050   1.028   5.057   4.898 -0.2749  0.6922  0.0531
  233MOL   H18747051   0.893   5.008   4.466  0.6931 -0.3290 -0.2383
  233MOL   H18847052   1.054   4.954   4.493 -0.8128 -1.5578  2.1614
  233MOL   H18947053   1.153   4.993   4.724  0.1677 -0.1713 -0.1776
  233MOL   H19047054   1.097   5.130   4.942  3.1064 -1.0812 -2.0890
  233MOL   H19147055   0.931   5.105   4.915 -1.4494 -1.9009  0.9527
  233MOL   C19247056   1.047   4.930   4.970 -0.1610  0.3894 -0.4842
  233MOL   C19347057   1.016   4.962   5.111 -0.3458  0.4717 -0.2335
  233MOL  Cl19447058   0.864   4.897   5.137 -0.0974 -0.2538  0.4446
  233MOL   C19547059   1.097   5.012   5.200 -0.4155  0.8919 -0.9629
  233MOL   C19647060   1.233   5.071   5.180  0.9791  0.6195 -0.0148
  233MOL   H19747061   1.147   4.888   4.967  0.6082  2.0186  1.6069
  233MOL   H19847062   0.988   4.851   4.924  1.6657 -0.1735 -1.9391
  233MOL   H19947063   1.057   5.013   5.300  3.3639 -0.2983  0.6429
  233MOL   H20047064   1.308   5.018   5.239  2.0874  0.5215 -1.4830
  233MOL   H20147065   1.229   5.172   5.221 -0.5602  0.4131  0.3677
  233MOL   H20247066   1.266   5.076   5.076 -1.9599 -0.1300 -1.0440
  234MOL     C147067   3.669   0.641   5.085  0.2311  0.2330  0.6764
  234MOL     C247068   3.704   0.617   4.941 -0.0911  0.0560  0.0090
  234MOL    Cl347069   3.689   0.771   4.858 -0.2473 -0.2473  0.0739
  234MOL     C447070   3.754   0.506   4.873 -0.2239 -0.5274 -0.6246
  234MOL     C547071   3.781   0.365   4.940  0.1958 -0.5933 -1.0412
  234MOL     H647072   3.746   0.624   5.161 -2.1352 -3.6576  2.4009
  234MOL     H747073   3.583   0.579   5.111  1.7975 -0.9339  3.3856
  234MOL     H847074   3.776   0.526   4.770 -2.7190  0.0874 -1.0644
  234MOL     H947075   3.888   0.365   4.958 -0.4108 -0.1971  3.1771
  234MOL    H1047076   3.735   0.357   5.039  0.9490 -1.5104 -0.7526
  234MOL    H1147077   3.644   0.747   5.089 -0.1922  0.2135 -1.2359
  234MOL    C1247078   3.735   0.258   4.845 -0.2108 -0.8819 -0.7725
  234MOL    C1347079   3.749   0.122   4.914 -1.2311  0.5444 -0.2611
  234MOL   Cl1447080   3.596   0.043   4.959 -0.2213  0.2773  0.1096
  234MOL    C1547081   3.862   0.061   4.931 -0.3686  0.2969 -0.3935
  234MOL    C1647082   4.000   0.100   4.878  0.4544  0.1302  0.7389
  234MOL    H1747083   3.628   0.264   4.824  0.1115  0.3579 -2.1433
  234MOL    H1847084   3.790   0.265   4.752  0.5594  1.0319 -0.1896
  234MOL    H1947085   3.858   8.385   4.979 -1.4547  0.7598  0.4380
  234MOL    H2047086   4.024   0.008   4.825  2.7204  0.5081  1.0690
  234MOL    H2147087   3.981   0.181   4.807  0.9155  0.2405  0.7422
  234MOL    C2247088   4.092   0.144   4.990 -0.4955  0.1379 -0.4500
  234MOL    C2347089   4.234   0.193   4.948 -0.5431 -0.3626  0.1560
  234MOL   Cl2447090   4.334   0.191   5.089  0.3396  0.1242 -0.1042
  234MOL    C2547091   4.275   0.225   4.824  0.4806  0.6003 -0.3223
  234MOL    C2647092   4.409   0.274   4.781 -0.8537 -0.4523 -0.7597
  234MOL    H2747093   4.056   0.225   5.053  0.7304  0.6087 -0.3333
  234MOL    H2847094   4.085   0.059   5.057  0.2694 -2.3651 -3.4126
  234MOL    H2947095   4.207   0.210   4.740 -1.5193 -1.3334  1.5752
  234MOL    H3047096   4.481   0.280   4.863 -1.1669  0.6480 -0.5552
  234MOL    H3147097   4.452   0.206   4.708 -1.6307 -0.6842 -1.0066
  234MOL    C3247098   4.396   0.409   4.713  0.3088 -0.2282 -0.4159
  234MOL    C3347099   4.359   0.526   4.806 -0.5000  0.3998  0.1124
  234MOL   Cl3447100   4.494   0.610   4.878  0.2133  0.2761 -0.0891
  234MOL    C3547101   4.229   0.559   4.832 -0.4215 -0.0709 -0.0073
  234MOL    C3647102   4.203   0.676   4.924  0.1005  0.5423  0.0658
  234MOL    H3747103   4.490   0.433   4.662 -1.6692  2.8159 -2.8403
  234MOL    H3847104   4.333   0.405   4.624 -0.0192  2.1582 -0.3245
  234MOL    H3947105   4.151   0.503   4.784  0.8419 -1.1171 -0.8803
  234MOL    H4047106   4.174   0.640   5.023 -0.2846  3.6913  1.1641
  234MOL    H4147107   4.289   0.739   4.944  1.1299  0.1261 -2.8215
  234MOL    C4247108   4.075   0.756   4.874  0.4569 -0.0726  0.0931
  234MOL    C4347109   4.046   0.879   4.957  1.2002  0.2656  0.6865
  234MOL   Cl4447110   3.954   0.846   5.105  0.1465  0.0753  0.3767
  234MOL    C4547111   4.088   1.004   4.922  0.2364 -0.8753  0.3704
  234MOL    C4647112   4.164   1.042   4.794  0.6224  0.6368 -0.3186
  234MOL    H4747113   4.084   0.791   4.771  0.8362  0.6689  0.3776
  234MOL    H4847114   3.991   0.686   4.869  0.8694 -0.4633 -1.8935
  234MOL    H4947115   4.059   1.082   4.992  0.5007 -0.8335  0.4358
  234MOL    H5047116   4.235   1.115   4.832  1.2266 -1.0741  1.9628
  234MOL    H5147117   4.216   0.957   4.751  1.3662  0.6584  0.5264
  234MOL    C5247118   4.080   1.110   4.690 -0.3145  1.2489  0.3191
  234MOL    C5347119   4.157   1.196   4.593 -0.0333  0.2324  1.5324
  234MOL   Cl5447120   4.070   1.343   4.553 -0.1675  0.3271  0.0358
  234MOL    C5547121   4.285   1.174   4.546  0.9170  0.5405 -0.0984
  234MOL    C5647122   4.361   1.277   4.472  0.0565  0.3081  1.0006
  234MOL    H5747123   4.008   1.043   4.644 -1.1678  2.6127 -0.3893
  234MOL    H5847124   4.007   1.178   4.734 -1.8300  1.3075 -2.1903
  234MOL    H5947125   4.346   1.089   4.571  1.9348  1.4915  0.6904
  234MOL    H6047126   4.289   1.340   4.420  0.0693  0.1412  0.7821
  234MOL    H6147127   4.412   1.340   4.545 -0.3796  0.8357  0.8540
  234MOL    C6247128   4.462   1.221   4.384 -0.0291 -1.0077  0.2685
  234MOL    C6347129   4.420   1.124   4.268 -0.1057 -0.1458  0.0038
  234MOL   Cl6447130   4.311   1.182   4.146  0.0321 -0.1827  0.4294
  234MOL    C6547131   4.466   0.997   4.267  0.3701 -0.3524 -0.0718
  234MOL    C6647132   4.438   0.890   4.165 -0.1445 -0.2417  0.6783
  234MOL    H6747133   4.513   1.309   4.346 -2.2659 -0.0774 -0.6512
  234MOL    H6847134   4.537   1.175   4.449  1.9944  1.0097 -0.5436
  234MOL    H6947135   4.533   0.967   4.346  0.0754  0.6825  0.5856
  234MOL    H7047136   4.368   0.912   4.085  1.6350  0.3320 -0.7487
  234MOL    H7147137   4.393   0.810   4.223 -0.5932 -0.9372 -0.6076
  234MOL    C7247138   4.561   0.821   4.099  0.4667  0.3138  0.4994
  234MOL    C7347139   4.532   0.677   4.062  0.0589  0.3489  0.2039
  234MOL   Cl7447140   4.541   0.659   3.895 -0.1399 -0.2862  0.2231
  234MOL    C7547141   4.517   0.574   4.145 -1.1509  0.0621  0.8451
  234MOL    C7647142   4.505   0.425   4.107 -0.0043 -0.1189 -0.0522
  234MOL    H7747143   4.647   0.820   4.167  0.1467  0.6647  0.9070
  234MOL    H7847144   4.577   0.866   4.001 -4.4229  1.1624 -0.0248
  234MOL    H7947145   4.520   0.597   4.251  0.8045 -0.0272  0.8171
  234MOL    H8047146   4.566   0.361   4.171 -0.1735  1.0648  1.3088
  234MOL    H8147147   4.531   0.407   4.003 -1.8916 -0.8507 -0.4350
  234MOL    C8247148   4.367   0.371   4.136  0.3661 -0.3413 -0.3180
  234MOL    C8347149   4.253   0.424   4.039 -0.3804  0.6121 -0.1739
  234MOL   Cl8447150   4.191   0.291   3.950 -0.1390 -0.5261 -0.0612
  234MOL    C8547151   4.209   0.553   4.036  1.2336  0.0818 -0.7530
  234MOL    C8647152   4.087   0.594   3.959 -0.0623  0.0540  0.2229
  234MOL    H8747153   4.332   0.396   4.236  2.6914 -3.5648  1.3933
  234MOL    H8847154   4.369   0.262   4.141  0.0149 -0.2994  0.9241
  234MOL    H8947155   4.267   0.624   4.093 -1.1736  1.2263  0.3523
  234MOL    H9047156   4.124   0.678   3.899  0.8115  0.7021  1.6463
  234MOL    H9147157   4.067   0.505   3.899 -1.5727 -0.2604  1.1791
  234MOL    C9247158   3.972   0.642   4.045 -0.1374  0.2524  0.7546
  234MOL    C9347159   3.839   0.651   3.971  0.0923  0.3263  0.6361
  234MOL   Cl9447160   3.811   0.815   3.924 -0.7044  0.2500  0.2872
  234MOL    C9547161   3.760   0.553   3.940 -0.0376 -0.2045 -0.4978
  234MOL    C9647162   3.768   0.402   3.981  0.0895 -0.4153  0.4167
  234MOL    H9747163   3.999   0.740   4.085 -0.9562 -0.2559  2.5871
  234MOL    H9847164   3.946   0.573   4.125  0.6064 -1.6567 -0.6090
  234MOL    H9947165   3.674   0.582   3.881  0.4490  1.3866 -0.4388
  234MOL   H10047166   3.845   0.387   4.057  1.3002 -0.7452 -0.8783
  234MOL   H10147167   3.676   0.384   4.037 -1.3618  2.5578 -0.8789
  234MOL   C10247168   3.791   0.309   3.873 -0.4708  0.5865 -0.2579
  234MOL   C10347169   3.769   0.159   3.910 -0.3774  0.1046  0.3349
  234MOL  Cl10447170   3.908   0.075   3.950  0.6163  0.1062  0.3763
  234MOL   C10547171   3.648   0.100   3.915 -0.2111 -0.2817  0.2301
  234MOL   C10647172   3.613   8.376   3.946  0.1746  0.4509  0.3855
  234MOL   H10747173   3.719   0.317   3.792 -0.9507  2.8624  0.3535
  234MOL   H10847174   3.893   0.326   3.837  0.0032  2.3996  1.8454
  234MOL   H10947175   3.566   0.170   3.900 -0.0114  0.9958  4.4350
  234MOL   H11047176   3.694   8.340   4.008  1.1903  1.2002 -0.4790
  234MOL   H11147177   3.521   8.364   4.003  0.5653 -0.2924  0.8536
  234MOL   C11247178   3.610   8.293   3.815  1.1661 -0.4798  0.5304
  234MOL   C11347179   3.496   8.331   3.715  0.6025 -0.2761  0.7985
  234MOL  Cl11447180   3.350   8.253   3.768  0.4554 -0.0380  0.2324
  234MOL   C11547181   3.499   8.411   3.607 -0.0125  0.0462 -0.3130
  234MOL   C11647182   3.625   0.061   3.550  0.3286  1.1883  0.1493
  234MOL   H11747183   3.707   8.296   3.766  0.9511  0.2426  0.1481
  234MOL   H11847184   3.601   8.191   3.852  2.2063 -1.1256 -0.9109
  234MOL   H11947185   3.409   0.013   3.552 -2.0397  1.3511  3.3165
  234MOL   H12047186   3.712   0.030   3.609 -0.7001 -0.8184  0.6633
  234MOL   H12147187   3.618   0.170   3.543 -0.5971  1.2028  1.1149
  234MOL   C12247188   3.647   8.416   3.409  0.6757  0.3250  0.5364
  234MOL   C12347189   3.788   8.410   3.352  0.0299 -1.0116 -0.1931
  234MOL  Cl12447190   3.858   8.258   3.358 -0.0572  0.5775 -0.0710
  234MOL   C12547191   3.861   0.095   3.304  0.2309 -0.2746 -0.4621
  234MOL   C12647192   3.808   0.234   3.286  0.5068 -0.0606 -0.8420
  234MOL   H12747193   3.617   8.311   3.414 -0.7189  0.6877  0.0172
  234MOL   H12847194   3.583   0.045   3.336  2.1725  0.5938 -0.6215
  234MOL   H12947195   3.960   0.065   3.274  0.5840 -1.1373  1.5131
  234MOL   H13047196   3.832   0.246   3.181  1.3244 -3.3903 -1.0976
  234MOL   H13147197   3.704   0.244   3.318  0.9692 -1.2387  1.1519
  234MOL   C13247198   3.877   0.341   3.368 -0.1215 -0.4501  0.4903
  234MOL   C13347199   3.832   0.472   3.322 -0.7839  0.0983 -0.6064
  234MOL  Cl13447200   3.895   0.503   3.164 -0.0188  0.2139 -0.1432
  234MOL   C13547201   3.766   0.567   3.392 -0.0732  0.1399  0.3316
  234MOL   C13647202   3.699   0.556   3.530 -0.1441 -0.0798 -0.1179
  234MOL   H13747203   3.860   0.321   3.474  3.4017 -1.4108  0.9510
  234MOL   H13847204   3.985   0.335   3.355 -0.0607  0.5059  0.5558
  234MOL   H13947205   3.749   0.656   3.333  0.3507  0.6024  0.8991
  234MOL   H14047206   3.717   0.458   3.573  1.1849  0.1421 -0.1514
  234MOL   H14147207   3.754   0.617   3.602 -0.0635  3.1956 -2.7805
  234MOL   C14247208   3.550   0.587   3.516 -0.3254 -0.2540 -0.3377
  234MOL   C14347209   3.478   0.557   3.646  0.5955  0.2895 -0.4242
  234MOL  Cl14447210   3.464   0.381   3.663 -0.0226 -0.2354 -0.2001
  234MOL   C14547211   3.438   0.647   3.740 -0.3700  0.0734  0.1603
  234MOL   C14647212   3.367   0.628   3.872  0.3621  0.7700  0.7359
  234MOL   H14747213   3.515   0.531   3.430 -0.1453  1.2881 -1.4345
  234MOL   H14847214   3.545   0.690   3.479 -1.7108  0.0075  0.5437
  234MOL   H14947215   3.458   0.752   3.725 -1.0793  0.2806  0.6042
  234MOL   H15047216   3.364   0.520   3.885  0.8552  0.9263  2.1532
  234MOL   H15147217   3.435   0.662   3.949  1.5318  0.6759 -0.2342
  234MOL   C15247218   3.227   0.685   3.886 -0.7042  0.0773 -0.6018
  234MOL   C15347219   3.159   0.627   4.005 -0.1177 -0.0040 -0.2322
  234MOL  Cl15447220   3.061   0.493   3.973 -0.2563 -0.0754  0.2437
  234MOL   C15547221   3.182   0.669   4.131  0.5716 -1.0069 -0.1739
  234MOL   C15647222   3.120   0.620   4.264 -0.1572 -0.2617  0.8609
  234MOL   H15747223   3.234   0.793   3.899  2.7039  0.0875 -1.9790
  234MOL   H15847224   3.169   0.666   3.796 -0.8209 -0.2084 -0.4653
  234MOL   H15947225   3.242   0.756   4.155 -2.2841  1.1396 -0.6122
  234MOL   H16047226   3.198   0.576   4.326  0.2900  0.2347  0.6479
  234MOL   H16147227   3.053   0.537   4.239 -2.2277  1.7626 -0.4292
  234MOL   C16247228   3.046   0.727   4.346 -0.6574  0.3202 -0.1900
  234MOL   C16347229   2.902   0.754   4.300  0.8005 -1.2005 -0.1508
  234MOL  Cl16447230   2.793   0.640   4.369  0.0648 -0.3190  0.1858
  234MOL   C16547231   2.846   0.868   4.250 -0.7204  0.3402 -0.0850
  234MOL   C16647232   2.701   0.898   4.221 -0.2796  0.0976  0.1352
  234MOL   H16747233   3.039   0.689   4.448  1.6182 -0.5608 -0.3126
  234MOL   H16847234   3.102   0.819   4.361 -2.8340  1.6910 -0.2536
  234MOL   H16947235   2.910   0.949   4.219 -0.4018 -0.2390 -0.9715
  234MOL   H17047236   2.689   0.939   4.121  0.3118  1.1971  0.5045
  234MOL   H17147237   2.655   0.799   4.227 -1.4827  0.5579 -1.1700
  234MOL   C17247238   2.636   1.003   4.309 -0.4661  0.1727  0.0003
  234MOL   C17347239   2.482   0.995   4.289 -0.1846 -0.4999  0.0232
  234MOL  Cl17447240   2.404   0.927   4.428  0.3790  0.4315 -0.2788
  234MOL   C17547241   2.419   1.033   4.178  0.8135  0.3962 -0.1586
  234MOL   C17647242   2.272   1.018   4.151 -0.9569 -0.0864  0.2416
  234MOL   H17747243   2.677   1.103   4.295  0.8960 -0.4979 -0.8819
  234MOL   H17847244   2.665   0.966   4.408  1.3526 -0.2952 -0.6909
  234MOL   H17947245   2.480   1.077   4.100  0.3373  1.0259 -0.1835
  234MOL   H18047246   2.213   0.948   4.209 -1.9460 -0.8456 -1.6494
  234MOL   H18147247   2.278   0.966   4.056 -1.1715 -0.8363  0.6355
  234MOL   C18247248   2.198   1.156   4.140  1.0138 -0.0312  0.3102
  234MOL   C18347249   2.155   1.221   4.273 -0.6825  0.1672 -0.2915
  234MOL  Cl18447250   1.990   1.200   4.290 -0.3018 -0.0636 -0.0053
  234MOL   C18547251   2.221   1.297   4.363  0.5212  0.4402 -0.8107
  234MOL   C18647252   2.170   1.346   4.495 -0.6420 -0.1371  0.0993
  234MOL   H18747253   2.270   1.220   4.088  0.2126 -0.8315 -1.8201
  234MOL   H18847254   2.113   1.154   4.071  0.6831  1.2568  0.6628
  234MOL   H18947255   2.322   1.328   4.338  0.6531  2.1063  1.6760
  234MOL   H19047256   2.062   1.340   4.504 -0.5370  1.1415  2.7299
  234MOL   H19147257   2.208   1.278   4.571 -1.1379 -1.5816 -0.9354
  234MOL   C19247258   2.218   1.492   4.543  0.1423  0.2746  0.8340
  234MOL   C19347259   2.167   1.526   4.677  0.7778 -0.5587  0.2635
  234MOL  Cl19447260   2.252   1.439   4.805 -0.0047 -0.0286 -0.0020
  234MOL   C19547261   2.058   1.600   4.705 -0.3032 -0.9341 -1.0521
  234MOL   C19647262   1.975   1.670   4.595  0.3591 -0.6172  0.9464
  234MOL   H19747263   2.213   1.571   4.468  1.8961 -0.7026 -0.3492
  234MOL   H19847264   2.325   1.477   4.559 -0.0479 -2.0492  0.0486
  234MOL   H19947265   2.036   1.602   4.810  1.4986 -2.2155 -0.6363
  234MOL   H20047266   1.960   1.776   4.615 -0.3093 -0.4535 -0.3470
  234MOL   H20147267   1.875   1.628   4.601 -0.0836  0.6366  2.7179
  234MOL   H20247268   1.999   1.662   4.489 -3.7844  1.3966 -0.2265
  235MOL     C147269   3.918   6.979   2.120 -0.2530 -0.1169  0.5412
  235MOL     C247270   3.947   6.874   2.016  0.2494 -0.0468 -0.2241
  235MOL    Cl347271   4.036   6.746   2.078 -0.1032 -0.0090  0.1555
  235MOL     C447272   3.916   6.877   1.889 -0.1416 -0.5873  0.1277
  235MOL     C547273   3.869   6.988   1.810  0.1097  0.5337  0.5138
  235MOL     H647274   3.946   7.081   2.091  2.0051 -1.1367 -1.0458
  235MOL     H747275   3.982   6.966   2.207 -2.4030 -0.3289  2.1236
  235MOL     H847276   3.936   6.785   1.836  1.1172 -0.2413 -0.0138
  235MOL     H947277   3.856   7.073   1.877 -1.3340  0.6397  0.1237
  235MOL    H1047278   3.952   7.027   1.750 -0.3278 -0.5188 -0.7857
  235MOL    H1147279   3.811   6.975   2.142 -0.1602 -0.9812  0.8613
  235MOL    C1247280   3.751   6.955   1.720  0.3370  0.3381  0.1443
  235MOL    C1347281   3.698   7.063   1.625  0.1810  0.6776  0.0307
  235MOL   Cl1447282   3.552   7.129   1.687  0.0222  0.1005 -0.3808
  235MOL    C1547283   3.752   7.119   1.512  0.0261  0.0809  0.3688
  235MOL    C1647284   3.893   7.082   1.453  0.1351 -0.2239 -0.5005
  235MOL    H1747285   3.773   6.868   1.657 -0.4596  0.4095 -0.2373
  235MOL    H1847286   3.661   6.928   1.775  0.7373 -1.2251  0.0587
  235MOL    H1947287   3.700   7.195   1.456  1.4630 -3.1135 -5.7568
  235MOL    H2047288   3.962   7.166   1.455  1.2772 -1.1804  0.9882
  235MOL    H2147289   3.930   7.017   1.532  0.7871  1.0698  0.2774
  235MOL    C2247290   3.893   7.016   1.319 -0.5128 -0.5130  0.4635
  235MOL    C2347291   4.027   6.968   1.270  0.2411  0.0088 -0.2973
  235MOL   Cl2447292   4.085   7.053   1.132  0.0747 -0.2550  0.2045
  235MOL    C2547293   4.095   6.863   1.317 -0.5214  0.0419 -0.3104
  235MOL    C2647294   4.218   6.805   1.259 -0.0044  0.4282  0.9674
  235MOL    H2747295   3.818   6.937   1.313 -0.9291 -0.1075  0.3377
  235MOL    H2847296   3.851   7.092   1.253 -0.4353  0.0782  1.0917
  235MOL    H2947297   4.064   6.816   1.409 -0.3340  0.8367  0.1543
  235MOL    H3047298   4.248   6.853   1.167  1.6418 -1.6788  0.3460
  235MOL    H3147299   4.287   6.829   1.340 -0.0198 -0.2767  1.1933
  235MOL    C3247300   4.209   6.655   1.233 -0.1123  0.9897  0.0652
  235MOL    C3347301   4.332   6.606   1.152  0.3155 -0.2595 -0.4561
  235MOL   Cl3447302   4.484   6.613   1.241 -0.1819 -0.1714 -0.4774
  235MOL    C3547303   4.323   6.549   1.031  0.7159  0.3504  0.3764
  235MOL    C3647304   4.441   6.501   0.947 -0.4564 -0.3140  0.3268
  235MOL    H3747305   4.197   6.606   1.329 -0.3785 -0.1334 -0.5418
  235MOL    H3847306   4.117   6.618   1.189  0.4334 -0.2979 -0.0025
  235MOL    H3947307   4.228   6.544   0.978  1.5728  0.7959 -1.2298
  235MOL    H4047308   4.523   6.572   0.958  0.3746 -1.0513 -1.0818
  235MOL    H4147309   4.466   6.401   0.983 -0.8300 -0.9383 -1.1269
  235MOL    C4247310   4.397   6.473   0.799 -0.1617 -0.9119 -0.2944
  235MOL    C4347311   4.521   6.443   0.706 -0.3873  0.3900 -0.1237
  235MOL   Cl4447312   4.553   6.281   0.696  0.1747  0.1519  0.1166
  235MOL    C4547313   4.595   6.538   0.645 -0.8269  0.3873 -0.8761
  235MOL    C4647314   4.575   6.692   0.644 -0.1888  0.3118  0.0518
  235MOL    H4747315   4.334   6.386   0.784 -1.2992  0.0358 -1.1818
  235MOL    H4847316   4.347   6.564   0.765  0.7782  0.5855  2.2354
  235MOL    H4947317   4.680   6.499   0.591 -2.1452 -1.7524 -1.4656
  235MOL    H5047318   4.564   6.723   0.540  1.5625  2.0118  0.3385
  235MOL    H5147319   4.485   6.729   0.694 -0.8380 -1.0571 -0.0814
  235MOL    C5247320   4.683   6.770   0.707 -0.0008 -1.0993  0.1325
  235MOL    C5347321   4.707   6.896   0.640  0.5036  0.4275  0.1704
  235MOL   Cl5447322   4.833   6.878   0.518  0.2845 -0.0108 -0.2503
  235MOL    C5547323   4.642   7.010   0.667  0.1607  0.0207 -0.1933
  235MOL    C5647324   4.665   7.139   0.590 -0.9385 -0.3771  0.2940
  235MOL    H5747325   4.649   6.794   0.808 -0.7897  1.9341 -0.8072
  235MOL    H5847326   4.780   6.722   0.724  1.2738  1.0031 -0.9935
  235MOL    H5947327   4.573   7.012   0.750 -1.8722  0.6905 -1.8602
  235MOL    H6047328   4.692   7.219   0.659  2.2029 -0.9847 -0.1466
  235MOL    H6147329   4.753   7.140   0.525  0.7013  0.2821  2.4400
  235MOL    C6247330   4.543   7.177   0.503  0.0743 -0.0384 -0.3092
  235MOL    C6347331   4.567   7.303   0.426 -0.1553  1.0684 -0.2219
  235MOL   Cl6447332   4.426   7.396   0.407 -0.0781  0.0545 -0.1426
  235MOL    C6547333   4.678   7.344   0.361  0.5439 -0.4778 -0.1726
  235MOL    C6647334   4.702   7.469   0.274  0.6804 -0.5125  0.3860
  235MOL    H6747335   4.492   7.100   0.444 -1.3456  1.4640 -1.1033
  235MOL    H6847336   4.472   7.208   0.580  1.0477 -0.7786  0.9082
  235MOL    H6947337   4.771   7.291   0.372  2.0017  1.8506 -0.8223
  235MOL    H7047338   4.796   7.509   0.312 -0.3014  0.6375  1.6422
  235MOL    H7147339   4.631   7.547   0.297  0.8197 -0.4967  0.7594
  235MOL    C7247340   4.693   7.446   0.117  0.3435  0.1078 -0.3760
  235MOL    C7347341   4.701   7.576   0.038  0.0103  0.3527  0.0811
  235MOL   Cl7447342   4.776   7.706   0.123 -0.0342 -0.2781 -0.5810
  235MOL    C7547343   4.646   7.587   8.338 -0.0806  0.4927 -0.6860
  235MOL    C7647344   4.635   7.713   8.257  0.2068  0.0119 -0.3402
  235MOL    H7747345   4.612   7.380   0.087 -0.2740  1.3257 -1.4067
  235MOL    H7847346   4.789   7.402   0.089  0.7907  1.6051 -1.2026
  235MOL    H7947347   4.596   7.508   8.285 -1.0780 -0.9951  2.3148
  235MOL    H8047348   4.670   7.697   8.155 -0.7347 -1.9422 -0.3894
  235MOL    H8147349   4.699   7.794   8.293 -1.7802  1.7747 -0.6816
  235MOL    C8247350   4.488   7.751   8.249 -0.6070  0.0602  0.1089
  235MOL    C8347351   4.449   7.849   8.141  0.1047 -0.2500  0.1846
  235MOL   Cl8447352   4.498   8.005   8.183  0.2695 -0.1533 -0.0514
  235MOL    C8547353   4.371   7.815   8.034 -0.3834  0.6320 -0.5492
  235MOL    C8647354   4.319   7.895   7.918 -0.6685 -0.0831  0.7772
  235MOL    H8747355   4.469   7.790   8.348 -0.4099 -1.0234  0.5827
  235MOL    H8847356   4.429   7.659   8.239  0.4699 -1.0509  3.2546
  235MOL    H8947357   4.341   7.712   8.021  0.0914  0.3240  0.7311
  235MOL    H9047358   4.361   7.995   7.920  1.6577 -0.9976 -0.4488
  235MOL    H9147359   4.368   7.853   7.830  0.2223  0.6261  0.9323
  235MOL    C9247360   4.165   7.897   7.905  0.3651  0.1274 -0.0275
  235MOL    C9347361   4.123   7.942   7.767  0.2878  0.5974  0.1974
  235MOL   Cl9447362   4.074   7.804   7.670  0.4177 -0.3966 -0.3510
  235MOL    C9547363   4.092   8.066   7.731 -0.0585  0.1868 -0.6825
  235MOL    C9647364   4.098   8.194   7.804 -0.6123 -0.3817  0.2025
  235MOL    H9747365   4.134   7.979   7.970 -0.6674 -0.2229 -0.0770
  235MOL    H9847366   4.111   7.804   7.922 -0.3021  0.7419  1.3295
  235MOL    H9947367   4.076   8.069   7.624 -0.0931  0.9799 -0.6593
  235MOL   H10047368   4.112   8.168   7.909 -1.1989  2.1390  0.9316
  235MOL   H10147369   4.192   8.242   7.779 -0.4040 -1.1041 -0.4130
  235MOL   C10247370   3.968   8.275   7.781  0.2610  0.1772  0.3386
  235MOL   C10347371   3.939   8.389   7.879 -0.7409 -0.5027  0.6906
  235MOL  Cl10447372   3.948   8.344   8.041  0.3088  0.1100  0.4078
  235MOL   C10547373   3.914   0.089   7.832 -0.0886 -0.1963 -1.3042
  235MOL   C10647374   3.887   0.209   7.924 -0.6557  0.7405 -0.3573
  235MOL   H10747375   3.966   8.304   7.676  0.3788  2.9748  1.0572
  235MOL   H10847376   3.894   8.196   7.792 -0.0726  0.2161 -1.4373
  235MOL   H10947377   3.915   0.114   7.727 -0.0829 -1.5506 -1.6295
  235MOL   H11047378   3.780   0.227   7.936 -0.8013  0.4909 -1.2883
  235MOL   H11147379   3.932   0.192   8.022 -0.4862  2.8640 -0.0391
  235MOL   C11247380   3.941   0.340   7.868  0.0294 -0.2543  0.6659
  235MOL   C11347381   3.886   0.380   7.738 -0.2211 -0.6435  0.0995
  235MOL  Cl11447382   3.715   0.424   7.740 -0.0904  0.0677 -0.2646
  235MOL   C11547383   3.952   0.396   7.626  0.1014 -0.1226 -0.4539
  235MOL   C11647384   4.101   0.370   7.599  0.6601  0.9590  0.5024
  235MOL   H11747385   3.928   0.420   7.941  0.8948 -0.0142  0.5520
  235MOL   H11847386   4.048   0.325   7.861  0.0205  0.6932 -2.3662
  235MOL   H11947387   3.890   0.424   7.542  1.5654 -0.2594 -1.5991
  235MOL   H12047388   4.150   0.316   7.680  1.3130 -0.0664 -0.5715
  235MOL   H12147389   4.136   0.473   7.594 -1.1273  1.5821  0.4126
  235MOL   C12247390   4.117   0.290   7.474  0.1400  0.0735  0.5890
  235MOL   C12347391   4.261   0.252   7.440  0.3180  0.6025  0.3905
  235MOL  Cl12447392   4.312   0.320   7.291  0.3719  0.2750 -0.1182
  235MOL   C12547393   4.339   0.161   7.504  0.0999  0.1554  0.8212
  235MOL   C12647394   4.304   0.083   7.633  0.0786  0.0363 -0.4397
  235MOL   H12747395   4.061   0.198   7.461  1.8205 -0.7440 -1.0463
  235MOL   H12847396   4.075   0.347   7.391 -0.5777 -0.3855  0.6367
  235MOL   H12947397   4.437   0.145   7.462  0.9138  0.5988  2.5132
  235MOL   H13047398   4.197   0.079   7.653 -0.2635 -0.2358 -2.2622
  235MOL   H13147399   4.329   8.398   7.627 -1.0464 -0.2612 -0.0737
  235MOL   C13247400   4.388   0.136   7.751  0.2597 -0.3476 -0.1195
  235MOL   C13347401   4.371   0.053   7.877  0.2395 -0.5919  0.3123
  235MOL  Cl13447402   4.254   0.117   7.978 -0.3125  0.0794  0.1158
  235MOL   C13547403   4.431   8.358   7.908  0.3965  0.0993  0.0716
  235MOL   C13647404   4.527   8.276   7.824 -0.5015  0.1293 -0.0854
  235MOL   H13747405   4.494   0.144   7.728 -0.4513  1.1898 -3.1126
  235MOL   H13847406   4.361   0.236   7.783  1.0823 -1.1621  3.3764
  235MOL   H13947407   4.407   8.314   8.004  0.0285  0.7261  0.2731
  235MOL   H14047408   4.469   8.204   7.765  1.3912 -1.1326 -0.4474
  235MOL   H14147409   4.567   8.336   7.743 -1.6997  0.3192 -0.5499
  235MOL   C14247410   4.637   8.203   7.903 -0.0262  0.0184  0.0724
  235MOL   C14347411   4.718   8.103   7.821  0.8977  0.2623 -0.0107
  235MOL  Cl14447412   4.678   7.934   7.848 -0.1180  0.1000  0.0791
  235MOL   C14547413   4.806   8.143   7.729  0.5543  0.1647  0.3808
  235MOL   C14647414   4.899   8.067   7.635 -0.2308 -0.5416 -0.0666
  235MOL   H14747415   4.583   8.140   7.975 -1.4491  0.7709 -0.3116
  235MOL   H14847416   4.708   8.262   7.961 -0.2342 -1.0323  1.4320
  235MOL   H14947417   4.823   8.250   7.728  2.6515 -0.1207  1.5005
  235MOL   H15047418   5.001   8.096   7.659 -1.0714  1.6705  0.9594
  235MOL   H15147419   4.905   7.960   7.654  0.2344 -0.5995 -0.5157
  235MOL   C15247420   4.862   8.082   7.490  0.4131 -0.4671  0.7155
  235MOL   C15347421   4.976   8.054   7.395 -0.3564  0.5859  0.0320
  235MOL  Cl15447422   5.038   7.893   7.424 -0.4108 -0.6880 -0.0332
  235MOL   C15547423   5.015   8.130   7.296  0.5232 -0.0506 -1.0062
  235MOL   C15647424   5.122   8.098   7.192  1.1066  0.9454 -0.5913
  235MOL   H15747425   4.785   8.011   7.461 -1.4651  1.2487  1.4330
  235MOL   H15847426   4.815   8.179   7.475  0.1088 -0.8505 -0.8627
  235MOL   H15947427   4.966   8.226   7.293  2.3785  0.9756  0.2208
  235MOL   H16047428   5.200   8.049   7.250  0.0212 -0.0576  0.0398
  235MOL   H16147429   5.161   8.192   7.153 -0.7785  0.6556 -3.2691
  235MOL   C16247430   5.062   8.001   7.090  0.5547 -0.1328 -0.3673
  235MOL   C16347431   5.171   7.946   7.001  0.1450  0.0044 -0.2907
  235MOL  Cl16447432   5.285   7.838   7.076 -0.1393  0.2525  0.3616
  235MOL   C16547433   5.182   7.995   6.878  0.0523  0.5469 -0.2020
  235MOL   C16647434   5.300   7.969   6.790 -0.8545 -0.5769 -0.1440
  235MOL   H16747435   5.014   7.921   7.146 -2.7863  1.3656 -0.9954
  235MOL   H16847436   4.989   8.047   7.024 -3.3850 -2.4698  2.1731
  235MOL   H16947437   5.110   8.059   6.827 -1.0394  0.4209  1.1616
  235MOL   H17047438   5.354   7.879   6.820 -1.0304 -0.8684 -0.6918
  235MOL   H17147439   5.274   7.951   6.686 -0.2448  1.2268 -0.6283
  235MOL   C17247440   5.399   8.090   6.788  0.3587  0.4787 -0.2190
  235MOL   C17347441   5.466   8.098   6.919  0.2148  0.4104 -0.1252
  235MOL  Cl17447442   5.429   8.245   6.994 -0.1742 -0.4435 -0.2384
  235MOL   C17547443   5.568   8.014   6.960  0.8506 -0.1719  0.6861
  235MOL   C17647444   5.660   8.041   7.075 -0.5220 -0.6518 -0.1493
  235MOL   H17747445   5.340   8.181   6.780 -1.8134 -0.8068  0.8260
  235MOL   H17847446   5.463   8.098   6.700  1.8390  0.7141  0.8657
  235MOL   H17947447   5.582   7.922   6.905  2.4834 -0.1370  1.0206
  235MOL   H18047448   5.675   7.951   7.134 -0.6472 -0.6729 -0.1498
  235MOL   H18147449   5.611   8.109   7.145  0.8302 -0.9415  1.0978
  235MOL   C18247450   5.800   8.091   7.030  0.0878 -0.1033 -0.0317
  235MOL   C18347451   5.882   8.128   7.151  0.3252  0.8535  0.1669
  235MOL  Cl18447452   5.942   8.290   7.142  0.4167 -0.0133  0.2307
  235MOL   C18547453   5.919   8.040   7.251 -0.2194 -0.3273 -0.7523
  235MOL   C18647454   6.005   8.073   7.367  0.4097  0.2254 -0.4503
  235MOL   H18747455   5.847   8.025   6.957 -0.4498 -0.3602 -0.1482
  235MOL   H18847456   5.779   8.182   6.974 -0.7618 -0.5353 -0.4438
  235MOL   H18947457   5.877   7.941   7.242 -2.3052  0.4450  0.2204
  235MOL   H19047458   6.068   7.984   7.373  0.0046 -0.1685 -1.9673
  235MOL   H19147459   6.069   8.160   7.352  0.3004  0.5539  0.9072
  235MOL   C19247460   5.923   8.091   7.499 -0.8335  0.5668  0.0491
  235MOL   C19347461   6.014   8.160   7.599  0.5021 -0.2915  0.1763
  235MOL  Cl19447462   6.091   8.033   7.692  0.0265 -0.1386  0.2262
  235MOL   C19547463   6.024   8.293   7.627 -0.1545  0.9711 -0.8971
  235MOL   C19647464   5.956   8.403   7.550  0.3067 -0.7566  0.6748
  235MOL   H19747465   5.886   7.994   7.533  0.0360 -0.4884 -1.9455
  235MOL   H19847466   5.839   8.160   7.487 -1.3921 -0.3671 -1.6493
  235MOL   H19947467   6.081   8.315   7.716 -1.7415 -2.5035  1.0813
  235MOL   H20047468   6.030   0.061   7.537  1.0134 -1.3385  1.1385
  235MOL   H20147469   5.872   0.031   7.600 -0.7207 -1.5681 -0.2415
  235MOL   H20247470   5.920   8.368   7.454 -1.0365  0.3127  0.7753
  236MOL     C147471   1.481   2.296   0.765 -1.1517  0.3297 -0.3397
  236MOL     C247472   1.512   2.428   0.690 -0.8721  0.2469 -1.0791
  236MOL    Cl347473   1.586   2.402   0.536 -0.3583 -0.1555 -0.1590
  236MOL     C447474   1.467   2.548   0.729 -0.3058 -0.1504  0.7633
  236MOL     C547475   1.415   2.587   0.863 -0.2676 -0.3890  0.8628
  236MOL     H647476   1.452   2.313   0.869 -0.1014 -1.1767  0.2174
  236MOL     H747477   1.573   2.237   0.768 -1.5807 -0.2935  0.9095
  236MOL     H847478   1.475   2.636   0.666 -1.5659 -1.4132 -1.1988
  236MOL     H947479   1.460   2.536   0.947  0.3804  2.2500  2.1832
  236MOL    H1047480   1.443   2.692   0.874  2.0186 -0.8027 -0.6663
  236MOL    H1147481   1.404   2.262   0.697 -1.0630 -0.2334 -0.1598
  236MOL    C1247482   1.260   2.576   0.852 -0.2332 -0.0250 -0.1180
  236MOL    C1347483   1.184   2.660   0.959 -0.1282  0.6332 -0.7014
  236MOL   Cl1447484   1.126   2.556   1.085 -0.3033  0.3158  0.2645
  236MOL    C1547485   1.148   2.790   0.950 -0.3219  0.1998  0.5929
  236MOL    C1647486   1.187   2.892   0.847 -0.3035 -0.3430  0.2730
  236MOL    H1747487   1.234   2.616   0.754 -1.9559  1.7818  1.0301
  236MOL    H1847488   1.239   2.469   0.852  0.5956 -0.1962 -0.8762
  236MOL    H1947489   1.083   2.820   1.031 -0.2911 -0.3652  0.8298
  236MOL    H2047490   1.222   2.984   0.895 -0.8679 -0.2394  0.4914
  236MOL    H2147491   1.271   2.853   0.790 -0.7474 -2.0165  0.7296
  236MOL    C2247492   1.074   2.925   0.752  0.4591  0.2757  0.1698
  236MOL    C2347493   1.109   3.036   0.649 -0.6826  0.0328  0.1057
  236MOL   Cl2447494   1.266   3.112   0.673  0.4721  0.0728  0.2354
  236MOL    C2547495   1.050   3.059   0.533  0.5778 -0.0004 -0.4681
  236MOL    C2647496   1.100   3.154   0.425  0.1982 -0.0450 -0.5778
  236MOL    H2747497   1.054   2.828   0.708  0.7114 -1.1475  3.1386
  236MOL    H2847498   0.985   2.955   0.808  0.7985  1.4983  0.0787
  236MOL    H2947499   0.961   3.005   0.504  1.0859 -0.1391 -1.7734
  236MOL    H3047500   1.209   3.151   0.418  0.3443 -0.6443  1.6871
  236MOL    H3147501   1.064   3.115   0.329 -1.6335 -1.1221  0.5283
  236MOL    C3247502   1.037   3.285   0.453 -0.4561 -0.6504  0.8449
  236MOL    C3347503   1.092   3.394   0.359 -0.6625 -0.9342 -0.1588
  236MOL   Cl3447504   1.254   3.451   0.398 -0.1329 -0.0213  0.2627
  236MOL    C3547505   1.023   3.445   0.253  0.5226  0.5044 -0.1536
  236MOL    C3647506   1.065   3.558   0.160  0.4744 -0.0006 -0.7453
  236MOL    H3747507   0.930   3.274   0.439 -0.1310 -1.2317 -1.3328
  236MOL    H3847508   1.071   3.321   0.551  0.5663 -0.1517  0.3228
  236MOL    H3947509   0.926   3.399   0.238 -0.0963  1.6469  0.2902
  236MOL    H4047510   1.167   3.595   0.176 -0.3295  1.4795  1.1069
  236MOL    H4147511   1.058   3.543   0.052 -0.9537 -0.1625 -0.6276
  236MOL    C4247512   0.972   3.681   0.179 -0.3275  0.1390 -0.6858
  236MOL    C4347513   1.031   3.814   0.141  0.1139 -0.1772  0.3320
  236MOL   Cl4447514   1.118   3.884   0.273 -0.4034 -0.2630 -0.0594
  236MOL    C4547515   1.026   3.870   0.016  0.0115 -0.0894 -0.6192
  236MOL    C4647516   0.952   3.822   8.308 -0.5531 -0.2679 -0.6791
  236MOL    H4747517   0.874   3.667   0.134 -1.2265  0.9816  0.9733
  236MOL    H4847518   0.955   3.675   0.286 -0.8653 -2.4806 -0.8874
  236MOL    H4947519   1.083   3.961   0.004 -1.0192  0.6561  0.0888
  236MOL    H5047520   1.034   3.823   8.236 -1.8274  0.4936 -2.1485
  236MOL    H5147521   0.925   3.717   8.321 -0.3639 -0.0133  2.0677
  236MOL    C5247522   0.847   3.909   8.240 -0.0437  0.1753 -0.0195
  236MOL    C5347523   0.894   4.052   8.212 -0.3362 -0.6767  0.2726
  236MOL   Cl5447524   0.788   4.171   8.285  0.1237  0.4028 -0.2179
  236MOL    C5547525   1.010   4.077   8.154 -0.3851 -0.0705 -0.1346
  236MOL    C5647526   1.084   4.210   8.131  1.0103 -0.3611  0.3558
  236MOL    H5747527   0.834   3.875   8.138  2.3211 -0.9292  0.0077
  236MOL    H5847528   0.751   3.909   8.291 -0.1892 -0.7726 -0.2922
  236MOL    H5947529   1.072   3.996   8.119  2.5408  1.7090  0.7066
  236MOL    H6047530   1.116   4.197   8.028  0.9529  0.5412  0.2172
  236MOL    H6147531   1.026   4.302   8.132  2.1021  0.3491 -0.1228
  236MOL    C6247532   1.209   4.212   8.224  0.2993 -0.4553 -0.1555
  236MOL    C6347533   1.270   4.349   8.219 -0.0033 -0.0449 -0.1687
  236MOL   Cl6447534   1.369   4.357   8.078  0.0473  0.3469  0.2385
  236MOL    C6547535   1.234   4.458   8.297  0.1691  0.3872 -0.5262
  236MOL    C6647536   1.292   4.600   8.282 -0.2123 -0.7627  0.2233
  236MOL    H6747537   1.175   4.193   8.326 -0.1959 -0.5300 -0.3355
  236MOL    H6847538   1.288   4.142   8.196  0.4774  0.3722 -1.7910
  236MOL    H6947539   1.157   4.441   8.370  0.0575 -1.5145 -1.0628
  236MOL    H7047540   1.379   4.586   8.220 -0.7726  1.4906 -1.1199
  236MOL    H7147541   1.329   4.635   8.379 -0.4561 -0.5165  0.2313
  236MOL    C7247542   1.198   4.688   8.200 -0.2522 -0.3334  0.6927
  236MOL    C7347543   1.263   4.816   8.157 -0.1619  0.1323 -0.5924
  236MOL   Cl7447544   1.288   4.831   7.981 -0.1278  0.0849 -0.1413
  236MOL    C7547545   1.298   4.914   8.241 -1.0602  1.0081 -0.2278
  236MOL    C7647546   1.377   5.044   8.219  1.4263 -0.4809 -0.4773
  236MOL    H7747547   1.118   4.717   8.267  0.7093  1.7486  0.9736
  236MOL    H7847548   1.145   4.634   8.122  0.2656  2.3597 -1.6019
  236MOL    H7947549   1.268   4.904   8.345  3.6314 -1.5164  1.0063
  236MOL    H8047550   1.306   5.117   8.258 -0.4899 -2.3657 -0.3514
  236MOL    H8147551   1.389   5.088   8.120 -2.1251  1.2177 -0.2052
  236MOL    C8247552   1.520   5.045   8.285 -0.0981  0.3812  0.8081
  236MOL    C8347553   1.596   5.173   8.258 -0.0758  0.0995  0.1972
  236MOL   Cl8447554   1.763   5.139   8.232  0.0457  0.0323 -0.3115
  236MOL    C8547555   1.546   5.299   8.256 -0.0129 -0.1747  0.0195
  236MOL    C8647556   1.615   5.433   8.232  0.2447  0.0961  0.3652
  236MOL    H8747557   1.583   4.968   8.239  2.8147  1.7095  2.4495
  236MOL    H8847558   1.515   5.033   8.393  0.3501 -0.3454  0.7535
  236MOL    H8947559   1.441   5.321   8.270  0.7849  2.8948  1.5616
  236MOL    H9047560   1.581   5.498   8.313 -1.2471  1.4364 -1.2889
  236MOL    H9147561   1.721   5.429   8.260 -0.3540  1.7155  3.0424
  236MOL    C9247562   1.600   5.493   8.092  0.2724 -0.5957 -0.6646
  236MOL    C9347563   1.684   5.423   7.984  0.0053  0.1948 -0.3271
  236MOL   Cl9447564   1.582   5.311   7.903 -0.3493 -0.1930  0.3819
  236MOL    C9547565   1.803   5.460   7.937  0.3754 -0.7329 -0.1650
  236MOL    C9647566   1.890   5.571   7.990  0.6856 -0.6146 -0.0623
  236MOL    H9747567   1.620   5.599   8.080  0.1122 -0.4172  0.5694
  236MOL    H9847568   1.497   5.488   8.057  0.5103  1.1932 -1.6516
  236MOL    H9947569   1.842   5.402   7.854  2.5020  1.9218 -1.0833
  236MOL   H10047570   1.914   5.649   7.918 -0.5966 -0.3618 -0.2161
  236MOL   H10147571   1.851   5.623   8.077 -0.8279 -1.2969 -0.3222
  236MOL   C10247572   2.026   5.513   8.020 -0.4612  0.0931 -0.8559
  236MOL   C10347573   2.030   5.415   8.135 -0.0704  0.3958  0.2144
  236MOL  Cl10447574   1.999   5.481   8.283 -0.0945 -0.1537  0.3266
  236MOL   C10547575   2.076   5.287   8.116 -0.1806 -0.1600 -0.0619
  236MOL   C10647576   2.089   5.178   8.224 -0.4323  0.1920  0.5878
  236MOL   H10747577   2.070   5.473   7.928  0.8602  0.3662 -0.3617
  236MOL   H10847578   2.095   5.592   8.050  1.0780 -1.6464  0.3318
  236MOL   H10947579   2.101   5.263   8.013  0.7422  1.3449 -0.1959
  236MOL   H11047580   2.056   5.205   8.324  2.7968  0.3903  1.6567
  236MOL   H11147581   2.028   5.096   8.189  1.8639 -1.4478  0.3358
  236MOL   C11247582   2.232   5.137   8.237 -0.1002 -0.7631  0.7677
  236MOL   C11347583   2.239   5.035   8.346 -0.3049  0.2496  0.3069
  236MOL  Cl11447584   2.233   4.869   8.282  0.0486  0.1558 -0.1047
  236MOL   C11547585   2.253   5.061   0.054 -0.5898  0.4412  1.1345
  236MOL   C11647586   2.258   5.201   0.119 -0.8623 -0.5078 -0.0899
  236MOL   H11747587   2.265   5.093   8.143 -1.0513 -0.7936  0.4392
  236MOL   H11847588   2.311   5.210   8.256 -1.2647  0.1884  2.0404
  236MOL   H11947589   2.251   4.973   0.116  0.8456 -1.3556 -1.2578
  236MOL   H12047590   2.202   5.198   0.212 -0.8476 -0.9885 -0.0992
  236MOL   H12147591   2.215   5.280   0.057  2.5600  0.4242 -1.3904
  236MOL   C12247592   2.404   5.225   0.148 -0.0684  0.0198  0.6870
  236MOL   C12347593   2.432   5.373   0.199  0.2716 -0.0915  0.5079
  236MOL  Cl12447594   2.460   5.387   0.374  0.1207 -0.3226  0.0819
  236MOL   C12547595   2.461   5.470   0.109  0.6564  0.5808  0.9402
  236MOL   C12647596   2.455   5.449   8.380 -0.4471  0.1282  0.1602
  236MOL   H12747597   2.433   5.167   0.235 -0.3908  0.2591  0.9583
  236MOL   H12847598   2.473   5.196   0.069  1.6176 -2.6253  3.0486
  236MOL   H12947599   2.498   5.565   0.146  3.2855 -0.7629  1.8688
  236MOL   H13047600   2.557   5.463   8.346 -0.6132  2.0825  0.4071
  236MOL   H13147601   2.422   5.354   8.339 -0.1518 -0.9909  2.4275
  236MOL   C13247602   2.363   5.548   8.309  0.1023  0.4676  0.0674
  236MOL   C13347603   2.389   5.572   8.158  0.5417 -0.3181 -0.4450
  236MOL  Cl13447604   2.399   5.424   8.059  0.2253 -0.2037 -0.0584
  236MOL   C13547605   2.381   5.693   8.103 -0.0060 -0.1687  0.0067
  236MOL   C13647606   2.369   5.827   8.174  0.4150 -0.9090  0.0892
  236MOL   H13747607   2.258   5.525   8.325  0.2751 -1.9271 -1.9708
  236MOL   H13847608   2.393   5.637   8.365  0.5313 -0.9604  2.1892
  236MOL   H13947609   2.395   5.695   7.996  0.8692  1.3289  0.1275
  236MOL   H14047610   2.300   5.877   8.107 -1.0668  0.5152  2.5961
  236MOL   H14147611   2.316   5.814   8.269  1.3720 -1.7064  0.5245
  236MOL   C14247612   2.499   5.904   8.193 -0.3393  0.1871 -0.1512
  236MOL   C14347613   2.487   6.024   8.284  0.5558  0.4017  0.3388
  236MOL  Cl14447614   2.636   6.084   8.331 -0.3431  0.0920  0.2270
  236MOL   C14547615   2.367   6.080   8.319 -0.6206  0.2969  0.2677
  236MOL   C14647616   2.361   6.199   8.404  0.1947 -0.5303 -0.2882
  236MOL   H14747617   2.549   5.921   8.097  0.5711  1.1061  0.4802
  236MOL   H14847618   2.571   5.843   8.247  0.9106  1.0184 -0.8410
  236MOL   H14947619   2.272   6.038   8.291 -0.0633 -1.0663  0.3383
  236MOL   H15047620   2.276   6.181   0.048  0.2246 -0.8523 -0.3410
  236MOL   H15147621   2.440   6.206   0.059  0.8132 -1.6301 -0.8249
  236MOL   C15247622   2.331   6.324   8.316 -0.2249  0.5667 -0.0895
  236MOL   C15347623   2.238   6.424   8.376  0.4139  0.0744 -0.6149
  236MOL  Cl15447624   2.281   6.460   0.119 -0.5077  0.5659 -0.2239
  236MOL   C15547625   2.139   6.486   8.312 -0.2955 -0.0253 -0.2948
  236MOL   C15647626   2.052   6.589   8.377  0.6683  0.1816 -0.0044
  236MOL   H15747627   2.425   6.376   8.295  0.4828 -1.3656 -1.8611
  236MOL   H15847628   2.293   6.300   8.217 -1.7588 -1.4114  0.9375
  236MOL   H15947629   2.124   6.473   8.206 -0.7498 -0.6172 -0.1653
  236MOL   H16047630   2.103   6.685   8.374  0.2775  0.3171 -4.1794
  236MOL   H16147631   2.037   6.571   0.063 -0.7810  0.2276 -0.1992
  236MOL   C16247632   1.924   6.615   8.305 -0.5438 -0.4502  0.7730
  236MOL   C16347633   1.837   6.708   8.383  0.5692 -0.3648 -0.5942
  236MOL  Cl16447634   1.829   6.869   8.321  0.2727 -0.1964  0.3231
  236MOL   C16547635   1.755   6.655   0.053  0.3110 -0.9353 -0.7088
  236MOL   C16647636   1.656   6.731   0.140 -0.1633  0.2764 -0.2479
  236MOL   H16747637   1.944   6.642   8.201  0.2028 -0.7281  0.8338
  236MOL   H16847638   1.873   6.519   8.291  0.7300 -1.0232 -0.1098
  236MOL   H16947639   1.769   6.551   0.078 -1.7481 -0.8210  1.0754
  236MOL   H17047640   1.646   6.835   0.108 -1.9773  0.2359  0.0922
  236MOL   H17147641   1.561   6.680   0.119  0.0976 -0.4013  0.1885
  236MOL   C17247642   1.685   6.717   0.290  0.4122 -0.5179 -0.1328
  236MOL   C17347643   1.555   6.764   0.369 -0.2072 -0.0080  0.6923
  236MOL  Cl17447644   1.575   6.917   0.445 -0.0566 -0.0549 -0.0966
  236MOL   C17547645   1.442   6.702   0.367  0.5120  0.1413  0.0011
  236MOL   C17647646   1.314   6.740   0.438  0.4000 -0.6498  0.1031
  236MOL   H17747647   1.772   6.772   0.327  1.6124 -1.3986 -1.5928
  236MOL   H17847648   1.711   6.616   0.324  3.9498  0.4917  0.3352
  236MOL   H17947649   1.431   6.606   0.318  1.1030 -0.3795  0.8811
  236MOL   H18047650   1.324   6.827   0.503 -0.5852 -1.2610  1.0805
  236MOL   H18147651   1.286   6.661   0.507 -1.7120 -0.0020  0.0129
  236MOL   C18247652   1.199   6.771   0.341 -0.5599 -1.0294  0.0870
  236MOL   C18347653   1.236   6.848   0.213 -0.3413  0.2662 -0.4154
  236MOL  Cl18447654   1.247   6.742   0.078  0.0575 -0.1535 -0.1559
  236MOL   C18547655   1.255   6.983   0.209  0.1381  0.1004  0.0479
  236MOL   C18647656   1.291   7.068   0.087 -0.1033 -0.0728 -0.1373
  236MOL   H18747657   1.144   6.683   0.309  0.0541 -0.6513 -2.1259
  236MOL   H18847658   1.136   6.835   0.402  1.5705 -0.8452  2.1451
  236MOL   H18947659   1.230   7.034   0.301 -2.3895 -1.4376  0.2632
  236MOL   H19047660   1.316   7.000   0.006  0.2926 -1.1024  0.8388
  236MOL   H19147661   1.215   7.138   0.054 -0.5871  0.3838  1.8777
  236MOL   C19247662   1.417   7.146   0.112 -0.4098  0.3109  0.1564
  236MOL   C19347663   1.492   7.204   8.421  0.1623 -0.2504  0.2164
  236MOL  Cl19447664   1.416   7.178   8.271 -0.4021  0.0583 -0.1274
  236MOL   C19547665   1.608   7.263   0.012  0.7361 -0.5097  0.4070
  236MOL   C19647666   1.684   7.278   0.140  0.0234  0.3294 -0.7770
  236MOL   H19747667   1.484   7.073   0.157 -2.8494 -1.3017  1.2662
  236MOL   H19847668   1.404   7.221   0.189 -1.5128  0.4084 -0.1140
  236MOL   H19947669   1.652   7.300   8.341 -2.0132  0.9853 -0.3605
  236MOL   H20047670   1.749   7.364   0.154  0.9647 -0.4021 -0.6396
  236MOL   H20147671   1.747   7.191   0.155 -1.2597 -0.4993 -0.0424
  236MOL   H20247672   1.619   7.275   0.227  0.6394  0.1940 -0.3205
  237MOL     C147673   7.493   0.307   8.236 -0.5218  0.4374  0.5963
  237MOL     C247674   7.640   0.300   8.210 -0.1688  0.1170 -0.6959
  237MOL    Cl347675   7.696   0.137   8.179  0.2009 -0.1431 -0.3103
  237MOL     C447676   7.724   0.397   8.237 -0.3922 -0.2728  0.5914
  237MOL     C547677   7.689   0.542   8.272 -0.4244 -0.4158 -0.7898
  237MOL     H647678   7.447   0.361   8.153  0.4223 -0.8057 -0.7506
  237MOL     H747679   7.455   0.353   8.328 -2.6566  1.0245 -0.5300
  237MOL     H847680   7.830   0.378   8.238 -0.5804 -1.5088 -0.9784
  237MOL     H947681   7.724   0.603   8.188  0.9358  0.2313  0.2222
  237MOL    H1047682   7.581   0.545   8.280 -0.4402 -0.0443 -1.1241
  237MOL    H1147683   7.451   0.206   8.233 -1.5727  0.8777  0.3807
  237MOL    C1247684   7.765   0.586   8.391  0.1987  0.6180  0.9740
  237MOL    C1347685   7.734   0.732   0.019 -0.0781  0.2542  0.7211
  237MOL   Cl1447686   7.766   0.849   8.319  0.4261 -0.2689  0.4852
  237MOL    C1547687   7.701   0.769   0.142  0.3289  0.1392  0.6068
  237MOL    C1647688   7.683   0.681   0.264  0.0433  0.1574 -0.5284
  237MOL    H1747689   7.731   0.509   0.039 -0.1175 -1.2363 -1.2083
  237MOL    H1847690   7.872   0.569   8.384 -0.1280 -2.2898  2.4365
  237MOL    H1947691   7.695   0.876   0.158 -1.0745  0.0521  0.6927
  237MOL    H2047692   7.581   0.648   0.282 -0.0248  1.5731  1.8398
  237MOL    H2147693   7.739   0.588   0.253 -0.7818 -0.3750 -0.2892
  237MOL    C2247694   7.755   0.756   0.378 -0.2259  0.0362  0.3744
  237MOL    C2347695   7.780   0.668   0.497 -0.1938 -0.5036  0.2152
  237MOL   Cl2447696   7.921   0.721   0.580 -0.0238  0.1918 -0.0748
  237MOL    C2547697   7.704   0.567   0.537  0.5303 -0.2729  0.5908
  237MOL    C2647698   7.719   0.489   0.664 -0.5774 -0.3280  0.2258
  237MOL    H2747699   7.855   0.781   0.342  0.4330 -3.2380 -0.2546
  237MOL    H2847700   7.715   0.851   0.412  0.0729  0.8944 -1.5942
  237MOL    H2947701   7.624   0.538   0.470  0.9873 -3.0190  1.1781
  237MOL    H3047702   7.745   0.386   0.640 -0.7061 -0.7781  1.9359
  237MOL    H3147703   7.801   0.532   0.723 -0.9144 -1.0485  1.2312
  237MOL    C3247704   7.598   0.500   0.751  1.0011 -0.7518  0.5951
  237MOL    C3347705   7.599   0.407   0.875 -0.8512 -0.1693  0.7562
  237MOL   Cl3447706   7.504   0.268   0.856  0.4241 -0.1254  0.4344
  237MOL    C3547707   7.644   0.453   0.993 -0.4152  0.5591 -0.0428
  237MOL    C3647708   7.640   0.391   1.129 -0.7839 -0.0955  0.5672
  237MOL    H3747709   7.584   0.601   0.789  3.0563  1.0426 -3.1577
  237MOL    H3847710   7.507   0.470   0.698  0.0676 -0.3075  1.9166
  237MOL    H3947711   7.689   0.551   0.986 -2.3943  1.5059  0.1326
  237MOL    H4047712   7.612   0.285   1.123 -0.1630 -0.4056  2.5955
  237MOL    H4147713   7.739   0.402   1.173 -0.7159  0.4855  0.2651
  237MOL    C4247714   7.546   0.477   1.218 -0.3216  0.1903 -0.1508
  237MOL    C4347715   7.404   0.497   1.176  0.6349 -0.1561  0.1793
  237MOL   Cl4447716   7.321   0.354   1.147 -0.3816  0.2598  0.2652
  237MOL    C4547717   7.342   0.614   1.152 -0.1039  0.7441  0.0351
  237MOL    C4647718   7.398   0.753   1.161  0.7612  0.5692  0.1427
  237MOL    H4747719   7.547   0.426   1.315  1.3464 -2.8014 -1.6556
  237MOL    H4847720   7.587   0.577   1.230 -0.2048  0.5377 -3.1357
  237MOL    H4947721   7.240   0.606   1.119  0.4382  0.3601 -1.5704
  237MOL    H5047722   7.506   0.763   1.178  0.8994 -0.0342 -0.3805
  237MOL    H5147723   7.382   0.801   1.065 -2.8580  1.4653  1.1192
  237MOL    C5247724   7.346   0.841   1.279  0.3351 -0.2016 -0.6239
  237MOL    C5347725   7.414   0.979   1.297  0.1724 -0.5802 -0.6776
  237MOL   Cl5447726   7.369   1.059   1.446 -0.1272 -0.2607  0.2765
  237MOL    C5547727   7.512   1.027   1.214 -0.6744  0.2256 -0.6361
  237MOL    C5647728   7.588   1.152   1.229 -0.3504  0.6316  0.1884
  237MOL    H5747729   7.241   0.861   1.257  0.2640  1.7281  1.2744
  237MOL    H5847730   7.367   0.787   1.371  2.2292  1.6819  0.0767
  237MOL    H5947731   7.541   0.973   1.126  1.4244  1.2860 -0.6285
  237MOL    H6047732   7.603   1.209   1.138  1.3282 -1.0394 -0.6194
  237MOL    H6147733   7.538   1.223   1.295 -0.0265  1.6193 -0.6180
  237MOL    C6247734   7.719   1.115   1.288 -0.6358  0.3217 -0.2342
  237MOL    C6347735   7.797   1.241   1.308  1.7931 -0.2657 -0.2017
  237MOL   Cl6447736   7.928   1.271   1.190 -0.1121  0.0336  0.1666
  237MOL    C6547737   7.776   1.324   1.409  0.2161  0.2768  0.9000
  237MOL    C6647738   7.856   1.446   1.441  0.5713 -0.0634  0.1128
  237MOL    H6747739   7.700   1.067   1.384 -5.5992 -3.7469 -2.9706
  237MOL    H6847740   7.777   1.049   1.223  0.4411  0.8498  0.1758
  237MOL    H6947741   7.692   1.306   1.475  0.2738 -5.2356 -0.2946
  237MOL    H7047742   7.784   1.516   1.483  1.3849 -0.3130  1.9772
  237MOL    H7147743   7.897   1.493   1.352 -1.6548  1.9382  0.1145
  237MOL    C7247744   7.972   1.421   1.543  0.3933  0.2995 -0.1379
  237MOL    C7347745   8.054   1.543   1.560 -0.1128 -0.4688  0.0901
  237MOL   Cl7447746   8.030   1.634   1.701 -0.4219  0.3554 -0.1135
  237MOL    C7547747   8.144   1.583   1.467 -0.7976 -0.6416 -0.2879
  237MOL    C7647748   8.242   1.699   1.491  0.0087 -0.2170  0.3124
  237MOL    H7747749   8.030   1.338   1.504 -0.0072  0.8787 -2.0436
  237MOL    H7847750   7.933   1.403   1.643  3.7320 -0.3981  1.0993
  237MOL    H7947751   8.155   1.520   1.381  1.4365 -0.6447 -0.0239
  237MOL    H8047752   8.201   1.778   1.553  0.7855  0.6208 -0.2329
  237MOL    H8147753   8.257   1.750   1.396 -2.2876 -1.0130 -0.5074
  237MOL    C8247754   8.376   1.657   1.552 -0.2183  0.1920 -0.5865
  237MOL    C8347755   0.040   1.564   1.456 -0.4890  0.0781 -0.0866
  237MOL   Cl8447756   0.112   1.427   1.539  0.0467  0.3129 -0.1849
  237MOL    C8547757   0.056   1.583   1.327  0.5615 -0.1071  0.2618
  237MOL    C8647758   0.138   1.492   1.238 -0.1057  0.0295  0.2723
  237MOL    H8747759   8.370   1.606   1.647  4.3923  2.1530  0.9069
  237MOL    H8847760   0.008   1.753   1.556  1.3331 -0.4581 -3.7098
  237MOL    H8947761   0.013   1.664   1.270  1.7185 -0.0163 -0.4909
  237MOL    H9047762   0.236   1.532   1.210 -0.2133 -1.1579 -1.9208
  237MOL    H9147763   0.162   1.402   1.295  0.0123  1.1406  2.0237
  237MOL    C9247764   0.069   1.463   1.096 -0.2259 -0.7268 -0.8348
  237MOL    C9347765   0.163   1.392   1.001  0.5928 -0.2223  0.6401
  237MOL   Cl9447766   0.136   1.216   1.000 -0.3546  0.3539  0.2207
  237MOL    C9547767   0.242   1.455   0.913 -0.2055  0.0458 -0.5563
  237MOL    C9647768   0.270   1.601   0.897  1.0802 -0.7168  0.0950
  237MOL    H9747769   0.033   1.555   1.051  0.1658  0.9834  2.2274
  237MOL    H9847770   8.403   1.401   1.115 -2.0227  1.4939 -1.6117
  237MOL    H9947771   0.306   1.397   0.849 -0.0035 -1.1051  0.6560
  237MOL   H10047772   0.259   1.624   0.791 -0.9072  1.2701  0.6913
  237MOL   H10147773   0.190   1.654   0.948  1.3277  0.5177 -0.7787
  237MOL   C10247774   0.389   1.659   0.976 -0.7445  0.5736  0.1666
  237MOL   C10347775   0.381   1.807   1.000  0.3331  0.0834  0.3370
  237MOL  Cl10447776   0.487   1.901   0.908 -0.0688 -0.3652 -0.0090
  237MOL   C10547777   0.293   1.854   1.090  0.0276 -0.3349 -0.3114
  237MOL   C10647778   0.269   2.000   1.137 -0.3941 -0.0776 -0.2939
  237MOL   H10747779   0.416   1.605   1.066  2.6410  1.9236  0.0590
  237MOL   H10847780   0.481   1.643   0.920  0.0713  1.9123  1.0813
  237MOL   H10947781   0.222   1.790   1.141  0.7228 -0.2124  0.8147
  237MOL   H11047782   0.278   1.982   1.244  1.2525 -1.9954 -0.7219
  237MOL   H11147783   0.347   2.067   1.101 -0.0821 -0.0045  0.5163
  237MOL   C11247784   0.127   2.043   1.108  0.4277 -1.1704  0.0883
  237MOL   C11347785   0.090   2.190   1.142 -0.0604  0.2559  0.1012
  237MOL  Cl11447786   0.135   2.301   1.014  0.3187  0.2687  0.0298
  237MOL   C11547787   0.037   2.234   1.259  0.1427 -0.6981 -0.2162
  237MOL   C11647788   0.018   2.146   1.379  0.0812  0.4503 -0.4937
  237MOL   H11747789   0.116   2.030   1.000  1.4168 -0.1818 -0.1375
  237MOL   H11847790   0.050   1.975   1.144 -0.6763 -1.0390 -1.9410
  237MOL   H11947791   0.012   2.339   1.262 -1.5338 -1.0545 -1.6073
  237MOL   H12047792   0.028   2.041   1.352  0.7808  0.5787 -0.7352
  237MOL   H12147793   8.340   2.157   1.425 -0.4851 -3.7142 -0.5121
  237MOL   C12247794   0.125   2.189   1.487 -0.1964  0.5871 -0.7178
  237MOL   C12347795   0.115   2.110   1.616 -0.4333  0.6949 -0.0867
  237MOL  Cl12447796   0.222   1.979   1.617  0.1847 -0.2044 -0.3372
  237MOL   C12547797   0.059   2.159   1.730  0.9141  0.7477 -0.5525
  237MOL   C12647798   8.401   2.288   1.747 -0.2712  0.3255 -0.5791
  237MOL   H12747799   0.227   2.167   1.456 -0.7482 -1.1582 -1.3437
  237MOL   H12847800   0.126   2.297   1.497  0.4560  0.7806 -2.6651
  237MOL   H12947801   0.073   2.103   1.821  0.7878 -1.0840 -1.6426
  237MOL   H13047802   0.033   2.363   1.807 -1.8017  0.4003  0.7371
  237MOL   H13147803   8.392   2.327   1.646  1.3033  0.6922 -0.5827
  237MOL   C13247804   8.253   2.265   1.800  0.6262 -0.0649 -1.1027
  237MOL   C13347805   8.195   2.404   1.841 -0.1027 -0.0000 -0.2575
  237MOL  Cl13447806   8.247   2.447   1.999  0.4788 -0.3377 -0.3747
  237MOL   C13547807   8.126   2.492   1.769  0.3589 -0.3102 -0.2880
  237MOL   C13647808   8.066   2.459   1.633  0.1774  0.2288 -0.1319
  237MOL   H13747809   8.187   2.209   1.734 -1.5764 -1.5153  2.1950
  237MOL   H13847810   8.256   2.205   1.891  1.0213 -0.5550 -1.4365
  237MOL   H13947811   8.103   2.585   1.819 -0.2217 -0.0526 -1.0436
  237MOL   H14047812   8.095   2.539   1.564 -0.1956  0.3505 -0.1455
  237MOL   H14147813   8.109   2.367   1.594 -0.4838  0.1230 -0.6166
  237MOL   C14247814   7.908   2.459   1.646 -0.0440  0.1590 -0.1132
  237MOL   C14347815   7.844   2.478   1.509  0.1381  0.1672 -0.6524
  237MOL  Cl14447816   7.787   2.635   1.477  0.2161  0.3939  0.4263
  237MOL   C14547817   7.822   2.373   1.428  0.0856 -0.2475 -0.2042
  237MOL   C14647818   7.748   2.361   1.296  0.2977 -0.1757 -0.2801
  237MOL   H14747819   7.880   2.543   1.711  3.1043  1.1616  0.0465
  237MOL   H14847820   7.872   2.375   1.706 -3.4601 -0.7944 -3.2891
  237MOL   H14947821   7.864   2.280   1.464  0.6980  0.6029  1.3084
  237MOL   H15047822   7.687   2.448   1.274 -0.2956 -0.5348 -0.0582
  237MOL   H15147823   7.812   2.340   1.210  0.3442 -1.2145  0.0004
  237MOL   C15247824   7.638   2.255   1.304  0.2533  0.2448 -0.4072
  237MOL   C15347825   7.576   2.256   1.166  0.3973  0.3636  0.0799
  237MOL  Cl15447826   7.646   2.128   1.066  0.2512 -0.4704 -0.0036
  237MOL   C15547827   7.480   2.346   1.129 -0.3685 -0.3548  0.3029
  237MOL   C15647828   7.429   2.356   0.989 -0.3548 -0.5766 -0.3594
  237MOL   H15747829   7.671   2.155   1.332 -1.1502 -0.1049  0.0337
  237MOL   H15847830   7.564   2.278   1.379  1.6144 -0.6685  1.2555
  237MOL   H15947831   7.440   2.419   1.198 -0.5741  1.2557 -1.4872
  237MOL   H16047832   7.486   2.288   0.926 -2.1831 -1.6072 -0.9213
  237MOL   H16147833   7.464   2.452   0.949  2.5106 -2.3451 -2.2792
  237MOL   C16247834   7.279   2.340   0.971 -0.5624  0.3783  0.5828
  237MOL   C16347835   7.235   2.364   0.828 -0.3949  0.3913 -0.9638
  237MOL  Cl16447836   7.152   2.232   0.759 -0.1487 -0.2172  0.0295
  237MOL   C16547837   7.255   2.472   0.753 -0.2552 -0.1721  0.0940
  237MOL   C16647838   7.218   2.491   0.610  0.2547 -0.5356 -0.3703
  237MOL   H16747839   7.260   2.240   1.010  1.1785  0.4214  1.5780
  237MOL   H16847840   7.223   2.400   1.043 -1.0452  0.6334 -0.0079
  237MOL   H16947841   7.310   2.555   0.796  0.9874 -1.4422  1.0035
  237MOL   H17047842   7.305   2.537   0.563 -0.2823  2.8544  1.7487
  237MOL   H17147843   7.207   2.397   0.557  1.5555 -1.5002  1.0093
  237MOL   C17247844   7.097   2.582   0.580 -0.5567 -0.0078 -0.3062
  237MOL   C17347845   7.068   2.615   0.434 -0.3143  0.1969 -0.3194
  237MOL  Cl17447846   6.922   2.705   0.439 -0.0356 -0.0243  0.3176
  237MOL   C17547847   7.136   2.584   0.319 -0.3025  0.4814  0.8597
  237MOL   C17647848   7.089   2.619   0.178 -0.0729  0.1799 -0.4699
  237MOL   H17747849   7.103   2.675   0.637  2.0785 -0.4367  0.1732
  237MOL   H17847850   7.010   2.519   0.600 -1.0819  0.8111  0.0403
  237MOL   H17947851   7.229   2.529   0.315  0.4954  1.8707 -0.3665
  237MOL   H18047852   7.040   2.717   0.171 -3.5097 -1.5046 -1.1238
  237MOL   H18147853   7.028   2.540   0.134 -1.2428 -0.0107  1.4294
  237MOL   C18247854   7.210   2.625   0.079  0.1108  0.0331 -0.1066
  237MOL   C18347855   7.152   2.652   8.360  0.6882  0.7035 -0.3904
  237MOL  Cl18447856   7.165   2.511   8.261  0.1840 -0.0465 -0.0786
  237MOL   C18547857   7.092   2.767   8.328 -0.1455  0.5131 -0.3829
  237MOL   C18647858   7.024   2.806   8.205  0.1267  0.2979 -1.0525
  237MOL   H18747859   7.274   2.711   0.098 -0.2114  0.4971 -1.0842
  237MOL   H18847860   7.260   2.528   0.080  2.3768  1.1391 -0.6842
  237MOL   H18947861   7.096   2.833   8.413  0.0397 -0.5332  0.4362
  237MOL   H19047862   7.019   2.726   8.132 -1.9176 -0.3673 -0.2034
  237MOL   H19147863   6.921   2.834   8.228  0.1048  0.9463 -1.9353
  237MOL   C19247864   7.096   2.924   8.140 -0.2730 -0.1332  0.3652
  237MOL   C19347865   7.013   2.987   8.030 -0.1151 -0.3736 -0.1706
  237MOL  Cl19447866   6.932   3.128   8.094 -0.1561  0.4031 -0.1784
  237MOL   C19547867   6.979   2.919   7.917 -0.3571 -0.5565  0.0128
  237MOL   C19647868   7.022   2.780   7.857  0.7740  0.6236 -0.0291
  237MOL   H19747869   7.194   2.886   8.113 -0.9874 -2.0238  0.3363
  237MOL   H19847870   7.129   2.992   8.218  0.1305 -0.7493  0.7407
  237MOL   H19947871   6.912   2.965   7.845 -0.1730  0.2281  0.3371
  237MOL   H20047872   7.067   2.795   7.759  1.5052 -2.0516 -0.1572
  237MOL   H20147873   6.934   2.718   7.841 -0.7226  3.0515 -1.4825
  237MOL   H20247874   7.097   2.720   7.908 -1.0171 -2.8672 -1.3347
  238MOL     C147875   3.190   6.671   2.017  0.7319 -0.2753  0.4033
  238MOL     C247876   3.075   6.753   2.074 -0.3478  0.2063  0.3351
  238MOL    Cl347877   3.124   6.842   2.212  0.2246 -0.3338  0.0381
  238MOL     C447878   2.949   6.750   2.037 -0.2087  0.2368  0.1726
  238MOL     C547879   2.895   6.656   1.929  0.0321  0.2618  0.7204
  238MOL     H647880   3.220   6.702   1.917  0.1506  0.4949  0.4607
  238MOL     H747881   3.165   6.565   2.015 -1.7637  0.3076 -1.0257
  238MOL     H847882   2.871   6.806   2.087  0.3411  1.1047  0.0730
  238MOL     H947883   2.977   6.603   1.882  0.2280  1.1249  0.0784
  238MOL    H1047884   2.832   6.583   1.980 -1.9199  1.8210  0.6420
  238MOL    H1147885   3.276   6.688   2.083  0.9544  0.1664  0.0065
  238MOL    C1247886   2.812   6.728   1.821  0.1424 -0.7162 -0.2353
  238MOL    C1347887   2.776   6.639   1.704  0.3384 -0.3111 -0.0847
  238MOL   Cl1447888   2.902   6.635   1.590  0.0188  0.2867 -0.3146
  238MOL    C1547889   2.667   6.553   1.691 -0.3724 -0.1425  0.1541
  238MOL    C1647890   2.548   6.549   1.788 -0.2968 -0.1316  0.7184
  238MOL    H1747891   2.725   6.765   1.875 -0.8339 -1.5245 -1.2206
  238MOL    H1847892   2.872   6.815   1.792 -1.2351  0.1992 -0.3890
  238MOL    H1947893   2.661   6.482   1.610  0.9226 -0.9241  0.7323
  238MOL    H2047894   2.546   6.634   1.855 -2.8509  1.6803 -1.5204
  238MOL    H2147895   2.476   6.567   1.708  1.1191  1.2868 -0.2661
  238MOL    C2247896   2.539   6.413   1.857 -0.0067  0.2702 -0.2577
  238MOL    C2347897   2.398   6.364   1.895 -0.0137 -0.5492 -1.2549
  238MOL   Cl2447898   2.363   6.393   2.066  0.0440  0.0644  0.1204
  238MOL    C2547899   2.304   6.308   1.809 -0.0776 -0.7069  0.6160
  238MOL    C2647900   2.163   6.261   1.843  0.5492 -0.6763 -0.1883
  238MOL    H2747901   2.581   6.338   1.789 -3.1392 -1.3549 -0.5456
  238MOL    H2847902   2.600   6.407   1.946  1.2564 -0.1101 -1.1372
  238MOL    H2947903   2.335   6.297   1.706 -1.3382 -1.3684  0.3085
  238MOL    H3047904   2.156   6.155   1.816  1.1530 -0.9634  0.7535
  238MOL    H3147905   2.146   6.266   1.951  1.2451 -0.9353 -0.0657
  238MOL    C3247906   2.070   6.347   1.757 -0.2586  0.6645 -0.1465
  238MOL    C3347907   1.931   6.296   1.769 -0.1261  0.0823  1.0150
  238MOL   Cl3447908   1.826   6.406   1.846 -0.1551  0.3192 -0.5238
  238MOL    C3547909   1.895   6.170   1.732  1.3356  0.2351  0.4940
  238MOL    C3647910   1.754   6.106   1.756 -0.3852 -0.0655  0.0228
  238MOL    H3747911   2.065   6.450   1.792 -4.0769 -0.0264  1.6835
  238MOL    H3847912   2.098   6.333   1.653 -0.5823  0.7373 -0.2464
  238MOL    H3947913   1.975   6.116   1.685  0.2054 -0.8650 -0.1897
  238MOL    H4047914   1.692   6.155   1.831  0.2540 -0.0378  0.5352
  238MOL    H4147915   1.701   6.102   1.661 -0.5323 -0.5587  0.1244
  238MOL    C4247916   1.764   5.974   1.829  0.2778  0.4955  0.1825
  238MOL    C4347917   1.632   5.901   1.861  0.4695 -0.0245  0.0093
  238MOL   Cl4447918   1.621   5.755   1.774  0.2500  0.1541  0.2637
  238MOL    C4547919   1.540   5.924   1.953  0.6420  0.1399 -0.2196
  238MOL    C4647920   1.543   6.040   2.052 -0.1073  0.1247 -0.0318
  238MOL    H4747921   1.821   5.899   1.774 -1.3627 -1.0378  0.5385
  238MOL    H4847922   1.816   5.985   1.924  3.6488 -0.0762 -1.5250
  238MOL    H4947923   1.463   5.849   1.960  0.1156  0.4898 -2.0457
  238MOL    H5047924   1.518   5.991   2.146 -0.6174  0.4808  0.0221
  238MOL    H5147925   1.642   6.085   2.050  0.2451 -0.6814 -3.1277
  238MOL    C5247926   1.443   6.150   2.005 -0.3850  0.3516 -0.3024
  238MOL    C5347927   1.430   6.259   2.108  0.2521  0.0296 -0.1255
  238MOL   Cl5447928   1.290   6.255   2.204 -0.5003 -0.3982  0.1914
  238MOL    C5547929   1.529   6.346   2.129 -0.4642 -0.4326  0.0878
  238MOL    C5647930   1.532   6.448   2.243  0.3732 -0.2899 -0.1481
  238MOL    H5747931   1.488   6.198   1.919  0.8214  0.6135  0.4653
  238MOL    H5847932   1.342   6.115   1.985  0.2360 -1.5427 -0.1677
  238MOL    H5947933   1.614   6.342   2.063 -0.5325 -1.2421  0.0485
  238MOL    H6047934   1.431   6.474   2.272  0.9521  0.2075  1.4418
  238MOL    H6147935   1.580   6.407   2.332  2.7221  2.9016  0.1350
  238MOL    C6247936   1.623   6.572   2.225 -0.5034  0.2932  1.0587
  238MOL    C6347937   1.574   6.664   2.124 -0.3486  0.1149 -0.4683
  238MOL   Cl6447938   1.432   6.748   2.178 -0.6064 -0.2957  0.2928
  238MOL    C6547939   1.639   6.693   2.011  0.4919 -0.2747 -0.0755
  238MOL    C6647940   1.586   6.786   1.901  0.6780  0.3854 -0.3958
  238MOL    H6747941   1.605   6.630   2.315  0.3720 -1.3025  2.2797
  238MOL    H6847942   1.730   6.549   2.231 -0.8201 -1.4661  0.3625
  238MOL    H6947943   1.734   6.647   1.991 -0.6231 -4.2660  3.0229
  238MOL    H7047944   1.554   6.877   1.950 -1.5661 -2.2727  3.2963
  238MOL    H7147945   1.490   6.747   1.868 -0.2964  2.6793 -0.3370
  238MOL    C7247946   1.685   6.802   1.790 -0.1514 -0.1353  0.4094
  238MOL    C7347947   1.638   6.905   1.681  0.1490 -0.1527 -0.3471
  238MOL   Cl7447948   1.679   6.843   1.521 -0.2984  0.3552  0.1048
  238MOL    C7547949   1.562   7.016   1.701 -0.3031 -0.6197 -0.3336
  238MOL    C7647950   1.518   7.110   1.592 -0.2270  0.2642  0.1642
  238MOL    H7747951   1.697   6.708   1.737  0.6380 -0.4132  1.0686
  238MOL    H7847952   1.779   6.832   1.838 -0.2049 -0.3997  0.6782
  238MOL    H7947953   1.531   7.039   1.801 -0.7935 -0.2264 -0.5714
  238MOL    H8047954   1.414   7.135   1.613 -0.3092 -1.5698  2.1125
  238MOL    H8147955   1.515   7.055   1.497 -1.8436  1.9959 -0.8259
  238MOL    C8247956   1.605   7.234   1.583  0.0119  0.9331  0.4152
  238MOL    C8347957   1.728   7.226   1.486 -0.2478  0.3771  0.3417
  238MOL   Cl8447958   1.688   7.297   1.333  0.2538 -0.0698  0.3550
  238MOL    C8547959   1.856   7.197   1.516 -0.0205 -0.0476 -0.3545
  238MOL    C8647960   1.978   7.218   1.429 -0.1479  0.2269 -0.3050
  238MOL    H8747961   1.636   7.268   1.682 -0.8127  3.9108 -0.3038
  238MOL    H8847962   1.541   7.315   1.547 -0.4116  0.9630  1.2142
  238MOL    H8947963   1.880   7.157   1.614 -0.4567  0.8170  0.1051
  238MOL    H9047964   1.958   7.230   1.322  0.6795  1.5974 -0.3150
  238MOL    H9147965   2.034   7.304   1.467 -1.7144  1.4617 -0.7155
  238MOL    C9247966   2.072   7.097   1.423 -0.1007 -0.1039 -0.9297
  238MOL    C9347967   2.117   7.050   1.563 -0.4678 -0.2675  0.4557
  238MOL   Cl9447968   2.041   6.907   1.623  0.3305 -0.2268  0.1211
  238MOL    C9547969   2.223   7.098   1.633 -0.4621 -0.5098  0.3680
  238MOL    C9647970   2.304   7.213   1.585 -0.2527 -0.4614 -0.6353
  238MOL    H9747971   2.160   7.115   1.362  2.1150  1.3570  2.5544
  238MOL    H9847972   2.014   7.018   1.376 -0.4626 -0.6959  0.4771
  238MOL    H9947973   2.259   7.049   1.722  1.2985  1.3742  0.7285
  238MOL   H10047974   2.409   7.186   1.589  0.1115  0.7474 -1.8491
  238MOL   H10147975   2.286   7.231   1.479 -0.2461  1.0018 -0.4009
  238MOL   C10247976   2.275   7.343   1.666  1.1192  0.3859 -0.4831
  238MOL   C10347977   2.360   7.452   1.606 -0.6067 -0.9161 -0.3642
  238MOL  Cl10447978   2.515   7.481   1.695 -0.2734  0.0656 -0.4601
  238MOL   C10547979   2.326   7.519   1.495 -0.1879 -0.4375 -0.2122
  238MOL   C10647980   2.411   7.613   1.414  0.2507  0.6338 -0.0589
  238MOL   H10747981   2.172   7.375   1.650  0.9517 -0.2828 -0.7340
  238MOL   H10847982   2.279   7.331   1.774  0.7536 -0.2851 -0.5424
  238MOL   H10947983   2.227   7.495   1.462  0.4292 -1.4735 -1.3302
  238MOL   H11047984   2.369   7.713   1.415  2.7962  1.7614 -1.1907
  238MOL   H11147985   2.505   7.612   1.470  0.5471 -1.9538 -0.5083
  238MOL   C11247986   2.436   7.554   1.275 -0.4939  0.8181  0.4062
  238MOL   C11347987   2.321   7.579   1.174  0.4725  0.7094 -0.5202
  238MOL  Cl11447988   2.230   7.435   1.148 -0.0558  0.1943 -0.5299
  238MOL   C11547989   2.297   7.689   1.105 -0.5650  0.2638  0.4428
  238MOL   C11647990   2.371   7.821   1.124 -0.0043  0.1324  0.7698
  238MOL   H11747991   2.534   7.583   1.238 -0.5745 -1.2549 -1.5426
  238MOL   H11847992   2.451   7.447   1.287 -0.2705  0.8428  0.3445
  238MOL   H11947993   2.213   7.680   1.038 -1.0848  0.3126  1.0903
  238MOL   H12047994   2.428   7.838   1.033  1.3511 -2.3537  1.1073
  238MOL   H12147995   2.441   7.810   1.207 -0.2891  2.3531  1.3389
  238MOL   C12247996   2.275   7.934   1.152 -0.3651  0.3876  0.0039
  238MOL   C12347997   2.308   8.060   1.066 -0.3208  0.6797 -0.0432
  238MOL  Cl12447998   2.413   8.172   1.155  0.2204 -0.0646 -0.0145
  238MOL   C12547999   2.262   8.085   0.939  0.2040  0.0760 -0.4451
  238MOL   C12648000   2.164   7.997   0.862 -0.0303 -0.0322 -0.4066
  238MOL   H12748001   2.173   7.908   1.124 -1.0103  1.2403  1.5340
  238MOL   H12848002   2.271   7.971   1.254  0.0284 -0.6208  0.3964
  238MOL   H12948003   2.290   8.172   0.881  0.2854  2.2588  2.7250
  238MOL   H13048004   2.126   7.920   0.929 -1.9107  0.6032 -0.7274
  238MOL   H13148005   2.079   8.062   0.844 -0.1881 -0.3106 -0.6775
  238MOL   C13248006   2.199   7.951   0.724 -0.5685  0.5138 -0.6606
  238MOL   C13348007   2.311   7.846   0.722  0.1352 -0.3882 -0.2176
  238MOL  Cl13448008   2.251   7.682   0.735  0.1932  0.0803  0.2133
  238MOL   C13548009   2.441   7.878   0.692  0.8098 -0.0717 -0.4460
  238MOL   C13648010   2.476   8.012   0.657 -0.1940  0.1987  0.8335
  238MOL   H13748011   2.107   7.906   0.686 -0.5286  1.1751 -1.5534
  238MOL   H13848012   2.200   8.034   0.653 -2.8744  1.2606  0.1316
  238MOL   H13948013   2.524   7.809   0.695  0.2866 -0.7807 -1.6982
  238MOL   H14048014   2.400   8.082   0.692  0.0789  1.7415 -1.5670
  238MOL   H14148015   2.562   8.030   0.722  0.8496  2.5832 -1.0943
  238MOL   C14248016   2.504   8.033   0.507 -0.3092  0.2971  0.5547
  238MOL   C14348017   2.618   7.954   0.453 -0.2651 -0.1689  0.5309
  238MOL  Cl14448018   2.545   7.818   0.372 -0.0065  0.6768  0.1429
  238MOL   C14548019   2.748   7.993   0.448 -0.1547 -0.3250 -0.3347
  238MOL   C14648020   2.861   7.931   0.380 -1.1126  0.7539 -0.2040
  238MOL   H14748021   2.524   8.139   0.492 -0.3623  0.3932  1.1455
  238MOL   H14848022   2.420   8.019   0.440 -0.1954  1.3416  0.1875
  238MOL   H14948023   2.773   8.086   0.496 -1.7988 -0.1753  0.2821
  238MOL   H15048024   2.897   7.850   0.443 -1.4969  0.1031 -0.8099
  238MOL   H15148025   2.824   7.888   0.287 -2.7748 -2.0048  1.6568
  238MOL   C15248026   2.977   8.033   0.356 -0.1019  0.3450 -1.0508
  238MOL   C15348027   3.105   7.961   0.313  0.5010  0.3462  0.4253
  238MOL  Cl15448028   3.242   8.019   0.404 -0.3092 -0.1949 -0.3788
  238MOL   C15548029   3.115   7.864   0.222  0.6089  0.9817  0.3928
  238MOL   C15648030   3.249   7.796   0.193 -0.2778 -0.1409  0.3165
  238MOL   H15748031   2.951   8.117   0.291 -0.1170  0.6621 -0.6386
  238MOL   H15848032   2.999   8.089   0.446 -0.8984 -0.4193 -0.3737
  238MOL   H15948033   3.027   7.837   0.166 -0.5738 -1.2312  3.1677
  238MOL   H16048034   3.291   7.741   0.277  1.9030 -0.4598 -0.9575
  238MOL   H16148035   3.308   7.886   0.175  0.1823 -0.5876 -0.4486
  238MOL   C16248036   3.255   7.730   0.054  0.4666  0.6933 -0.0844
  238MOL   C16348037   3.232   7.579   0.057  0.5709 -0.3104 -0.4510
  238MOL  Cl16448038   3.271   7.511   8.326 -0.2863  0.5161  0.2631
  238MOL   C16548039   3.206   7.501   0.166 -0.4267  0.0844 -0.2775
  238MOL   C16648040   3.212   7.354   0.180  0.4138  0.6242 -0.2037
  238MOL   H16748041   3.185   7.775   8.405  0.7556 -0.5470 -1.2072
  238MOL   H16848042   3.361   7.730   0.027  0.5151 -1.4536 -0.0315
  238MOL   H16948043   3.176   7.539   0.263 -3.0793  1.5473 -1.5996
  238MOL   H17048044   3.157   7.316   0.266  2.6793 -0.9018  0.6082
  238MOL   H17148045   3.158   7.311   0.095 -0.4908 -1.0959  1.2000
  238MOL   C17248046   3.355   7.296   0.175 -0.7800 -0.1378 -0.1654
  238MOL   C17348047   3.359   7.146   0.151  0.0608  0.5955 -0.3632
  238MOL  Cl17448048   3.419   7.066   0.293  0.0704 -0.2357 -0.1118
  238MOL   C17548049   3.330   7.079   0.038 -0.3468 -0.5524 -0.2428
  238MOL   C17648050   3.365   6.935   0.013  0.6949  0.1694  0.3051
  238MOL   H17748051   3.396   7.313   0.275 -0.1959 -0.2964 -0.3799
  238MOL   H17848052   3.425   7.338   0.104  0.0786 -2.6854 -0.8714
  238MOL   H17948053   3.298   7.145   8.379  1.2528  1.3446  0.6224
  238MOL   H18048054   3.379   6.882   0.107 -1.3772  0.0038  0.5382
  238MOL   H18148055   3.456   6.929   8.373  0.3095  2.0984 -0.5058
  238MOL   C18248056   3.242   6.864   8.368  0.2167 -0.0098  0.1504
  238MOL   C18348057   3.269   6.731   8.300 -0.0363  0.3113  0.0495
  238MOL  Cl18448058   3.146   6.618   8.334  0.0547  0.1791 -0.2639
  238MOL   C18548059   3.374   6.695   8.224 -0.1351  0.0369  0.3246
  238MOL   C18648060   3.389   6.557   8.156  0.0319  0.0973 -0.0766
  238MOL   H18748061   3.173   6.826   0.023  0.2817  1.3466  0.9028
  238MOL   H18848062   3.183   6.929   8.303  0.8334  0.1544 -0.2479
  238MOL   H18948063   3.455   6.762   8.199  1.1831 -1.3628  0.7165
  238MOL   H19048064   3.306   6.491   8.177  1.3365 -1.2569  1.0057
  238MOL   H19148065   3.380   6.561   8.048  1.0711 -0.8386 -0.2045
  238MOL   C19248066   3.524   6.487   8.188 -0.3267  0.4961 -0.6228
  238MOL   C19348067   3.528   6.341   8.145 -0.2058 -0.4253 -0.0460
  238MOL  Cl19448068   3.562   6.318   7.972 -0.0430 -0.4718  0.1467
  238MOL   C19548069   3.535   6.236   8.231  0.0838 -0.5338  0.3023
  238MOL   C19648070   3.530   6.251   8.382 -0.0419  0.3607 -0.5663
  238MOL   H19748071   3.553   6.496   8.293 -4.8746  0.6759  0.7251
  238MOL   H19848072   3.592   6.548   8.128  0.0430  1.4056  0.7115
  238MOL   H19948073   3.551   6.134   8.200  0.2249  0.0314 -1.5397
  238MOL   H20048074   3.467   6.173   0.005  0.4730  1.2007  1.7389
  238MOL   H20148075   3.488   6.344   8.419  1.3341  1.3467 -1.4114
  238MOL   H20248076   3.622   6.261   0.020  1.3973 -1.6551 -2.3866
  239MOL     C148077   5.451   2.367   5.683 -0.1095  0.0272  0.0117
  239MOL     C248078   5.568   2.333   5.587 -0.4282  1.0070 -0.1645
  239MOL    Cl348079   5.593   2.168   5.566  0.0612  0.2082  0.3950
  239MOL     C448080   5.618   2.417   5.500  0.3106  0.5160 -0.0901
  239MOL     C548081   5.584   2.570   5.498 -0.3767  0.2327  0.2433
  239MOL     H648082   5.477   2.457   5.739 -0.6134  0.8545 -1.0693
  239MOL     H748083   5.425   2.285   5.751 -1.4203  0.2779 -0.1636
  239MOL     H848084   5.695   2.379   5.434  0.4269  1.5956 -0.5864
  239MOL     H948085   5.588   2.605   5.602  0.9815 -1.4534  0.7809
  239MOL    H1048086   5.676   2.604   5.451 -1.4718  1.1259 -1.3054
  239MOL    H1148087   5.357   2.375   5.629  0.5822  0.0757 -1.1965
  239MOL    C1248088   5.446   2.602   5.431  0.4796 -0.1530  0.1894
  239MOL    C1348089   5.460   2.591   5.285  0.0676  0.2071 -0.2986
  239MOL   Cl1448090   5.437   2.428   5.218 -0.3445  0.3695  0.0556
  239MOL    C1548091   5.491   2.690   5.203 -0.7653  0.5550 -0.4049
  239MOL    C1648092   5.513   2.839   5.236  0.7098  0.1999 -0.0788
  239MOL    H1748093   5.371   2.527   5.453 -0.7111  0.8463 -0.4291
  239MOL    H1848094   5.407   2.698   5.465 -2.1760 -0.5776 -1.5629
  239MOL    H1948095   5.496   2.670   5.097 -0.3684 -1.2414 -0.0479
  239MOL    H2048096   5.520   2.859   5.343  2.7037 -1.4009  0.1188
  239MOL    H2148097   5.608   2.862   5.189  0.1307 -1.1071 -1.9397
  239MOL    C2248098   5.394   2.927   5.181 -0.4211 -0.0933 -0.1808
  239MOL    C2348099   5.414   3.076   5.216 -0.2374  0.6501  0.0155
  239MOL   Cl2448100   5.280   3.167   5.152 -0.1985 -0.4219 -0.1493
  239MOL    C2548101   5.512   3.125   5.296 -0.4929  0.3772 -0.2166
  239MOL    C2648102   5.529   3.270   5.340  0.5902  0.0963 -0.4399
  239MOL    H2748103   5.378   2.918   5.074 -2.0098 -2.2243  0.1976
  239MOL    H2848104   5.302   2.898   5.232  0.4210 -1.6122  0.5097
  239MOL    H2948105   5.589   3.067   5.343  1.4874  2.9904 -0.1243
  239MOL    H3048106   5.623   3.293   5.288  1.6132  0.6266  1.5742
  239MOL    H3148107   5.450   3.332   5.299  0.9150  2.6154  2.5764
  239MOL    C3248108   5.523   3.284   5.490 -0.1129  0.5671 -0.0765
  239MOL    C3348109   5.567   3.424   5.533  0.0751 -0.0196 -0.2915
  239MOL   Cl3448110   5.436   3.502   5.620  0.3893 -0.0637 -0.1915
  239MOL    C3548111   5.686   3.480   5.505  0.1945  0.0078 -0.5174
  239MOL    C3648112   5.741   3.614   5.543 -0.2089 -0.0758  0.4718
  239MOL    H3748113   5.419   3.265   5.515  0.1276  1.2117  1.4518
  239MOL    H3848114   5.571   3.206   5.548 -0.5658  0.7950  0.6096
  239MOL    H3948115   5.748   3.418   5.441 -1.8043  0.0928 -2.5983
  239MOL    H4048116   5.668   3.656   5.613  0.3736  1.3934  0.2265
  239MOL    H4148117   5.838   3.600   5.590 -0.5865  2.4262  2.0986
  239MOL    C4248118   5.777   3.717   5.425  0.1443  0.0446  0.5826
  239MOL    C4348119   5.878   3.828   5.470 -0.5220 -0.3605  0.1282
  239MOL   Cl4448120   6.028   3.822   5.388  0.0189  0.2856 -0.2513
  239MOL    C4548121   5.848   3.921   5.564  0.2886  0.1454  0.2354
  239MOL    C4648122   5.723   3.933   5.645  0.0011  0.8496  0.8946
  239MOL    H4748123   5.827   3.665   5.343 -0.8418  1.6568 -1.0716
  239MOL    H4848124   5.695   3.777   5.386  0.4567  0.4229  0.5087
  239MOL    H4948125   5.916   3.998   5.598  2.3370 -1.3552 -0.3849
  239MOL    H5048126   5.686   4.036   5.648 -1.1105  0.4387  1.5790
  239MOL    H5148127   5.643   3.878   5.596  0.8763 -0.1445  0.5713
  239MOL    C5248128   5.752   3.890   5.789  0.5870  0.1347 -0.0784
  239MOL    C5348129   5.627   3.890   5.876  0.1236  0.1000 -0.7314
  239MOL   Cl5448130   5.546   3.745   5.838 -0.2334 -0.1467 -0.0178
  239MOL    C5548131   5.602   3.962   5.982 -0.1111  0.4224 -0.7486
  239MOL    C5648132   5.479   3.966   6.071 -1.0414 -0.4813  0.6387
  239MOL    H5748133   5.796   3.790   5.782 -2.3978 -1.2699  0.3172
  239MOL    H5848134   5.820   3.962   5.833  0.7166  0.7461 -1.2483
  239MOL    H5948135   5.684   4.030   5.999  1.1831 -1.4614  0.8232
  239MOL    H6048136   5.408   3.888   6.041  1.9645 -2.4129 -1.7751
  239MOL    H6148137   5.522   3.940   6.168  1.6651  0.6876 -0.2087
  239MOL    C6248138   5.405   4.103   6.060  0.0771  0.6001  0.4000
  239MOL    C6348139   5.339   4.144   5.925  0.4059 -0.7864 -0.0562
  239MOL   Cl6448140   5.252   4.008   5.861 -0.2589  0.1763 -0.4017
  239MOL    C6548141   5.330   4.268   5.868  0.2284  0.1274 -0.1075
  239MOL    C6648142   5.259   4.306   5.742  0.4767  0.4605 -0.3811
  239MOL    H6748143   5.335   4.126   6.140  1.0093  3.8231  0.3980
  239MOL    H6848144   5.479   4.182   6.076  2.2092 -1.0853 -0.7544
  239MOL    H6948145   5.384   4.349   5.915  1.5964 -1.5823  1.3338
  239MOL    H7048146   5.194   4.386   5.777  1.9356  1.2743  0.5248
  239MOL    H7148147   5.201   4.225   5.696 -1.7945  2.4695 -1.1671
  239MOL    C7248148   5.339   4.356   5.627  0.0058 -0.5773  0.5035
  239MOL    C7348149   5.261   4.393   5.505 -0.4002  0.8030 -0.5854
  239MOL   Cl7448150   5.284   4.564   5.463 -0.0717 -0.4463 -0.3927
  239MOL    C7548151   5.181   4.311   5.433  0.5658 -0.5205 -0.1054
  239MOL    C7648152   5.111   4.359   5.308 -0.4619  0.4773  0.2593
  239MOL    H7748153   5.415   4.282   5.605  0.8333  0.5299 -0.4219
  239MOL    H7848154   5.386   4.444   5.671 -2.4738 -0.7380  3.6992
  239MOL    H7948155   5.152   4.212   5.464  0.1750 -0.5463 -0.5510
  239MOL    H8048156   5.141   4.461   5.285 -1.7785  1.0077  0.9150
  239MOL    H8148157   5.005   4.353   5.332 -0.6457 -1.5586 -0.8918
  239MOL    C8248158   5.133   4.273   5.178 -0.0983 -0.6402 -0.3126
  239MOL    C8348159   5.029   4.288   5.070  0.0754 -0.5357 -0.0838
  239MOL   Cl8448160   5.081   4.200   4.929  0.3217  0.0549 -0.1545
  239MOL    C8548161   4.918   4.369   5.070  0.3936 -0.4167 -0.6544
  239MOL    C8648162   4.823   4.390   4.952 -0.5848  0.0300  0.7433
  239MOL    H8748163   5.121   4.166   5.197  0.2304 -0.4863  0.7509
  239MOL    H8848164   5.229   4.291   5.130 -0.2141 -0.9984 -0.6780
  239MOL    H8948165   4.898   4.430   5.157  2.1015 -1.0708  0.2308
  239MOL    H9048166   4.858   4.333   4.866  0.5884  0.4957  0.9094
  239MOL    H9148167   4.719   4.362   4.968 -0.3599 -1.1108  0.2728
  239MOL    C9248168   4.820   4.529   4.893  0.5288 -1.1164  0.0191
  239MOL    C9348169   4.777   4.650   4.972  0.0992  0.3575  0.1651
  239MOL   Cl9448170   4.606   4.656   4.998  0.4347  0.0672 -0.0198
  239MOL    C9548171   4.856   4.748   5.025  0.4770 -0.0623  0.4349
  239MOL    C9648172   5.007   4.753   5.030 -0.8110  0.1891  0.1651
  239MOL    H9748173   4.743   4.530   4.816  0.0261  2.3264  0.5141
  239MOL    H9848174   4.912   4.548   4.838  1.5862 -2.6646  1.2056
  239MOL    H9948175   4.802   4.827   5.074  1.6312  0.4852  0.8430
  239MOL   H10048176   5.037   4.734   5.133 -0.1752  4.1672  0.8041
  239MOL   H10148177   5.049   4.677   4.964 -0.8227  0.4571 -0.1530
  239MOL   C10248178   5.052   4.895   4.987  0.0658  0.4472  0.2148
  239MOL   C10348179   5.203   4.918   5.005 -0.0125 -0.8779 -0.3751
  239MOL  Cl10448180   5.238   4.932   5.171 -0.2831 -0.0245  0.1805
  239MOL   C10548181   5.296   4.923   4.906  0.9694  0.4248  0.0877
  239MOL   C10648182   5.447   4.928   4.916 -0.5996 -0.0285 -0.6198
  239MOL   H10748183   5.027   4.919   4.884 -2.3751  2.4738  1.2175
  239MOL   H10848184   5.008   4.975   5.046  2.2935  0.6731  1.6189
  239MOL   H10948185   5.262   4.921   4.803  1.6111 -1.0020 -0.0934
  239MOL   H11048186   5.470   4.949   5.020 -3.0447 -0.1558 -0.0079
  239MOL   H11148187   5.477   4.825   4.897 -0.5207  0.2531 -2.1068
  239MOL   C11248188   5.523   5.025   4.814 -0.4405  0.0484 -0.3688
  239MOL   C11348189   5.671   5.005   4.846 -0.5826 -1.0376  0.7378
  239MOL  Cl11448190   5.707   5.078   5.001  0.0813  0.2841 -0.3379
  239MOL   C11548191   5.759   4.934   4.772  0.3868  0.1745 -1.0699
  239MOL   C11648192   5.741   4.841   4.655  0.5546  0.0240 -0.1279
  239MOL   H11748193   5.493   5.006   4.711 -0.4041  1.2207 -0.6051
  239MOL   H11848194   5.505   5.132   4.829 -4.7754 -0.4071 -1.8171
  239MOL   H11948195   5.861   4.929   4.807  0.1179  1.8723  0.0230
  239MOL   H12048196   5.785   4.884   4.565  1.0586 -0.2750 -0.0223
  239MOL   H12148197   5.637   4.833   4.622  0.0617  0.9099  1.1434
  239MOL   C12248198   5.807   4.706   4.687  0.2562 -0.3176  0.5503
  239MOL   C12348199   5.786   4.608   4.568  0.9490 -0.0441  0.2675
  239MOL  Cl12448200   5.929   4.595   4.468  0.3581  0.1621  0.4652
  239MOL   C12548201   5.682   4.521   4.545  0.1977 -0.5009 -0.5359
  239MOL   C12648202   5.554   4.536   4.619  0.1168 -0.9065  0.5395
  239MOL   H12748203   5.912   4.728   4.707  0.8649 -1.1323 -1.5414
  239MOL   H12848204   5.759   4.648   4.766 -0.4992  2.4464  2.1728
  239MOL   H12948205   5.689   4.452   4.462 -2.8004 -0.4011 -0.9148
  239MOL   H13048206   5.550   4.631   4.672  0.8394 -0.1960 -0.6354
  239MOL   H13148207   5.471   4.553   4.551 -0.2710  2.0571  1.6872
  239MOL   C13248208   5.525   4.428   4.719  0.3771  0.4934  0.4175
  239MOL   C13348209   5.376   4.417   4.758 -0.0543 -0.3377 -0.0907
  239MOL  Cl13448210   5.289   4.339   4.630 -0.0905  0.1055  0.0417
  239MOL   C13548211   5.321   4.467   4.869  0.3383  0.2574 -0.0089
  239MOL   C13648212   5.401   4.541   4.984 -0.2842 -0.0332  0.2611
  239MOL   H13748213   5.563   4.333   4.681 -1.3003 -0.0158 -0.0265
  239MOL   H13848214   5.598   4.446   4.798  1.3637  1.7045 -0.7340
  239MOL   H13948215   5.213   4.460   4.880  0.3747 -0.3741 -0.0393
  239MOL   H14048216   5.482   4.596   4.936 -0.1298 -0.4555  0.0256
  239MOL   H14148217   5.345   4.623   5.027  0.0407 -0.0206  0.6550
  239MOL   C14248218   5.446   4.445   5.088 -0.0321  0.2164 -0.0032
  239MOL   C14348219   5.568   4.482   5.168 -0.2414  0.4937  0.0572
  239MOL  Cl14448220   5.696   4.536   5.070  0.3198 -0.3663  0.0026
  239MOL   C14548221   5.581   4.481   5.300 -0.1088  0.4807  0.4121
  239MOL   C14648222   5.705   4.517   5.382 -0.2958 -0.4960  0.5016
  239MOL   H14748223   5.470   4.348   5.045 -3.3675 -0.9126  0.4883
  239MOL   H14848224   5.360   4.437   5.155  1.5565 -2.3476  1.8078
  239MOL   H14948225   5.494   4.453   5.358  1.4894 -0.8980  2.2093
  239MOL   H15048226   5.736   4.420   5.421  1.3063 -1.0262 -1.9800
  239MOL   H15148227   5.783   4.550   5.314  0.7567 -1.8488  1.0198
  239MOL   C15248228   5.680   4.609   5.505  0.0549  0.2701  0.2248
  239MOL   C15348229   5.807   4.630   5.588 -0.4251 -0.2292  0.4156
  239MOL  Cl15448230   5.827   4.797   5.632  0.4007 -0.3384  0.4374
  239MOL   C15548231   5.901   4.535   5.620 -0.5597  0.5874  0.3938
  239MOL   C15648232   6.030   4.568   5.693 -0.6118 -0.1652 -0.1663
  239MOL   H15748233   5.648   4.709   5.476  0.2287  0.0303 -0.8239
  239MOL   H15848234   5.602   4.570   5.571 -1.7279  0.7422 -1.5242
  239MOL   H15948235   5.890   4.436   5.580  2.1890  0.6595 -0.6673
  239MOL   H16048236   6.001   4.617   5.786  0.6346  0.2101  0.0289
  239MOL   H16148237   6.074   4.654   5.644 -0.8206  0.4664  0.7394
  239MOL   C16248238   6.130   4.448   5.713  0.6685  0.1569  0.3066
  239MOL   C16348239   6.069   4.331   5.794  0.1359 -0.7368  0.0261
  239MOL  Cl16448240   6.102   4.177   5.723  0.2210  0.1736  0.1142
  239MOL   C16548241   5.996   4.350   5.911 -0.7767 -0.3631 -0.2562
  239MOL   C16648242   5.930   4.242   5.994  0.3875 -0.4418 -0.4268
  239MOL   H16748243   6.158   4.412   5.614 -0.8635  0.0573 -0.1038
  239MOL   H16848244   6.217   4.485   5.767  0.5131 -1.1664  1.4840
  239MOL   H16948245   5.978   4.451   5.944  0.2709 -0.4816  0.7444
  239MOL   H17048246   5.898   4.155   5.937 -0.9882 -0.7392  0.7410
  239MOL   H17148247   5.998   4.197   6.067 -0.7590  1.1916  1.7250
  239MOL   C17248248   5.809   4.299   6.062  0.0267 -0.2080 -0.2214
  239MOL   C17348249   5.711   4.388   5.976  0.2441 -0.1473 -0.7965
  239MOL  Cl17448250   5.677   4.306   5.824 -0.0354 -0.0568 -0.3362
  239MOL   C17548251   5.667   4.512   5.992  0.7794 -0.9066 -0.5396
  239MOL   C17648252   5.585   4.585   5.897  0.2594 -0.3315  0.5082
  239MOL   H17748253   5.838   4.363   6.145 -2.9495 -0.8762  1.4195
  239MOL   H17848254   5.746   4.225   6.112  2.8709 -2.6006 -0.0837
  239MOL   H17948255   5.694   4.568   6.081  0.1786  0.7490 -1.3745
  239MOL   H18048256   5.509   4.517   5.860  0.1901  0.7924 -1.4946
  239MOL   H18148257   5.649   4.603   5.811 -0.5493  0.4003  0.0453
  239MOL   C18248258   5.519   4.717   5.949  0.0053  0.5342 -0.0390
  239MOL   C18348259   5.428   4.770   5.846  0.7300 -0.2035  0.1086
  239MOL  Cl18448260   5.266   4.710   5.845  0.0470 -0.1606  0.3670
  239MOL   C18548261   5.473   4.847   5.748 -0.1704 -0.8061 -0.1925
  239MOL   C18648262   5.396   4.882   5.623 -0.2719 -0.4502  0.2006
  239MOL   H18748263   5.464   4.684   6.037  0.8725 -0.8322  0.0139
  239MOL   H18848264   5.597   4.792   5.960  0.9692 -0.4836  0.1267
  239MOL   H18948265   5.576   4.876   5.759  0.3838 -2.9855  0.4246
  239MOL   H19048266   5.427   4.809   5.549 -1.5749 -0.0887 -0.7254
  239MOL   H19148267   5.287   4.874   5.629 -0.2793  0.4817  1.6686
  239MOL   C19248268   5.424   5.022   5.570  0.5565  0.6633 -0.1161
  239MOL   C19348269   5.569   5.040   5.523  0.0194 -0.0933 -0.7058
  239MOL  Cl19448270   5.664   5.129   5.637 -0.0635  0.0766  0.0989
  239MOL   C19548271   5.632   4.986   5.418 -0.8884  0.4206  0.2331
  239MOL   C19648272   5.573   4.903   5.303 -0.5694  0.6383  0.7884
  239MOL   H19748273   5.403   5.099   5.644  1.1966  1.4847 -0.7763
  239MOL   H19848274   5.356   5.031   5.485  0.5451 -0.5670 -0.2507
  239MOL   H19948275   5.736   5.016   5.409 -1.2714  0.9060 -3.1976
  239MOL   H20048276   5.514   4.964   5.235 -0.4878 -0.0570  0.1002
  239MOL   H20148277   5.507   4.826   5.345  1.2873 -1.2356  0.3486
  239MOL   H20248278   5.655   4.852   5.253 -1.5319 -0.9312  0.7741
  240MOL     C148279   3.259   1.521   5.487  0.0031 -0.1407 -0.4134
  240MOL     C248280   3.250   1.525   5.334  0.2474 -0.0801 -0.1849
  240MOL    Cl348281   3.329   1.667   5.282 -0.1997 -0.1611 -0.2626
  240MOL     C448282   3.211   1.434   5.243  0.8830 -0.3676  0.2804
  240MOL     C548283   3.150   1.292   5.263  0.7821  0.3338 -0.1508
  240MOL     H648284   3.161   1.496   5.527 -0.1100 -1.4235 -1.4947
  240MOL     H748285   3.288   1.620   5.522  0.0615 -0.4504  0.4467
  240MOL     H848286   3.221   1.457   5.138 -0.5059  0.5403  0.3279
  240MOL     H948287   3.191   1.257   5.358 -1.0187  1.7378  1.1570
  240MOL    H1048288   3.043   1.290   5.280  0.8929 -0.8904  0.4080
  240MOL    H1148289   3.326   1.441   5.520 -0.5669 -0.9206 -1.1370
  240MOL    C1248290   3.195   1.201   5.151  0.4233  0.5447  0.0992
  240MOL    C1348291   3.185   1.055   5.209  0.0934 -0.2534  0.4151
  240MOL   Cl1448292   3.033   1.030   5.290  0.1197  0.2336 -0.5496
  240MOL    C1548293   3.274   0.957   5.208  0.0556  0.7387 -0.1167
  240MOL    C1648294   3.419   0.957   5.160 -0.0866 -0.3971  0.2284
  240MOL    H1748295   3.141   1.237   5.064 -0.2630  2.0435  1.1068
  240MOL    H1848296   3.298   1.228   5.133  0.9502 -0.1342  1.9258
  240MOL    H1948297   3.241   0.861   5.245  2.2096  0.2359  0.5796
  240MOL    H2048298   3.438   0.879   5.086  1.5162  0.6432 -0.4851
  240MOL    H2148299   3.430   1.054   5.111 -0.2306 -0.9442 -0.9075
  240MOL    C2248300   3.526   0.932   5.263 -0.1625 -0.2331 -0.3958
  240MOL    C2348301   3.520   1.043   5.377 -0.1603 -0.4395 -0.6754
  240MOL   Cl2448302   3.635   1.167   5.357 -0.2688 -0.5329 -0.5704
  240MOL    C2548303   3.429   1.050   5.477 -0.3389  0.0156 -0.3026
  240MOL    C2648304   3.409   1.154   5.585 -0.1383  0.0328 -0.5724
  240MOL    H2748305   3.506   0.834   5.307 -0.5005 -0.6056 -1.3787
  240MOL    H2848306   3.624   0.950   5.218 -0.9199  0.4626 -1.8075
  240MOL    H2948307   3.357   0.969   5.479  2.0697 -2.2243 -1.2546
  240MOL    H3048308   3.487   1.230   5.581  0.3203 -0.4304 -0.5324
  240MOL    H3148309   3.319   1.210   5.560 -1.3141 -0.7214  1.7898
  240MOL    C3248310   3.398   1.108   5.738 -0.0890 -0.4017 -0.7318
  240MOL    C3348311   3.380   1.224   5.839  0.6891  0.5654  0.6449
  240MOL   Cl3448312   3.514   1.227   5.950  0.0783 -0.0108  0.2072
  240MOL    C3548313   3.277   1.313   5.838 -0.1269  0.8146 -0.5129
  240MOL    C3648314   3.254   1.436   5.921  0.5118 -0.4770 -0.2911
  240MOL    H3748315   3.318   1.034   5.752  0.4278 -1.4215 -2.9790
  240MOL    H3848316   3.491   1.056   5.761  0.4177  0.5047 -0.7135
  240MOL    H3948317   3.204   1.295   5.761  1.3731  1.5318 -2.1336
  240MOL    H4048318   3.173   1.406   5.987  1.3774  0.3212  1.1499
  240MOL    H4148319   3.341   1.463   5.982  0.6054 -0.5625 -0.3868
  240MOL    C4248320   3.210   1.555   5.827 -0.4778 -0.6594  0.5120
  240MOL    C4348321   3.174   1.669   5.917 -0.2384  0.1723 -0.1008
  240MOL   Cl4448322   3.007   1.655   5.959 -0.3003 -0.1502  0.0502
  240MOL    C4548323   3.243   1.770   5.963  0.4405  0.1573  0.0873
  240MOL    C4648324   3.397   1.787   5.939  0.2124 -0.1187  0.5733
  240MOL    H4748325   3.296   1.572   5.762  0.1214 -4.2107  0.2613
  240MOL    H4848326   3.124   1.533   5.763 -0.7357  3.0330 -0.4841
  240MOL    H4948327   3.193   1.847   6.019  0.5288  1.9942 -2.2981
  240MOL    H5048328   3.428   1.713   5.865  0.0704 -0.2636  0.6587
  240MOL    H5148329   3.424   1.888   5.909 -0.2733 -0.2210 -0.2357
  240MOL    C5248330   3.465   1.750   6.070  0.5459 -0.3108 -0.5538
  240MOL    C5348331   3.609   1.717   6.050 -0.3292 -0.2215 -0.3195
  240MOL   Cl5448332   3.635   1.560   5.975 -0.5039 -0.3151  0.1218
  240MOL    C5548333   3.712   1.794   6.090  0.0388 -0.5497 -0.4972
  240MOL    C5648334   3.860   1.770   6.093 -0.6856  0.1703  0.1818
  240MOL    H5748335   3.456   1.836   6.136 -0.2861  0.4249 -1.5974
  240MOL    H5848336   3.409   1.671   6.119 -1.6647  0.7193 -1.3581
  240MOL    H5948337   3.685   1.889   6.134 -1.0090 -2.4079  3.1080
  240MOL    H6048338   3.899   1.768   6.194  0.1276  0.0674 -0.1315
  240MOL    H6148339   3.882   1.679   6.036  2.5466 -0.4982  2.3743
  240MOL    C6248340   3.939   1.876   6.023 -0.1739 -0.0887  0.0094
  240MOL    C6348341   4.082   1.850   5.979 -1.0499  0.0116 -0.0917
  240MOL   Cl6448342   4.154   1.980   5.894  0.2677 -0.2108  0.2163
  240MOL    C6548343   4.154   1.748   6.026 -0.0852  0.2236 -0.5708
  240MOL    C6648344   4.301   1.716   5.991 -0.4054  0.4211  0.1527
  240MOL    H6748345   3.882   1.893   5.931 -0.0777 -0.9072 -0.2056
  240MOL    H6848346   3.944   1.963   6.089 -0.1629 -0.2059  0.1626
  240MOL    H6948347   4.109   1.679   6.095  1.0170 -1.2417 -1.2842
  240MOL    H7048348   4.322   1.778   5.903 -1.2675  0.2431 -0.1866
  240MOL    H7148349   4.309   1.607   5.986  1.3809  0.5957 -1.1284
  240MOL    C7248350   4.403   1.763   6.092 -0.8189 -0.1439  0.6207
  240MOL    C7348351   4.402   1.907   6.138 -0.1952  0.0222 -0.5970
  240MOL   Cl7448352   4.483   2.013   6.030  0.5181  0.0050  0.7798
  240MOL    C7548353   4.330   1.943   6.249  0.3351  0.5791 -0.1905
  240MOL    C7648354   4.315   2.082   6.312 -0.6418  0.1176 -0.8977
  240MOL    H7748355   4.503   1.735   6.057 -1.2836 -2.1766  0.8201
  240MOL    H7848356   4.395   1.701   6.181 -2.5684 -0.0402  0.5443
  240MOL    H7948357   4.277   1.863   6.299  0.1819  2.0119  2.0315
  240MOL    H8048358   4.222   2.124   6.272 -0.6964 -0.7228 -1.6689
  240MOL    H8148359   4.387   2.159   6.286 -1.9167  2.4056  2.0278
  240MOL    C8248360   4.310   2.069   6.461 -0.0127  0.8375 -0.1062
  240MOL    C8348361   4.258   2.197   6.525  0.4884  0.4820  0.8710
  240MOL   Cl8448362   4.090   2.168   6.576 -0.4831  0.1922  0.2274
  240MOL    C8548363   4.319   2.316   6.545  0.3031 -0.9872  0.3973
  240MOL    C8648364   4.248   2.447   6.588 -0.1322  0.9418 -0.4049
  240MOL    H8748365   4.409   2.041   6.497  0.3318  2.7472  0.5190
  240MOL    H8848366   4.236   1.990   6.469  0.4835  0.3815  0.0022
  240MOL    H8948367   4.425   2.332   6.529  0.2887 -1.7263 -0.4594
  240MOL    H9048368   4.225   2.516   6.507 -2.1790  0.9842  0.1845
  240MOL    H9148369   4.145   2.422   6.612 -0.4140  0.1936 -2.3812
  240MOL    C9248370   4.315   2.537   6.691 -0.3542  0.6698 -0.8941
  240MOL    C9348371   4.238   2.661   6.721  0.0805  0.5378 -0.7357
  240MOL   Cl9448372   4.132   2.644   6.860  0.1877 -0.3292  0.0513
  240MOL    C9548373   4.238   2.775   6.650  0.1960  0.3388 -0.5029
  240MOL    C9648374   4.329   2.813   6.525 -0.1605  0.6522 -0.2537
  240MOL    H9748375   4.414   2.567   6.657  0.4236 -1.4014 -0.5547
  240MOL    H9848376   4.344   2.486   6.782 -2.2464  1.1982  0.0270
  240MOL    H9948377   4.167   2.849   6.684  0.0506 -0.1615  0.2856
  240MOL   H10048378   4.408   2.884   6.553 -1.3262  1.6832  0.4580
  240MOL   H10148379   4.387   2.727   6.492  1.0421  0.3071  2.5927
  240MOL   C10248380   4.259   2.868   6.400 -0.4811  0.2942  0.6722
  240MOL   C10348381   4.162   2.774   6.323 -0.9383  0.4844 -0.2417
  240MOL  Cl10448382   4.007   2.839   6.290 -0.1576 -0.2853 -0.1473
  240MOL   C10548383   4.211   2.660   6.274  0.0953  0.4047 -0.2342
  240MOL   C10648384   4.140   2.560   6.180  0.4274  0.3419 -0.1328
  240MOL   H10748385   4.198   2.953   6.431 -2.5593 -0.3763 -1.4236
  240MOL   H10848386   4.335   2.903   6.331 -0.4633  0.6339  0.8606
  240MOL   H10948387   4.315   2.632   6.286 -0.3301 -1.0259  0.1850
  240MOL   H11048388   4.031   2.565   6.180  0.3163 -1.5590  0.5243
  240MOL   H11148389   4.178   2.592   6.083  1.2886 -0.0709  0.0627
  240MOL   C11248390   4.174   2.415   6.204  0.1699  0.0679  0.9833
  240MOL   C11348391   4.106   2.322   6.106  0.1432 -0.2719  0.0140
  240MOL  Cl11448392   3.970   2.241   6.181  0.4744 -0.4136  0.4162
  240MOL   C11548393   4.142   2.304   5.978 -0.5344  0.2184  1.1404
  240MOL   C11648394   4.256   2.370   5.902 -0.9665 -0.1185 -0.0099
  240MOL   H11748395   4.283   2.410   6.210  0.0805 -0.7723  2.0541
  240MOL   H11848396   4.149   2.383   6.305  0.2529  1.5375  1.4824
  240MOL   H11948397   4.086   2.230   5.921 -0.0181 -0.7419  1.8664
  240MOL   H12048398   4.346   2.380   5.962  0.2012 -0.6098 -1.6680
  240MOL   H12148399   4.219   2.470   5.878  3.3045  1.5008 -0.2495
  240MOL   C12248400   4.300   2.302   5.765  0.3304  0.0685 -0.0768
  240MOL   C12348401   4.408   2.371   5.695  0.2510  0.4131 -0.5183
  240MOL  Cl12448402   4.559   2.291   5.723  0.2004  0.0588 -0.1353
  240MOL   C12548403   4.395   2.476   5.616 -0.0200 -0.7521  0.8319
  240MOL   C12648404   4.267   2.552   5.582 -0.3795  0.2723 -0.7600
  240MOL   H12748405   4.330   2.199   5.783 -3.1416 -0.8266  1.0243
  240MOL   H12848406   4.214   2.307   5.698  0.7246  2.2492 -0.4675
  240MOL   H12948407   4.485   2.514   5.571 -0.6459  2.0954  1.8583
  240MOL   H13048408   4.185   2.485   5.607 -1.6297  1.4389 -1.6559
  240MOL   H13148409   4.260   2.636   5.650 -3.8144  1.5166 -2.5538
  240MOL   C13248410   4.271   2.606   5.435 -0.4746  0.0917 -0.1535
  240MOL   C13348411   4.294   2.505   5.326 -0.5941 -0.2774 -0.2315
  240MOL  Cl13448412   4.443   2.538   5.244 -0.0014 -0.1457 -0.1298
  240MOL   C13548413   4.212   2.409   5.290  0.3120  0.0798 -1.2037
  240MOL   C13648414   4.074   2.380   5.353 -0.0341  0.2588 -0.1688
  240MOL   H13748415   4.166   2.630   5.417 -0.0752  2.1197  0.0180
  240MOL   H13848416   4.322   2.701   5.420 -1.4443  0.4409 -1.3099
  240MOL   H13948417   4.240   2.343   5.210  0.8343 -1.0274 -0.1216
  240MOL   H14048418   4.082   2.282   5.400 -0.7269  0.6812  0.8675
  240MOL   H14148419   4.051   2.447   5.436  0.4494 -1.3434  1.2827
  240MOL   C14248420   3.967   2.397   5.249  1.6843 -0.2739  1.0624
  240MOL   C14348421   3.829   2.334   5.290  0.2767 -0.2061  0.0509
  240MOL  Cl14448422   3.815   2.177   5.216 -0.0779  0.0315 -0.1491
  240MOL   C14548423   3.746   2.386   5.383  0.0641 -0.0919 -0.1140
  240MOL   C14648424   3.619   2.316   5.427  0.0255 -0.4386  0.0569
  240MOL   H14748425   3.990   2.344   5.156 -0.5515 -2.4668  1.6806
  240MOL   H14848426   3.942   2.500   5.224  0.3487 -0.1970  2.6322
  240MOL   H14948427   3.767   2.481   5.428 -2.8325  1.1666 -1.2506
  240MOL   H15048428   3.534   2.363   5.377  1.2070  1.9937  0.2803
  240MOL   H15148429   3.622   2.210   5.401 -1.7174  0.2393 -3.1321
  240MOL   C15248430   3.593   2.333   5.575  0.0227  0.3804 -0.1633
  240MOL   C15348431   3.466   2.277   5.630 -0.2155 -0.1079 -0.4047
  240MOL  Cl15448432   3.402   2.388   5.743  0.0067  0.2873  0.4527
  240MOL   C15548433   3.398   2.175   5.582  0.2513 -0.0637 -0.1861
  240MOL   C15648434   3.267   2.133   5.638  0.0369  0.0743  0.2065
  240MOL   H15748435   3.663   2.275   5.635  0.0407  0.4995 -0.0685
  240MOL   H15848436   3.616   2.437   5.597  1.0299 -0.0822  1.0667
  240MOL   H15948437   3.428   2.108   5.503 -1.9170 -0.0448 -1.0619
  240MOL   H16048438   3.191   2.172   5.571 -1.5885 -1.9571  0.8321
  240MOL   H16148439   3.249   2.192   5.728  0.0988  0.2695  0.0919
  240MOL   C16248440   3.250   1.981   5.658  0.1525  0.1306  0.6348
  240MOL   C16348441   3.112   1.930   5.679 -0.4199  0.1763 -0.3908
  240MOL  Cl16448442   3.074   1.782   5.598 -0.1899 -0.3295 -0.4609
  240MOL   C16548443   3.019   1.990   5.757  0.1100  0.1474 -0.0778
  240MOL   C16648444   2.870   1.947   5.784 -0.7214 -0.5847 -0.2253
  240MOL   H16748445   3.292   1.925   5.574 -1.9026 -4.1742  2.3394
  240MOL   H16848446   3.309   1.934   5.736 -0.3494  1.5276  1.8758
  240MOL   H16948447   3.040   2.087   5.801 -0.9237  1.4633 -2.3508
  240MOL   H17048448   2.809   1.983   5.701  0.2010 -1.8433 -1.4731
  240MOL   H17148449   2.872   1.841   5.760  0.1117 -0.3712 -1.1416
  240MOL   C17248450   2.814   1.974   5.928  0.2115 -0.3102 -0.1418
  240MOL   C17348451   2.677   1.914   5.943  0.3526  0.0833  0.7642
  240MOL  Cl17448452   2.561   1.981   5.834 -0.3688  0.1187  0.5331
  240MOL   C17548453   2.643   1.818   6.033  0.3733  0.1398  0.5015
  240MOL   C17648454   2.512   1.750   6.058  0.7741  0.9933 -0.8333
  240MOL   H17748455   2.810   2.075   5.968 -0.4194 -0.6201  0.5890
  240MOL   H17848456   2.883   1.922   5.995  1.4176 -0.7351 -1.6824
  240MOL   H17948457   2.719   1.786   6.103 -0.4920  0.0226  1.4154
  240MOL   H18048458   2.519   1.644   6.034  2.8190  0.5739  1.4447
  240MOL   H18148459   2.436   1.802   5.999 -0.9756  1.0821  1.4302
  240MOL   C18248460   2.479   1.762   6.206 -0.1505 -0.5642  0.7944
  240MOL   C18348461   2.339   1.719   6.232  0.2235  0.0347  0.6396
  240MOL  Cl18448462   2.232   1.843   6.210  0.1972 -0.3399 -0.8307
  240MOL   C18548463   2.305   1.597   6.278 -0.2147  0.2068 -0.4821
  240MOL   C18648464   2.168   1.554   6.312 -0.5926 -0.1172 -0.5593
  240MOL   H18748465   2.549   1.711   6.272 -0.0172 -1.3187  0.0788
  240MOL   H18848466   2.482   1.866   6.237  1.2265 -0.2352 -0.3934
  240MOL   H18948467   2.382   1.525   6.300 -0.4982  0.8472  2.8536
  240MOL   H19048468   2.090   1.622   6.278  0.1271  1.5020  0.9174
  240MOL   H19148469   2.158   1.464   6.252 -1.6037 -0.8666  0.7116
  240MOL   C19248470   2.144   1.517   6.463 -0.7807  0.1029 -0.1271
  240MOL   C19348471   2.007   1.457   6.496  0.1200 -0.3101  0.0451
  240MOL  Cl19448472   1.928   1.391   6.363 -0.1916  0.1520  0.1080
  240MOL   C19548473   1.947   1.463   6.617 -0.2216 -0.0568  0.4731
  240MOL   C19648474   2.012   1.509   6.748  0.0103 -0.1101  0.6527
  240MOL   H19748475   2.154   1.602   6.530  3.1267 -0.2403 -0.1731
  240MOL   H19848476   2.212   1.441   6.503 -1.0405 -0.5987 -0.9905
  240MOL   H19948477   1.851   1.414   6.620  0.0831 -0.8554 -1.9714
  240MOL   H20048478   2.115   1.547   6.752  0.7514 -2.2250  2.8453
  240MOL   H20148479   2.002   1.425   6.816 -0.3543 -0.1707  0.5233
  240MOL   H20248480   1.955   1.591   6.792  0.0591  1.1991 -1.6684
  241MOL     C148481   6.139   1.624   5.307 -0.5846  0.0532 -0.2908
  241MOL     C248482   6.073   1.557   5.191 -0.5620 -0.5523  0.0870
  241MOL    Cl348483   6.139   1.402   5.151 -0.2407  0.3935 -0.2109
  241MOL     C448484   5.971   1.596   5.112 -0.5252  0.1097 -0.1812
  241MOL     C548485   5.922   1.735   5.125  0.3928 -0.2577 -0.2519
  241MOL     H648486   6.061   1.675   5.363  0.7057  2.1135 -0.3130
  241MOL     H748487   6.215   1.693   5.271  0.2976 -1.1514 -0.7378
  241MOL     H848488   5.920   1.529   5.044  0.0722 -0.3194 -0.2091
  241MOL     H948489   5.992   1.796   5.181 -0.8783  1.0990 -0.1137
  241MOL    H1048490   5.901   1.767   5.023  0.9077 -1.9836 -0.9191
  241MOL    H1148491   6.173   1.547   5.375 -2.4937 -1.3474 -0.8665
  241MOL    C1248492   5.797   1.741   5.214  0.4584  0.1639 -0.1531
  241MOL    C1348493   5.736   1.886   5.232  0.8192 -0.4006  0.2412
  241MOL   Cl1448494   5.605   1.923   5.124 -0.3093  0.0045 -0.4503
  241MOL    C1548495   5.767   1.976   5.330 -0.6354 -0.1695 -0.0196
  241MOL    C1648496   5.876   1.964   5.440  0.0558 -0.3014  0.4482
  241MOL    H1748497   5.721   1.673   5.175 -0.5020  1.9143 -1.3517
  241MOL    H1848498   5.822   1.710   5.316  0.4931 -1.0859 -0.5311
  241MOL    H1948499   5.711   2.068   5.333 -0.7308 -0.0739 -2.8975
  241MOL    H2048500   5.822   1.958   5.534 -2.5941 -1.3507 -1.0954
  241MOL    H2148501   5.924   1.866   5.438  1.1865  0.2495 -0.8529
  241MOL    C2248502   5.976   2.087   5.442 -0.1806 -0.2828  0.0228
  241MOL    C2348503   6.059   2.096   5.567 -0.0251 -0.9817  0.2420
  241MOL   Cl2448504   6.191   1.982   5.563 -0.3621 -0.0265 -0.0796
  241MOL    C2548505   6.029   2.183   5.665 -1.1359 -0.0208 -0.2388
  241MOL    C2648506   6.116   2.196   5.791 -0.1387 -0.2941 -0.4599
  241MOL    H2748507   6.035   2.078   5.351 -1.2568  0.4536 -0.7554
  241MOL    H2848508   5.929   2.185   5.439 -0.3711 -0.3731  0.0367
  241MOL    H2948509   5.945   2.249   5.648 -1.5097 -0.7259 -1.2013
  241MOL    H3048510   6.059   2.162   5.877 -0.3372  2.4198  0.5600
  241MOL    H3148511   6.202   2.129   5.795  0.3418  0.2642 -1.1385
  241MOL    C3248512   6.146   2.345   5.819  0.2939  1.1871 -0.5773
  241MOL    C3348513   6.215   2.372   5.956  0.1004 -0.2668 -0.0716
  241MOL   Cl3448514   6.375   2.437   5.938  0.2309  0.3836  0.2044
  241MOL    C3548515   6.160   2.341   6.077  0.3718 -0.7218 -0.3463
  241MOL    C3648516   6.223   2.362   6.215  0.5613 -0.3954  0.3382
  241MOL    H3748517   6.207   2.380   5.736  0.6021  2.1012  0.0265
  241MOL    H3848518   6.056   2.407   5.818 -0.7309 -0.2792 -2.1239
  241MOL    H3948519   6.058   2.304   6.078 -0.2928  1.0746 -0.2127
  241MOL    H4048520   6.253   2.258   6.228 -4.6889 -1.9933  0.7488
  241MOL    H4148521   6.317   2.416   6.205 -1.5811  3.4216 -0.3111
  241MOL    C4248522   6.130   2.406   6.326  0.5878 -0.5115 -0.0115
  241MOL    C4348523   6.033   2.293   6.363 -0.3680  0.7048  0.7422
  241MOL   Cl4448524   5.867   2.340   6.348  0.1627 -0.0953  0.0184
  241MOL    C4548525   6.062   2.177   6.418  0.1540  0.2358 -0.1663
  241MOL    C4648526   6.204   2.137   6.455  0.3088 -0.2609  0.3409
  241MOL    H4748527   6.177   2.442   6.417  0.1795 -0.5130  0.2031
  241MOL    H4848528   6.064   2.485   6.290  0.1407 -0.2438  1.3368
  241MOL    H4948529   5.987   2.103   6.440  0.2423 -0.0178 -0.7179
  241MOL    H5048530   6.279   2.213   6.430  0.2456  0.2047  1.5002
  241MOL    H5148531   6.210   2.122   6.563 -0.9795 -0.6182  0.3675
  241MOL    C5248532   6.244   2.008   6.384  0.1105 -0.1812 -0.2190
  241MOL    C5348533   6.385   1.961   6.433  0.4786 -0.0352 -0.3147
  241MOL   Cl5448534   6.500   2.052   6.344 -0.0403  0.0646 -0.0995
  241MOL    C5548535   6.412   1.848   6.506  0.6024 -0.2072 -0.6480
  241MOL    C5648536   6.549   1.796   6.535  0.1557 -0.0910 -0.2189
  241MOL    H5748537   6.176   1.927   6.410  1.0028 -0.3526  1.7086
  241MOL    H5848538   6.253   2.030   6.278 -2.2350  0.9450 -0.1983
  241MOL    H5948539   6.329   1.796   6.550  0.8638  0.8041  1.0665
  241MOL    H6048540   6.540   1.703   6.478 -0.0844 -1.5452  2.1444
  241MOL    H6148541   6.628   1.859   6.495  0.9476 -0.0504  1.3973
  241MOL    C6248542   6.583   1.772   6.681  0.1460  1.5527 -0.0546
  241MOL    C6348543   6.490   1.675   6.745 -0.3989  0.1256  0.2103
  241MOL   Cl6448544   6.389   1.742   6.868 -0.1698  0.0063 -0.1368
  241MOL    C6548545   6.488   1.543   6.722  0.4057  0.3010 -0.3106
  241MOL    C6648546   6.402   1.439   6.795  0.3495 -0.3741 -0.3725
  241MOL    H6748547   6.685   1.749   6.712 -0.4000  0.7949  1.1664
  241MOL    H6848548   6.576   1.870   6.727  2.1467  1.9190 -0.4652
  241MOL    H6948549   6.557   1.507   6.648  1.6045  0.4170  0.7401
  241MOL    H7048550   6.339   1.485   6.871  1.6692  0.9331 -0.0459
  241MOL    H7148551   6.468   1.362   6.836 -1.8360 -1.8412  0.4802
  241MOL    C7248552   6.300   1.384   6.698  0.0759  0.6258 -0.8278
  241MOL    C7348553   6.226   1.490   6.622 -0.0571 -0.3250 -0.2661
  241MOL   Cl7448554   6.299   1.506   6.463  0.0086 -0.0836 -0.1132
  241MOL    C7548555   6.114   1.550   6.665 -0.1962  0.8098 -0.3950
  241MOL    C7648556   6.022   1.645   6.598 -0.2962  0.4025 -0.1031
  241MOL    H7748557   6.230   1.319   6.751  3.2673 -2.2613  0.0493
  241MOL    H7848558   6.346   1.324   6.618  1.2291  1.7206 -1.0066
  241MOL    H7948559   6.072   1.533   6.763  1.5772  0.2197  0.2705
  241MOL    H8048560   6.095   1.722   6.570  0.4609 -1.2316 -2.8568
  241MOL    H8148561   5.963   1.700   6.671 -1.0431 -0.6484  0.0925
  241MOL    C8248562   5.955   1.589   6.474  0.1611 -0.0229 -0.4658
  241MOL    C8348563   5.843   1.674   6.416  0.6549 -0.2829 -0.4072
  241MOL   Cl8448564   5.905   1.834   6.375 -0.3254 -0.1211 -0.0067
  241MOL    C8548565   5.710   1.637   6.407  0.0236 -0.1734 -0.3365
  241MOL    C8648566   5.596   1.725   6.353  0.2348 -1.0515 -0.4348
  241MOL    H8748567   5.900   1.496   6.493  0.7444 -0.0564  1.1429
  241MOL    H8848568   6.035   1.579   6.401  1.7057 -0.7467  1.2726
  241MOL    H8948569   5.682   1.541   6.448  0.0456  0.5124  1.3426
  241MOL    H9048570   5.567   1.788   6.437 -0.3323  1.7445 -2.6447
  241MOL    H9148571   5.626   1.795   6.275 -1.4645  0.4666  0.2241
  241MOL    C9248572   5.485   1.635   6.297  0.0895 -0.1292  0.3823
  241MOL    C9348573   5.354   1.706   6.243  0.4090 -0.3371  0.2418
  241MOL   Cl9448574   5.334   1.674   6.076 -0.4809 -0.0746  0.0768
  241MOL    C9548575   5.264   1.774   6.313  0.5823 -0.1046  0.3186
  241MOL    C9648576   5.273   1.801   6.462  0.0241  0.1317 -0.6630
  241MOL    H9748577   5.444   1.581   6.383  0.3722 -1.5075 -0.3464
  241MOL    H9848578   5.529   1.572   6.220 -1.5822  0.8792 -1.4424
  241MOL    H9948579   5.175   1.812   6.265  0.6129  1.0776  1.1695
  241MOL   H10048580   5.347   1.739   6.514 -1.5835 -2.1516 -0.9872
  241MOL   H10148581   5.301   1.906   6.468 -0.6653  0.3683 -1.4806
  241MOL   C10248582   5.132   1.801   6.532 -0.0281 -0.1925 -0.5462
  241MOL   C10348583   5.120   1.837   6.679 -0.2946 -0.4211 -0.7162
  241MOL  Cl10448584   5.216   1.727   6.776  0.0224 -0.1009 -0.3438
  241MOL   C10548585   5.048   1.932   6.741 -0.1016 -0.5007  0.1074
  241MOL   C10648586   5.053   1.968   6.890  0.1341  0.6835 -0.4011
  241MOL   H10748587   5.066   1.864   6.472 -1.1023 -0.2018  0.5935
  241MOL   H10848588   5.090   1.702   6.516  0.0725 -0.4528  0.7317
  241MOL   H10948589   4.985   1.988   6.674 -0.2165 -2.0012 -1.0814
  241MOL   H11048590   4.955   1.965   6.937  1.3760 -0.8188  2.2121
  241MOL   H11148591   5.123   1.905   6.946  0.2770  0.1982 -1.1153
  241MOL   C11248592   5.113   2.101   6.908 -0.5317  0.0145  0.3477
  241MOL   C11348593   5.128   2.141   7.049  0.4400 -1.1068  0.4951
  241MOL  Cl11448594   5.012   2.265   7.088 -0.0269 -0.2802  0.3684
  241MOL   C11548595   5.223   2.110   7.132 -0.2402 -0.1342 -0.5771
  241MOL   C11648596   5.349   2.018   7.102 -0.3919 -0.4734  0.5979
  241MOL   H11748597   5.212   2.103   6.863 -0.1095 -2.1222  1.0925
  241MOL   H11848598   5.057   2.181   6.860 -2.7062 -1.3343  0.5669
  241MOL   H11948599   5.231   2.156   7.229  2.6019 -1.4840 -0.1089
  241MOL   H12048600   5.433   2.075   7.142 -0.8461  0.9522 -0.4450
  241MOL   H12148601   5.347   2.004   6.994  0.1615  1.8752  0.2551
  241MOL   C12248602   5.344   1.881   7.179 -0.5477  0.3736  0.2436
  241MOL   C12348603   5.482   1.805   7.165  0.1226 -0.2221 -0.2807
  241MOL  Cl12448604   5.449   1.658   7.087 -0.2025 -0.4175  0.1301
  241MOL   C12548605   5.601   1.826   7.228  0.2901  0.4666 -0.2556
  241MOL   C12648606   5.632   1.942   7.316 -0.5580  0.0034 -0.2613
  241MOL   H12748607   5.319   1.904   7.283 -0.1267 -3.8367  1.3661
  241MOL   H12848608   5.256   1.825   7.145 -0.0108 -1.4504  1.7866
  241MOL   H12948609   5.680   1.753   7.222  0.3079  0.2864  1.6837
  241MOL   H13048610   5.541   1.988   7.356 -1.3855 -0.5166 -1.5024
  241MOL   H13148611   5.686   1.888   7.394  1.5889  0.2906 -1.5207
  241MOL   C13248612   5.726   2.041   7.245  0.5593 -0.2782  0.5921
  241MOL   C13348613   5.734   2.172   7.323  0.0023  0.6385  0.4940
  241MOL  Cl13448614   5.595   2.273   7.296 -0.3910  0.3058  0.4539
  241MOL   C13548615   5.836   2.219   7.398 -0.3367  0.7777 -0.3953
  241MOL   C13648616   5.961   2.136   7.426  0.2620  0.4138 -0.2543
  241MOL   H13748617   5.816   1.990   7.211  0.0245 -0.8159 -0.0184
  241MOL   H13848618   5.678   2.063   7.150  2.0289  0.8651  0.0815
  241MOL   H13948619   5.825   2.321   7.430 -1.8992  0.5669 -0.2299
  241MOL   H14048620   5.936   2.030   7.438  2.5648 -0.2579 -0.9972
  241MOL   H14148621   6.017   2.135   7.332 -0.2702  1.7867 -0.5995
  241MOL   C14248622   6.033   2.189   7.546  0.0518  0.0651 -0.5115
  241MOL   C14348623   6.119   2.084   7.608 -0.4027  0.5105  0.3878
  241MOL  Cl14448624   6.032   2.009   7.744 -0.2550 -0.1837 -0.3044
  241MOL   C14548625   6.239   2.039   7.566 -0.3905  0.0038  0.2531
  241MOL   C14648626   6.311   1.925   7.627  0.1357  0.1046 -0.6648
  241MOL   H14748627   5.957   2.217   7.619 -0.9941 -1.2931 -1.0485
  241MOL   H14848628   6.079   2.284   7.518 -1.5074  0.7276 -0.8820
  241MOL   H14948629   6.280   2.102   7.488  1.0432 -0.9092  0.2492
  241MOL   H15048630   6.388   1.967   7.691 -1.1557 -1.0237  1.6954
  241MOL   H15148631   6.245   1.870   7.694  2.1059 -0.3065  0.9997
  241MOL   C15248632   6.358   1.820   7.528 -0.0461 -0.5230  0.1566
  241MOL   C15348633   6.452   1.869   7.423 -0.7458  0.2978 -0.7275
  241MOL  Cl15448634   6.612   1.807   7.439  0.2837 -0.3092 -0.4222
  241MOL   C15548635   6.408   1.940   7.317 -0.5782 -0.0068  0.2534
  241MOL   C15648636   6.492   1.989   7.196 -0.0491  0.2808 -0.0091
  241MOL   H15748637   6.415   1.741   7.576 -1.1007 -2.2525 -1.3490
  241MOL   H15848638   6.267   1.778   7.487  0.0090 -1.6350  1.1587
  241MOL   H15948639   6.302   1.960   7.325 -0.3720  1.4684 -0.3938
  241MOL   H16048640   6.442   1.941   7.112 -2.2226  2.4637 -0.0127
  241MOL   H16148641   6.595   1.953   7.197  0.8783  2.7760  0.2231
  241MOL   C16248642   6.497   2.145   7.186  0.3733 -0.6168  0.1992
  241MOL   C16348643   6.600   2.193   7.091 -0.1206  0.0858  0.5184
  241MOL  Cl16448644   6.752   2.231   7.159 -0.4421 -0.2303 -0.1653
  241MOL   C16548645   6.569   2.207   6.961  0.4882 -0.1497  0.2277
  241MOL   C16648646   6.667   2.245   6.856 -0.3089 -0.2626  0.8716
  241MOL   H16748647   6.404   2.193   7.159  0.2975 -0.8913 -0.0324
  241MOL   H16848648   6.507   2.185   7.287  0.5513 -0.5299  0.1483
  241MOL   H16948649   6.466   2.193   6.932 -0.4741  1.1979  2.7698
  241MOL   H17048650   6.646   2.348   6.826 -3.0858 -0.4388  2.1357
  241MOL   H17148651   6.770   2.238   6.890 -1.0112 -2.1045  2.6822
  241MOL   C17248652   6.666   2.149   6.732 -0.2814 -0.6808  0.7196
  241MOL   C17348653   6.701   2.229   6.606 -0.3927 -0.1534 -0.2478
  241MOL  Cl17448654   6.839   2.153   6.531 -0.1108  0.0677 -0.0268
  241MOL   C17548655   6.636   2.343   6.556 -0.0914 -0.1751  0.2542
  241MOL   C17648656   6.679   2.417   6.432  0.0377 -0.3548 -0.2686
  241MOL   H17748657   6.569   2.100   6.719 -0.4936 -0.4437  1.4269
  241MOL   H17848658   6.748   2.079   6.747 -1.1532 -1.7950  0.3406
  241MOL   H17948659   6.549   2.383   6.605 -0.2997  0.1418 -0.3726
  241MOL   H18048660   6.761   2.369   6.378  1.4334  0.8691  0.6988
  241MOL   H18148661   6.723   2.512   6.464  0.9982 -1.3118  1.3134
  241MOL   C18248662   6.558   2.436   6.334 -1.0755 -0.2409  0.5185
  241MOL   C18348663   6.603   2.501   6.205  0.0908  0.3776  1.1419
  241MOL  Cl18448664   6.531   2.664   6.175  0.0199  0.1242 -0.1775
  241MOL   C18548665   6.677   2.437   6.110 -0.2444 -0.4218  0.4394
  241MOL   C18648666   6.729   2.502   5.983  0.2099 -0.5164  0.5279
  241MOL   H18748667   6.501   2.345   6.315  0.1335 -0.8415 -0.2979
  241MOL   H18848668   6.493   2.506   6.387 -1.6289 -0.1607 -0.2592
  241MOL   H18948669   6.711   2.338   6.137 -0.4229 -0.1426  1.6892
  241MOL   H19048670   6.706   2.432   5.902  2.3737 -0.1946 -0.4220
  241MOL   H19148671   6.669   2.590   5.962 -0.9564 -1.5964 -0.8067
  241MOL   C19248672   6.878   2.516   5.972 -0.2045  0.2051  0.0156
  241MOL   C19348673   6.927   2.601   5.850  0.5050  0.0592  0.0504
  241MOL  Cl19448674   7.029   2.507   5.740  0.2679  0.3122  0.3561
  241MOL   C19548675   6.906   2.730   5.810 -0.3686  0.6364 -0.8007
  241MOL   C19648676   6.816   2.832   5.884 -0.2979 -0.1880 -0.5107
  241MOL   H19748677   6.918   2.414   5.976  0.1345  0.2810 -1.1114
  241MOL   H19848678   6.918   2.569   6.058 -2.5435  0.6442  0.8578
  241MOL   H19948679   6.941   2.760   5.713  0.3490 -2.8135 -1.6705
  241MOL   H20048680   6.770   2.897   5.810  0.3755 -0.8714 -1.5329
  241MOL   H20148681   6.884   2.898   5.938 -2.2282  0.2703  1.4706
  241MOL   H20248682   6.742   2.788   5.951  1.4254 -1.6579  0.4550
  242MOL     C148683   0.521   6.516   3.544 -0.0634  0.7676  0.3255
  242MOL     C248684   0.591   6.593   3.646  0.3477 -0.2541 -0.4892
  242MOL    Cl348685   0.479   6.672   3.751 -0.4935 -0.1008 -0.2511
  242MOL     C448686   0.723   6.581   3.676 -0.2512 -0.6684 -0.2802
  242MOL     C548687   0.829   6.514   3.594 -0.8875  0.0500 -0.6507
  242MOL     H648688   0.422   6.480   3.572 -0.3334 -1.1550 -2.7338
  242MOL     H748689   0.590   6.436   3.517 -1.1302 -0.1544  0.2584
  242MOL     H848690   0.752   6.625   3.770  0.3569 -4.1533  1.2559
  242MOL     H948691   0.878   6.443   3.661 -2.0875  0.3277  0.5361
  242MOL    H1048692   0.794   6.455   3.510 -0.8334  0.0669 -0.6845
  242MOL    H1148693   0.513   6.569   3.449 -0.1627 -0.6507 -0.4868
  242MOL    C1248694   0.929   6.624   3.553 -0.2995 -0.9577  0.1146
  242MOL    C1348695   1.056   6.568   3.489 -0.1119 -0.7245 -0.6435
  242MOL   Cl1448696   1.168   6.518   3.610 -0.5274 -0.0990  0.0695
  242MOL    C1548697   1.092   6.554   3.358  0.4439 -0.6209 -0.2439
  242MOL    C1648698   1.010   6.595   3.232 -0.1447 -0.4585  0.4113
  242MOL    H1748699   0.877   6.691   3.485  0.3021  1.3979  1.9164
  242MOL    H1848700   0.957   6.682   3.641  0.8222 -1.1728 -0.0863
  242MOL    H1948701   1.188   6.511   3.336  0.9542  0.3463  0.0384
  242MOL    H2048702   0.923   6.531   3.217 -1.9574  2.6185 -2.8311
  242MOL    H2148703   0.963   6.690   3.254 -0.0790 -0.2232 -0.4641
  242MOL    C2248704   1.104   6.602   3.106 -0.1021  0.1373  0.0748
  242MOL    C2348705   1.026   6.652   2.986  0.2022 -0.1349 -0.3484
  242MOL   Cl2448706   1.031   6.536   2.860 -0.0447  0.0186 -0.3303
  242MOL    C2548707   0.970   6.773   2.972 -0.6251  1.0385 -0.8275
  242MOL    C2648708   0.888   6.823   2.851  0.2607 -0.9096  0.4200
  242MOL    H2748709   1.196   6.659   3.121  1.4396 -2.1954 -0.1394
  242MOL    H2848710   1.143   6.501   3.091 -0.7581  0.2789 -2.8433
  242MOL    H2948711   0.981   6.837   3.059 -0.4348  0.6968 -0.5999
  242MOL    H3048712   0.903   6.751   2.771 -1.6285 -2.4266  1.3867
  242MOL    H3148713   0.780   6.826   2.866  0.3256  1.4733  0.6894
  242MOL    C3248714   0.940   6.965   2.817  0.5519  0.0664  0.3649
  242MOL    C3348715   0.918   7.019   2.676  0.4388  0.6732 -0.4541
  242MOL   Cl3448716   1.022   6.937   2.567 -0.0779  0.3683 -0.0471
  242MOL    C3548717   0.841   7.124   2.646  0.6367 -0.1009  0.6693
  242MOL    C3648718   0.819   7.189   2.509 -0.2898 -0.0520 -0.4051
  242MOL    H3748719   0.890   7.034   2.884 -0.5149 -0.4691  0.1370
  242MOL    H3848720   1.046   6.965   2.844  0.9766  0.7958 -1.2327
  242MOL    H3948721   0.793   7.184   2.722  0.0635  0.8840 -0.4710
  242MOL    H4048722   0.865   7.287   2.495  2.9156 -1.4519 -0.2153
  242MOL    H4148723   0.872   7.124   2.439 -2.5112 -1.7394 -0.5506
  242MOL    C4248724   0.671   7.189   2.472  0.1623 -0.0116 -0.2823
  242MOL    C4348725   0.615   7.049   2.462  0.1926  0.2217 -0.0472
  242MOL   Cl4448726   0.662   6.979   2.312 -0.2336 -0.1921 -0.2541
  242MOL    C4548727   0.528   6.984   2.548  0.6574  0.0283  0.1480
  242MOL    C4648728   0.465   7.034   2.682  0.5446 -0.3603 -0.0222
  242MOL    H4748729   0.616   7.245   2.549 -1.7234  0.1351 -1.7028
  242MOL    H4848730   0.648   7.241   2.379  2.0019  0.2201 -0.6196
  242MOL    H4948731   0.497   6.883   2.527  0.8966  0.3871 -2.0874
  242MOL    H5048732   0.518   6.982   2.763  0.0349 -1.5315 -0.4197
  242MOL    H5148733   0.483   7.135   2.717  0.7934 -0.1406 -0.7974
  242MOL    C5248734   0.322   6.987   2.700  0.8340  0.4129 -0.2463
  242MOL    C5348735   0.264   6.989   2.844  0.0205 -0.7936 -0.0183
  242MOL   Cl5448736   0.346   6.870   2.941  0.5087  0.1762 -0.6293
  242MOL    C5548737   0.178   7.081   2.896  0.4229  0.6181  0.4052
  242MOL    C5648738   0.121   7.079   3.039 -0.4110 -1.1406 -0.0646
  242MOL    H5748739   0.260   7.047   2.633  1.2815 -0.3641 -1.3755
  242MOL    H5848740   0.307   6.885   2.665 -0.7316 -0.4105  2.7185
  242MOL    H5948741   0.144   7.162   2.833 -1.1559 -0.5655 -0.3105
  242MOL    H6048742   0.158   6.991   3.090  0.6941 -2.3619 -2.8644
  242MOL    H6148743   0.167   7.161   3.094 -2.6153 -1.2404  2.0088
  242MOL    C6248744   8.389   7.103   3.048 -0.6946  0.0847  0.1214
  242MOL    C6348745   8.307   6.982   3.006 -0.1200  0.0724 -0.1887
  242MOL   Cl6448746   8.299   6.975   2.835 -0.1469  0.1060  0.1453
  242MOL    C6548747   8.240   6.898   3.086  0.1935 -0.0591  0.0743
  242MOL    C6648748   8.152   6.786   3.035  0.4703  0.7504  0.4046
  242MOL    H6748749   8.352   7.131   3.147  1.6868  1.6568  0.6229
  242MOL    H6848750   8.375   7.194   2.989  0.0172 -0.9568 -1.6829
  242MOL    H6948751   8.250   6.921   3.191  1.3807  1.3705 -0.3424
  242MOL    H7048752   8.213   6.701   3.066 -0.0465 -0.4836 -1.8480
  242MOL    H7148753   8.161   6.777   2.927 -0.0492  1.3151  0.3134
  242MOL    C7248754   8.015   6.787   3.096  0.0735  0.5585 -1.1462
  242MOL    C7348755   7.913   6.686   3.049 -0.6704  0.3794 -0.0294
  242MOL   Cl7448756   7.929   6.553   3.160 -0.0915  0.0550 -0.0072
  242MOL    C7548757   7.834   6.691   2.939 -0.5064 -0.1949  0.1049
  242MOL    C7648758   7.749   6.580   2.891 -0.1047 -0.1893  0.8495
  242MOL    H7748759   7.974   6.885   3.071 -0.5658  0.7873  0.7234
  242MOL    H7848760   8.015   6.791   3.205  0.6016 -0.0386 -1.1237
  242MOL    H7948761   7.837   6.769   2.863  0.6450 -2.7155 -2.5456
  242MOL    H8048762   7.736   6.515   2.978  0.3207  0.2749  1.2690
  242MOL    H8148763   7.802   6.527   2.812  0.0093  0.3315  0.5727
  242MOL    C8248764   7.608   6.631   2.842  0.3753  0.1827 -0.5095
  242MOL    C8348765   7.534   6.514   2.782  0.2490 -0.3370 -0.0815
  242MOL   Cl8448766   7.564   6.518   2.614  0.1836 -0.1244  0.1284
  242MOL    C8548767   7.487   6.410   2.850  0.1575 -0.3552  0.6340
  242MOL    C8648768   7.425   6.289   2.788 -0.0915 -0.4848  0.1356
  242MOL    H8748769   7.624   6.712   2.770 -0.9111  1.7637  0.9271
  242MOL    H8848770   7.535   6.666   2.914  1.3008  1.7007 -0.2688
  242MOL    H8948771   7.494   6.400   2.958  0.5629 -1.7548  0.4870
  242MOL    H9048772   7.349   6.254   2.858 -0.4255  1.1463  0.5881
  242MOL    H9148773   7.363   6.322   2.704 -1.4732  0.5719  1.5588
  242MOL    C9248774   7.530   6.175   2.767 -0.0361 -0.9889 -0.1529
  242MOL    C9348775   7.561   6.089   2.885  0.7134 -0.2069 -0.2387
  242MOL   Cl9448776   7.707   6.139   2.974  0.0586 -0.2508  0.3136
  242MOL    C9548777   7.494   5.976   2.921  0.2907 -0.7233  0.0525
  242MOL    C9648778   7.372   5.925   2.843  0.7017 -0.0265 -0.0700
  242MOL    H9748779   7.625   6.223   2.743 -0.0160 -0.7448  0.4100
  242MOL    H9848780   7.501   6.114   2.681 -0.7438  0.4059 -0.9213
  242MOL    H9948781   7.516   5.917   3.008  1.1593  0.7073  0.8261
  242MOL   H10048782   7.292   5.920   2.918  1.3457 -2.4947  0.5092
  242MOL   H10148783   7.335   5.992   2.766  0.1390  1.1671  1.2010
  242MOL   C10248784   7.408   5.800   2.770 -0.0751  0.7697  0.0929
  242MOL   C10348785   7.505   5.829   2.648  0.5991  0.3372  0.3058
  242MOL  Cl10448786   7.422   5.875   2.502  0.0452  0.5733  0.1635
  242MOL   C10548787   7.635   5.806   2.652  0.2313 -0.3228 -0.0537
  242MOL   C10648788   7.734   5.827   2.540 -0.1185 -0.0054 -0.1258
  242MOL   H10748789   7.456   5.726   2.835 -2.3111  0.2564  1.2261
  242MOL   H10848790   7.314   5.758   2.733 -1.4701  1.6172  2.5268
  242MOL   H10948791   7.671   5.782   2.751  1.7272  1.7706 -0.0546
  242MOL   H11048792   7.770   5.726   2.519  0.8232  0.5817 -1.3378
  242MOL   H11148793   7.693   5.882   2.456  0.7242 -0.9549 -1.1717
  242MOL   C11248794   7.843   5.913   2.603 -0.0875  0.1409  0.2308
  242MOL   C11348795   7.919   5.994   2.505 -0.3368  0.0974 -0.2692
  242MOL  Cl11448796   8.076   5.934   2.485 -0.0873  0.1920  0.1013
  242MOL   C11548797   7.886   6.111   2.446 -0.0068 -0.1372  0.2016
  242MOL   C11648798   7.747   6.179   2.455  0.6139  0.7285 -0.2726
  242MOL   H11748799   7.817   5.985   2.681  0.6599  0.2179  0.4106
  242MOL   H11848800   7.912   5.843   2.651 -2.5357 -1.9906  0.7810
  242MOL   H11948801   7.961   6.161   2.386  0.3575 -1.8720 -0.8211
  242MOL   H12048802   7.749   6.266   2.521 -1.0547  0.9135 -0.4606
  242MOL   H12148803   7.679   6.107   2.500  1.5108 -0.6633 -1.0950
  242MOL   C12248804   7.701   6.210   2.312 -0.4972 -0.2801  0.5085
  242MOL   C12348805   7.565   6.269   2.306 -0.2818 -0.1282 -0.7305
  242MOL  Cl12448806   7.448   6.206   2.417  0.1769  0.0122 -0.0074
  242MOL   C12548807   7.522   6.375   2.236 -0.8954  0.7647  0.3428
  242MOL   C12648808   7.599   6.459   2.131 -0.4473  0.2702  0.0873
  242MOL   H12748809   7.770   6.278   2.263  0.7355 -1.2197  0.9012
  242MOL   H12848810   7.707   6.119   2.252 -1.5208 -0.9431  1.3771
  242MOL   H12948811   7.417   6.392   2.248 -1.0374  0.8245 -0.9202
  242MOL   H13048812   7.538   6.544   2.099 -2.0102 -0.0405  2.2005
  242MOL   H13148813   7.687   6.507   2.173  0.7921 -1.3465 -0.6069
  242MOL   C13248814   7.649   6.372   2.007  0.0232  0.3417  0.0343
  242MOL   C13348815   7.545   6.275   1.953  0.2191 -0.0274  0.6489
  242MOL  Cl13448816   7.564   6.104   1.990  0.1387  0.2299 -0.1202
  242MOL   C13548817   7.452   6.297   1.862  0.6272  0.1297  0.5671
  242MOL   C13648818   7.433   6.425   1.777  0.2509 -0.3210 -0.2659
  242MOL   H13748819   7.679   6.438   1.925 -0.0894  1.0249  0.5370
  242MOL   H13848820   7.732   6.308   2.037 -1.1573 -0.9816  0.4974
  242MOL   H13948821   7.381   6.219   1.839  0.4773  0.3838  0.1560
  242MOL   H14048822   7.329   6.459   1.767  0.2227 -0.4897 -0.5686
  242MOL   H14148823   7.484   6.511   1.820  0.4831 -0.0754 -1.0152
  242MOL   C14248824   7.478   6.414   1.632 -1.0848 -0.0697  0.1597
  242MOL   C14348825   7.626   6.453   1.612 -0.1056 -0.4333  0.0759
  242MOL  Cl14448826   7.723   6.321   1.570  0.2979 -0.2315 -0.4266
  242MOL   C14548827   7.677   6.573   1.638 -0.2266 -0.0983  0.0765
  242MOL   C14648828   7.825   6.608   1.623 -0.3878  0.7445 -0.7582
  242MOL   H14748829   7.426   6.481   1.565 -1.3290 -1.2524 -0.8596
  242MOL   H14848830   7.453   6.314   1.595  0.3132 -0.4484  0.1836
  242MOL   H14948831   7.608   6.648   1.671  1.5361  1.8037 -0.4779
  242MOL   H15048832   7.878   6.536   1.560  1.6709  2.3116 -0.8703
  242MOL   H15148833   7.833   6.695   1.557  0.8519  1.7828  0.7237
  242MOL   C15248834   7.901   6.625   1.752  0.6854 -0.2202 -0.0201
  242MOL   C15348835   7.859   6.757   1.819  0.0437  0.2464  0.1249
  242MOL  Cl15448836   7.800   6.728   1.979  0.1026  0.6357 -0.0575
  242MOL   C15548837   7.863   6.882   1.756 -0.4554  0.4143  0.8219
  242MOL   C15648838   7.842   7.018   1.819 -0.2934 -0.1012  0.5587
  242MOL   H15748839   7.890   6.534   1.810  2.0583 -1.5074 -1.7447
  242MOL   H15848840   8.006   6.640   1.727  0.5629 -0.9540 -1.0036
  242MOL   H15948841   7.886   6.866   1.651 -0.3314  2.3314  0.5475
  242MOL   H16048842   7.930   7.079   1.797 -0.8478  0.9627  1.2672
  242MOL   H16148843   7.840   7.000   1.927 -0.0497  0.2300  0.6203
  242MOL   C16248844   7.723   7.085   1.763 -0.1561 -0.2838  0.3863
  242MOL   C16348845   7.710   7.235   1.793  0.5142  0.0502  0.1153
  242MOL  Cl16448846   7.687   7.262   1.959 -0.3313  0.1533 -0.0122
  242MOL   C16548847   7.704   7.341   1.705  0.4781 -0.4610 -0.3470
  242MOL   C16648848   7.676   7.480   1.745 -0.8340 -0.2979  0.0972
  242MOL   H16748849   7.731   7.070   1.656 -0.3051 -2.8768  0.7045
  242MOL   H16848850   7.629   7.042   1.796 -1.2261  1.8556  0.1854
  242MOL   H16948851   7.717   7.333   1.598  1.4867  0.1259 -0.2815
  242MOL   H17048852   7.599   7.511   1.674  0.0044 -0.2869 -0.8143
  242MOL   H17148853   7.629   7.479   1.843  0.7543 -1.8683  0.8658
  242MOL   C17248854   7.801   7.563   1.739 -0.4198  0.2864  0.1805
  242MOL   C17348855   7.771   7.709   1.765  0.1801 -0.2122 -0.1885
  242MOL  Cl17448856   7.829   7.770   1.915 -0.1648 -0.0362  0.0311
  242MOL   C17548857   7.697   7.779   1.678 -0.0561 -0.9740  0.2531
  242MOL   C17648858   7.667   7.929   1.679  0.4462  0.1951  0.3075
  242MOL   H17748859   7.841   7.552   1.638 -1.8323 -0.8565 -0.2641
  242MOL   H17848860   7.883   7.527   1.802 -1.0320 -2.3997 -0.4838
  242MOL   H17948861   7.663   7.727   1.590 -2.3135  3.0300 -1.4213
  242MOL   H18048862   7.709   7.972   1.588 -0.8720  0.4681 -0.1829
  242MOL   H18148863   7.725   7.975   1.759  0.7075 -0.5255  0.5315
  242MOL   C18248864   7.517   7.955   1.694 -0.0747 -0.9409  0.0060
  242MOL   C18348865   7.478   8.099   1.726 -0.2085 -0.0583  0.2210
  242MOL  Cl18448866   7.480   8.207   1.594 -0.5161  0.0085  0.3856
  242MOL   C18548867   7.434   8.130   1.849 -0.0239 -0.4844 -0.1450
  242MOL   C18648868   7.392   8.270   1.878  0.0454  0.0384  0.1410
  242MOL   H18748869   7.478   7.952   1.593 -0.2215  0.0387  0.0313
  242MOL   H18848870   7.463   7.881   1.754 -1.6848  0.6449  0.5411
  242MOL   H18948871   7.433   8.055   1.926 -1.9137  0.3629  0.6939
  242MOL   H19048872   7.485   8.327   1.871 -0.1410  0.2170 -0.9562
  242MOL   H19148873   7.340   8.314   1.793 -1.3340 -0.6349  0.6393
  242MOL   C19248874   7.314   8.286   2.013 -0.4388 -0.6148  0.3473
  242MOL   C19348875   7.275   0.010   2.040 -0.1481 -0.5238  0.3762
  242MOL  Cl19448876   7.104   0.033   2.023  0.2293 -0.0646 -0.1437
  242MOL   C19548877   7.357   0.110   2.074 -0.4442 -0.4205  0.5310
  242MOL   C19648878   7.506   0.093   2.099  0.0306 -0.5305  0.8760
  242MOL   H19748879   7.369   8.241   2.096 -0.7565 -0.1988  0.7879
  242MOL   H19848880   7.225   8.229   1.986 -0.4033 -0.6279  0.2575
  242MOL   H19948881   7.320   0.211   2.084  2.0457  0.7055 -1.0158
  242MOL   H20048882   7.554   0.168   2.036 -2.5902  1.3677  1.0344
  242MOL   H20148883   7.558   8.421   2.080  2.3869  0.7575  0.8123
  242MOL   H20248884   7.527   0.122   2.203 -2.3425 -1.2179  1.5809
  243MOL     C148885   4.635   2.760   1.521 -0.3006  0.1174  0.3439
  243MOL     C248886   4.717   2.854   1.600 -1.0009  0.5879 -0.1581
  243MOL    Cl348887   4.680   2.838   1.767  0.2235  0.3828  0.2566
  243MOL     C448888   4.815   2.939   1.556  0.4269 -0.0369 -0.4942
  243MOL     C548889   4.845   2.966   1.415 -0.9376 -0.4047 -0.0824
  243MOL     H648890   4.603   2.675   1.581  0.1498 -0.2671  0.0451
  243MOL     H748891   4.688   2.708   1.441 -0.3076  1.4176 -0.5212
  243MOL     H848892   4.862   2.996   1.636 -3.1873  1.3758  0.6993
  243MOL     H948893   4.839   2.880   1.348  0.1608 -0.3017 -0.3170
  243MOL    H1048894   4.771   3.041   1.387  0.8238  1.4230  0.0833
  243MOL    H1148895   4.547   2.818   1.492 -0.3030  0.8355  1.7744
  243MOL    C1248896   4.985   3.018   1.389  0.3542  0.0543  0.2990
  243MOL    C1348897   5.023   3.035   1.242 -0.0314  0.0942 -0.6886
  243MOL   Cl1448898   5.017   3.205   1.208 -0.1482 -0.4029  0.1575
  243MOL    C1548899   5.063   2.941   1.151  0.4744  0.3151  0.3484
  243MOL    C1648900   5.072   2.790   1.177  0.4007 -0.2742 -0.2110
  243MOL    H1748901   5.015   3.109   1.442  1.8421  0.1444 -0.6776
  243MOL    H1848902   5.057   2.942   1.419 -0.6090 -0.2652  1.8843
  243MOL    H1948903   5.088   2.960   1.048 -0.9860 -1.8439 -0.4564
  243MOL    H2048904   5.020   2.750   1.264  2.0085 -1.8049  0.0584
  243MOL    H2148905   5.027   2.735   1.095 -0.0382  0.1227 -0.2425
  243MOL    C2248906   5.216   2.750   1.195  0.5129 -0.7479  0.0963
  243MOL    C2348907   5.232   2.603   1.220  0.4657 -0.0991  0.8357
  243MOL   Cl2448908   5.236   2.564   1.392  0.2692  0.3894  0.2439
  243MOL    C2548909   5.228   2.509   1.124 -0.3237  0.8565  0.2314
  243MOL    C2648910   5.240   2.360   1.144  0.3392  0.2485  0.5450
  243MOL    H2748911   5.269   2.792   1.109  2.6502 -2.0829  0.7302
  243MOL    H2848912   5.265   2.797   1.280  0.8652 -2.1152  0.6530
  243MOL    H2948913   5.224   2.535   1.020  0.0483  0.9139  0.2315
  243MOL    H3048914   5.348   2.345   1.147  0.1993 -0.6433  1.3509
  243MOL    H3148915   5.207   2.351   1.247 -0.5134  0.3351  0.2811
  243MOL    C3248916   5.160   2.266   1.049  0.7292  0.1658 -0.0648
  243MOL    C3348917   5.207   2.116   1.070  0.1428  0.6612 -0.4930
  243MOL   Cl3448918   5.222   2.032   0.926 -0.0215  0.2926 -0.4750
  243MOL    C3548919   5.226   2.053   1.192  0.7222 -0.5871  0.2462
  243MOL    C3648920   5.272   1.917   1.212 -0.3927 -0.2208  0.7216
  243MOL    H3748921   5.053   2.270   1.070  0.2621 -1.2876 -2.0663
  243MOL    H3848922   5.172   2.294   0.944  0.9714  0.1545 -0.0401
  243MOL    H3948923   5.209   2.108   1.284 -0.0143  0.2194 -0.3617
  243MOL    H4048924   5.244   1.853   1.129  0.0431  2.9833 -1.9747
  243MOL    H4148925   5.378   1.912   1.190 -0.6953 -0.7587 -0.6557
  243MOL    C4248926   5.214   1.844   1.336 -0.3398 -0.0721 -0.4452
  243MOL    C4348927   5.279   1.709   1.352 -0.1237 -0.5713  0.0698
  243MOL   Cl4448928   5.413   1.713   1.459  0.1518 -0.2469 -0.1593
  243MOL    C4548929   5.239   1.592   1.299 -0.1731 -0.5098 -0.2594
  243MOL    C4648930   5.127   1.581   1.198  0.0624  0.2773  0.5161
  243MOL    H4748931   5.236   1.902   1.426 -0.6492 -0.9341  0.1973
  243MOL    H4848932   5.105   1.833   1.334 -0.7200  3.2568 -0.2634
  243MOL    H4948933   5.275   1.492   1.317  1.9488 -0.2174 -2.6193
  243MOL    H5048934   5.095   1.678   1.162 -2.1909 -0.4964  0.3818
  243MOL    H5148935   5.156   1.501   1.130  1.7296  2.5379 -1.5050
  243MOL    C5248936   5.000   1.517   1.264  0.4599 -0.5269 -0.0262
  243MOL    C5348937   4.899   1.468   1.165  0.2860  0.3650  0.5960
  243MOL   Cl5448938   4.856   1.600   1.051  0.1855  0.5450  0.0508
  243MOL    C5548939   4.858   1.339   1.136  0.8563  0.0199  0.4137
  243MOL    C5648940   4.781   1.309   1.009 -0.0732  0.4192 -0.0687
  243MOL    H5748941   5.030   1.432   1.326 -2.6287  0.3623  2.8465
  243MOL    H5848942   4.958   1.594   1.328  1.9748 -0.0078  0.3799
  243MOL    H5948943   4.884   1.262   1.207  0.9287 -0.9003 -0.6005
  243MOL    H6048944   4.794   1.374   0.923  0.9896 -1.3115 -1.2598
  243MOL    H6148945   4.823   1.214   0.974 -2.2697 -0.3438 -0.7185
  243MOL    C6248946   4.637   1.292   1.055  0.4244 -0.1927  0.4628
  243MOL    C6348947   4.548   1.217   0.960 -0.2567 -0.1562 -0.0873
  243MOL   Cl6448948   4.483   1.318   0.841  0.2012 -0.1258  0.0188
  243MOL    C6548949   4.515   1.089   0.970 -0.4387  0.4731  0.1409
  243MOL    C6648950   4.426   1.014   0.882 -0.3369  0.3195  0.3270
  243MOL    H6748951   4.641   1.238   1.149  0.6108 -0.7482  0.1354
  243MOL    H6848952   4.587   1.388   1.072 -0.5415 -0.5481 -0.2896
  243MOL    H6948953   4.576   1.033   1.040  0.4655 -0.3117 -1.2480
  243MOL    H7048954   4.491   0.971   0.806 -2.5451 -0.0726 -1.4030
  243MOL    H7148955   4.358   1.094   0.853  0.9793  0.3529 -2.9108
  243MOL    C7248956   4.370   0.895   0.963 -0.9123 -0.8706 -0.0468
  243MOL    C7348957   4.239   0.838   0.901 -0.2610  0.2285 -0.6596
  243MOL   Cl7448958   4.102   0.911   0.965  0.0167 -0.3898 -0.1884
  243MOL    C7548959   4.232   0.752   0.793  0.5495  1.0437 -0.0394
  243MOL    C7648960   4.106   0.697   0.727  0.1427  0.1831 -0.3383
  243MOL    H7748961   4.341   0.927   1.063 -0.8354  0.4708 -0.4428
  243MOL    H7848962   4.450   0.821   0.955 -0.2697 -0.3104  1.1660
  243MOL    H7948963   4.320   0.708   0.748  0.6719  0.5318  0.6810
  243MOL    H8048964   4.122   0.680   0.621  0.6828 -2.6099  0.1289
  243MOL    H8148965   4.026   0.770   0.735  0.9292  0.8335  2.0468
  243MOL    C8248966   4.044   0.577   0.807  0.3265 -0.2061 -0.3164
  243MOL    C8348967   3.913   0.516   0.738 -0.3426  0.0639  0.3048
  243MOL   Cl8448968   3.937   0.489   0.570  0.0744  0.1603  0.1586
  243MOL    C8548969   3.799   0.476   0.799  0.2451  0.8253  0.0130
  243MOL    C8648970   3.677   0.416   0.736 -0.1214 -0.2885 -0.1279
  243MOL    H8748971   4.011   0.605   0.907 -0.5612 -0.2216 -0.6006
  243MOL    H8848972   4.115   0.495   0.812  0.3683 -0.1148  0.7702
  243MOL    H8948973   3.793   0.490   0.906  2.5020  1.6986  0.0389
  243MOL    H9048974   3.587   0.475   0.752  0.2069 -0.4876  2.6084
  243MOL    H9148975   3.695   0.417   0.628  2.4447  0.2336  0.2582
  243MOL    C9248976   3.660   0.261   0.758 -0.0475  0.1532  0.4447
  243MOL    C9348977   3.760   0.184   0.662  0.3247  0.0991 -0.1269
  243MOL   Cl9448978   3.678   0.116   0.525  0.0440  0.4403 -0.3133
  243MOL    C9548979   3.893   0.159   0.677  0.6547 -0.4386 -0.0182
  243MOL    C9648980   3.993   0.199   0.777  0.1898 -0.2237 -0.1456
  243MOL    H9748981   3.561   0.225   0.731 -0.4403  2.4946 -1.4911
  243MOL    H9848982   3.681   0.231   0.861  0.8788 -0.8123 -0.0091
  243MOL    H9948983   3.930   0.099   0.595 -1.2928  0.4046 -1.5585
  243MOL   H10048984   4.054   0.280   0.737 -0.5388  1.1794  1.5372
  243MOL   H10148985   3.932   0.237   0.858  1.2873  0.5971  0.3103
  243MOL   C10248986   4.080   0.082   0.828 -0.1835 -0.2984  0.0407
  243MOL   C10348987   4.199   0.139   0.902  0.3397 -0.0774  0.0666
  243MOL  Cl10448988   4.311   0.216   0.791 -0.1735 -0.0598  0.1936
  243MOL   C10548989   4.211   0.141   1.040  0.1067 -0.0673  0.5957
  243MOL   C10648990   4.333   0.202   1.105 -0.1954 -0.2273  0.8280
  243MOL   H10748991   4.036   0.006   0.892  0.8628 -0.6456  0.3490
  243MOL   H10848992   4.118   0.026   0.743  0.4292  1.0112 -0.5733
  243MOL   H10948993   4.134   0.100   1.103 -1.4276  1.1711 -0.4092
  243MOL   H11048994   4.384   0.279   1.047 -2.4252 -1.6409 -3.1502
  243MOL   H11148995   4.287   0.249   1.193 -0.8358 -3.0528  2.0544
  243MOL   C11248996   4.438   0.096   1.140 -0.9471 -0.2155  0.3543
  243MOL   C11348997   4.560   0.155   1.205 -0.4972 -0.5729 -1.5824
  243MOL  Cl11448998   4.570   0.128   1.379  0.1595  0.0314 -0.2308
  243MOL   C11548999   4.659   0.222   1.148 -0.0248 -0.0845  0.3232
  243MOL   C11649000   4.660   0.256   0.996  0.7591  0.0758 -0.5451
  243MOL   H11749001   4.395   0.028   1.213  0.0919  0.9479  2.0618
  243MOL   H11849002   4.465   0.041   1.049  2.6248  2.1254 -0.1025
  243MOL   H11949003   4.745   0.258   1.203 -1.6852  0.6524  2.5170
  243MOL   H12049004   4.576   0.221   0.936  0.9349 -0.2758 -0.5854
  243MOL   H12149005   4.747   0.200   0.965 -1.1023 -2.0282 -2.1181
  243MOL   C12249006   4.678   0.398   0.965  0.4210  0.3935  0.2111
  243MOL   C12349007   4.717   0.405   0.822  0.5134  0.0754  0.3332
  243MOL  Cl12449008   4.585   0.464   0.722  0.5800  0.2556  0.1837
  243MOL   C12549009   4.837   0.400   0.771  0.3712 -0.0928  0.5342
  243MOL   C12649010   4.961   0.386   0.850  0.1220 -0.1276  0.2328
  243MOL   H12749011   4.581   0.446   0.980 -0.5832 -1.9259  1.4418
  243MOL   H12849012   4.755   0.441   1.029  1.4796  0.2691 -0.9681
  243MOL   H12949013   4.851   0.415   0.665  2.0339 -0.3679  0.7006
  243MOL   H13049014   4.944   0.335   0.945  3.8140 -0.3771  0.8421
  243MOL   H13149015   5.041   0.345   0.788 -0.2519 -1.2343  0.4772
  243MOL   C13249016   5.001   0.534   0.902  0.0935  0.4682  0.0694
  243MOL   C13349017   5.102   0.525   1.013  0.2900 -0.0468  0.8209
  243MOL  Cl13449018   5.040   0.566   1.168  0.1841  0.1858  0.3187
  243MOL   C13549019   5.231   0.493   1.000 -0.0262  0.5937 -0.5322
  243MOL   C13649020   5.301   0.451   0.876 -0.0659  0.6489 -1.0953
  243MOL   H13749021   5.046   0.580   0.814  0.0763  2.0324  0.8615
  243MOL   H13849022   4.912   0.588   0.933 -2.2118 -3.1364 -0.0019
  243MOL   H13949023   5.293   0.488   1.088 -0.2082 -2.8248 -0.5394
  243MOL   H14049024   5.347   0.355   0.901  1.0687  1.1606 -1.2002
  243MOL   H14149025   5.232   0.442   0.792 -2.9332  1.9009  1.0652
  243MOL   C14249026   5.404   0.551   0.828 -0.5653 -0.1777 -0.6543
  243MOL   C14349027   5.461   0.517   0.691 -0.2366 -1.1948 -0.1024
  243MOL  Cl14449028   5.585   0.399   0.706  0.2872 -0.4089 -0.3028
  243MOL   C14549029   5.407   0.567   0.574  0.9791 -0.8792  0.0969
  243MOL   C14649030   5.471   0.522   0.442 -0.0471 -0.0358  0.0683
  243MOL   H14749031   5.480   0.566   0.904 -1.0452  0.4363 -0.2893
  243MOL   H14849032   5.364   0.652   0.818 -1.5889 -0.5365 -0.2988
  243MOL   H14949033   5.326   0.639   0.572 -0.0969 -2.0882 -2.0450
  243MOL   H15049034   5.510   0.420   0.449  3.4197  1.0963 -1.6488
  243MOL   H15149035   5.392   0.515   0.367  1.6249 -1.2754 -1.6255
  243MOL   C15249036   5.593   0.593   0.398 -0.3183 -0.5724 -0.4561
  243MOL   C15349037   5.646   0.549   0.266  0.3247  0.3685  0.1337
  243MOL  Cl15449038   5.594   0.653   0.147 -0.3299 -0.0841 -0.3390
  243MOL   C15549039   5.732   0.450   0.251  0.2549  0.6811 -0.1470
  243MOL   C15649040   5.799   0.398   0.125 -0.6307  0.7279  0.3379
  243MOL   H15749041   5.572   0.700   0.398 -1.3478 -0.7272 -4.2087
  243MOL   H15849042   5.665   0.567   0.476  0.0334  1.5158 -0.0284
  243MOL   H15949043   5.757   0.409   0.347 -2.9049  0.7914  0.7860
  243MOL   H16049044   5.900   0.439   0.123 -0.2368 -0.2622 -2.3494
  243MOL   H16149045   5.746   0.432   0.036  0.2489 -0.3401 -0.6074
  243MOL   C16249046   5.813   0.248   0.130 -0.5129  0.0405  0.2513
  243MOL   C16349047   5.873   0.190   0.258 -0.6084  0.0072 -0.7951
  243MOL  Cl16449048   5.772   0.051   0.307 -0.1504 -0.6100  0.2054
  243MOL   C16549049   5.985   0.236   0.319 -0.0064 -0.4570  0.2933
  243MOL   C16649050   6.047   0.161   0.433  0.3378 -0.2246 -0.1866
  243MOL   H16749051   5.711   0.208   0.122  0.5280 -2.5910 -0.2272
  243MOL   H16849052   5.860   0.210   0.040 -1.9607  1.0765 -0.9782
  243MOL   H16949053   6.042   0.321   0.284  2.3464 -2.4030 -0.7207
  243MOL   H17049054   5.976   0.091   0.478  1.6711 -0.4494  1.5781
  243MOL   H17149055   6.123   0.101   0.383  0.4353  1.6672 -2.4369
  243MOL   C17249056   6.118   0.254   0.538 -0.3419  0.7192 -0.2608
  243MOL   C17349057   6.225   0.190   0.620  0.3385 -0.2983  0.5091
  243MOL  Cl17449058   6.330   0.309   0.692 -0.4380 -0.1647 -0.3314
  243MOL   C17549059   6.259   0.061   0.631 -0.2042  0.1045  0.6772
  243MOL   C17649060   6.373   0.004   0.705  0.0466  0.4756 -0.1589
  243MOL   H17749061   6.045   0.300   0.604  1.6899  3.3220  0.2461
  243MOL   H17849062   6.165   0.337   0.485 -1.4510  0.1646 -2.1496
  243MOL   H17949063   6.203   8.404   0.582  0.3951  0.1644 -0.1278
  243MOL   H18049064   6.334   8.337   0.757  0.4646  0.2493 -0.2212
  243MOL   H18149065   6.412   0.065   0.787  0.7950 -0.7218  0.4110
  243MOL   C18249066   6.479   8.392   0.613 -0.3996  0.0167 -0.6663
  243MOL   C18349067   6.608   8.357   0.678  0.3836  0.3726 -0.4376
  243MOL  Cl18449068   6.716   0.066   0.680  0.1495  0.3174 -0.5765
  243MOL   C18549069   6.648   8.239   0.730 -0.0284  0.5157 -0.4637
  243MOL   C18649070   6.774   8.215   0.796 -0.0010 -0.0968 -0.2080
  243MOL   H18749071   6.443   8.312   0.547 -1.7432 -0.2134  0.3309
  243MOL   H18849072   6.502   0.058   0.551 -0.1051 -0.2308 -0.9080
  243MOL   H18949073   6.580   8.156   0.720  0.3083 -0.0167  1.4494
  243MOL   H19049074   6.857   8.278   0.765  0.8290  0.1585  2.3873
  243MOL   H19149075   6.748   8.233   0.900 -1.0294  0.7572 -0.5956
  243MOL   C19249076   6.813   8.059   0.795  0.2183 -0.8528 -0.1532
  243MOL   C19349077   6.943   8.018   0.852  0.4532 -0.3672 -0.4482
  243MOL  Cl19449078   7.065   7.993   0.727  0.1625  0.0245 -0.3365
  243MOL   C19549079   6.970   7.997   0.982 -0.0496  0.1750 -0.2144
  243MOL   C19649080   6.882   8.025   1.100 -0.1377 -0.0821 -0.3153
  243MOL   H19749081   6.804   8.024   0.692  0.2924  0.8062 -0.7277
  243MOL   H19849082   6.746   7.999   0.858 -0.1851  0.4565  0.6863
  243MOL   H19949083   7.066   7.953   1.004 -0.7073  0.4364  3.5855
  243MOL   H20049084   6.947   8.079   1.169  0.7250 -1.7432  0.2134
  243MOL   H20149085   6.833   7.943   1.152  2.8759 -1.3264  0.6820
  243MOL   H20249086   6.808   8.092   1.057 -0.9690 -1.3231 -0.8547
  244MOL     C149087   0.220   0.326   0.600  0.6753  0.1249 -0.8977
  244MOL     C249088   0.284   0.202   0.648 -0.0033  0.0281 -0.0630
  244MOL    Cl349089   0.247   0.184   0.813  0.1267  0.0021  0.0596
  244MOL     C449090   0.371   0.123   0.589 -1.4517  0.2304 -0.7215
  244MOL     C549091   0.416   0.133   0.442 -0.1676 -0.0875 -0.1387
  244MOL     H649092   0.278   0.409   0.641  1.2064 -1.2746  1.2826
  244MOL     H749093   0.121   0.337   0.644  2.1160  0.6127  2.3806
  244MOL     H849094   0.415   0.043   0.646  0.3137  0.0456 -2.2825
  244MOL     H949095   0.337   0.176   0.380 -0.9651  1.3235  1.7972
  244MOL    H1049096   0.498   0.205   0.437  1.3763 -1.8352 -0.6442
  244MOL    H1149097   0.215   0.347   0.493  2.3521  2.2449 -0.6154
  244MOL    C1249098   0.454   0.004   0.380  0.6115  0.0361 -0.9507
  244MOL    C1349099   0.481   0.018   0.236 -0.0246  0.2593  0.3535
  244MOL   Cl1449100   0.358   8.369   0.134 -0.2005  0.0636  0.4590
  244MOL    C1549101   0.588   0.071   0.183 -0.3942  0.2146 -0.0988
  244MOL    C1649102   0.692   0.140   0.265  0.3587  0.5443 -0.4196
  244MOL    H1749103   0.538   8.378   0.431 -1.0600 -1.3061  0.6404
  244MOL    H1849104   0.369   8.356   0.388  0.3911  0.3769 -0.3230
  244MOL    H1949105   0.600   0.066   0.076 -1.5174  0.7463 -0.2550
  244MOL    H2049106   0.658   0.243   0.268 -4.0646 -0.7887 -0.6546
  244MOL    H2149107   0.687   0.100   0.367  1.2441 -1.5156 -1.1563
  244MOL    C2249108   0.830   0.131   0.212 -0.6705  0.1056 -0.5612
  244MOL    C2349109   0.932   0.184   0.319  0.2212 -0.0541  0.5793
  244MOL   Cl2449110   0.960   0.356   0.295 -0.3559  0.2001 -0.0200
  244MOL    C2549111   0.985   0.114   0.416  0.3463 -0.4010  0.2628
  244MOL    C2649112   1.072   0.172   0.528  0.1514  0.1477 -0.3782
  244MOL    H2749113   0.858   0.027   0.194  1.4502  0.2014  1.8349
  244MOL    H2849114   0.835   0.176   0.113  0.2217 -0.6249 -0.8598
  244MOL    H2949115   0.961   0.009   0.422 -1.1612  0.0058  1.6195
  244MOL    H3049116   1.127   0.260   0.493  1.9217 -1.2035 -1.0918
  244MOL    H3149117   0.998   0.211   0.598  1.1722 -1.2550  1.5478
  244MOL    C3249118   1.178   0.074   0.570 -0.9109  0.1643 -0.8722
  244MOL    C3349119   1.255   0.118   0.692  0.4765  0.0878  0.3951
  244MOL   Cl3449120   1.326   8.401   0.776  0.3222 -0.3500  0.0884
  244MOL    C3549121   1.263   0.247   0.731 -0.5650  0.2158 -0.6183
  244MOL    C3649122   1.334   0.299   0.854  0.3408 -0.6730  0.0231
  244MOL    H3749123   1.124   8.404   0.593  0.5947 -0.2147  1.3215
  244MOL    H3849124   1.251   0.057   0.491  1.5156 -0.9871  1.5359
  244MOL    H3949125   1.221   0.332   0.679 -1.1911  0.3057  0.0231
  244MOL    H4049126   1.417   0.238   0.887  0.0296 -1.5931 -0.8837
  244MOL    H4149127   1.377   0.399   0.844 -0.1728 -0.1197  2.9000
  244MOL    C4249128   1.233   0.308   0.963 -0.0600  0.1430 -0.2660
  244MOL    C4349129   1.275   0.381   1.090  0.2226  0.0014  0.4302
  244MOL   Cl4449130   1.350   0.274   1.192 -0.5672 -0.2260  0.2344
  244MOL    C4549131   1.241   0.509   1.119 -1.0701  0.5003 -0.1439
  244MOL    C4649132   1.164   0.610   1.038 -0.0549 -0.0714  0.1209
  244MOL    H4749133   1.141   0.352   0.925 -1.7327 -1.1944  2.0815
  244MOL    H4849134   1.204   0.208   0.995 -1.1370 -0.4148 -2.8434
  244MOL    H4949135   1.276   0.545   1.215 -1.0918 -0.7647  0.3499
  244MOL    H5049136   1.170   0.576   0.935  0.2937  0.4708 -0.0390
  244MOL    H5149137   1.061   0.598   1.070 -0.0111 -0.1828  0.2207
  244MOL    C5249138   1.214   0.761   1.052  0.4234 -0.6824  0.2651
  244MOL    C5349139   1.124   0.857   0.989 -0.5244 -0.3710  0.6264
  244MOL   Cl5449140   0.982   0.888   1.080 -0.0205  0.2085 -0.0965
  244MOL    C5549141   1.146   0.917   0.871 -0.0512  0.5883 -0.3417
  244MOL    C5649142   1.047   1.016   0.809 -0.4765 -0.0602  0.4793
  244MOL    H5749143   1.236   0.787   1.156  0.2695  0.8728 -0.0830
  244MOL    H5849144   1.310   0.793   1.010  0.0373 -0.1167 -0.1876
  244MOL    H5949145   1.238   0.892   0.819  0.8472  2.7953  0.1556
  244MOL    H6049146   0.970   0.953   0.764  1.9970 -1.0119 -2.6195
  244MOL    H6149147   1.006   1.077   0.890 -0.7787  1.4303 -0.7788
  244MOL    C6249148   1.104   1.107   0.699  0.2129  0.0343  0.2039
  244MOL    C6349149   1.035   1.239   0.704  0.1594 -0.1149 -0.2234
  244MOL   Cl6449150   1.137   1.365   0.765  0.2016  0.0883  0.0716
  244MOL    C6549151   0.923   1.261   0.637 -0.6508 -0.0858 -0.1023
  244MOL    C6649152   0.863   1.399   0.624 -0.3085  0.0831  0.6724
  244MOL    H6749153   1.209   1.122   0.724  0.9692 -1.1401 -2.1283
  244MOL    H6849154   1.102   1.070   0.596 -1.3804 -0.1731  0.2973
  244MOL    H6949155   0.874   1.175   0.593 -0.0647 -1.2614  1.5273
  244MOL    H7049156   0.931   1.481   0.648  3.5721 -2.8833  0.3859
  244MOL    H7149157   0.811   1.387   0.719 -0.8592  0.1952  0.3858
  244MOL    C7249158   0.778   1.410   0.497  0.0356  0.5523 -0.8329
  244MOL    C7349159   0.674   1.525   0.498 -0.7092 -0.0256 -0.5309
  244MOL   Cl7449160   0.522   1.459   0.442  0.1473  0.1321  0.0276
  244MOL    C7549161   0.698   1.656   0.519  0.0889 -0.2142  0.3642
  244MOL    C7649162   0.589   1.761   0.499 -0.4962 -0.4087  0.6834
  244MOL    H7749163   0.727   1.314   0.485  1.5619 -0.4262  0.3554
  244MOL    H7849164   0.837   1.419   0.406 -0.5968  0.6286 -1.2408
  244MOL    H7949165   0.794   1.692   0.550 -0.1824  1.6499 -0.8364
  244MOL    H8049166   0.575   1.806   0.597 -2.0956 -0.1254  0.3359
  244MOL    H8149167   0.497   1.706   0.481 -0.5255  0.0844 -0.7587
  244MOL    C8249168   0.627   1.872   0.391 -0.3423  0.4711  0.3982
  244MOL    C8349169   0.543   2.000   0.405 -0.2057  0.2286 -0.3241
  244MOL   Cl8449170   0.394   2.010   0.317 -0.2226  0.1722  0.1638
  244MOL    C8549171   0.591   2.105   0.480 -0.0661  0.0826  0.4197
  244MOL    C8649172   0.522   2.231   0.520  0.7580 -0.5125  0.3917
  244MOL    H8749173   0.606   1.830   0.292 -2.3070 -1.0699  1.4167
  244MOL    H8849174   0.733   1.893   0.404 -0.2351  0.3003 -0.1767
  244MOL    H8949175   0.689   2.095   0.524 -0.8671  0.2694  2.2929
  244MOL    H9049176   0.593   2.310   0.498 -2.9067  2.0857 -2.6541
  244MOL    H9149177   0.431   2.236   0.460  0.9181 -1.2646  0.0726
  244MOL    C9249178   0.475   2.238   0.666 -0.2941  0.5426  0.1544
  244MOL    C9349179   0.357   2.329   0.699  0.4255 -0.5741  0.5976
  244MOL   Cl9449180   0.411   2.481   0.741  0.5218  0.1974  0.2595
  244MOL    C9549181   0.226   2.306   0.689 -0.1203  0.1900 -0.3244
  244MOL    C9649182   0.169   2.169   0.644  0.4490  0.6650  0.5629
  244MOL    H9749183   0.566   2.276   0.712  1.3171  1.3183 -3.4834
  244MOL    H9849184   0.456   2.133   0.692 -0.8783  0.8485  0.9751
  244MOL    H9949185   0.149   2.377   0.717 -1.6700 -1.3777 -0.4934
  244MOL   H10049186   0.246   2.127   0.579 -1.4364 -2.0504 -0.0167
  244MOL   H10149187   0.167   2.093   0.722  1.5290  1.1920  1.1141
  244MOL   C10249188   0.040   2.184   0.572  0.2839 -0.6284 -0.0578
  244MOL   C10349189   8.406   2.049   0.515  0.1550 -0.3262  0.0513
  244MOL  Cl10449190   8.292   1.970   0.608  0.4376 -0.2304  0.5468
  244MOL   C10549191   0.033   1.995   0.400 -0.4959 -0.0190 -0.5290
  244MOL   C10649192   8.410   1.858   0.347  0.0495 -0.6850  0.0598
  244MOL   H10749193   8.382   2.222   0.636  1.5567 -0.5918  1.5194
  244MOL   H10849194   0.051   2.249   0.486 -1.6469  0.2638  0.3626
  244MOL   H10949195   0.111   2.044   0.344 -0.4536 -0.8476 -1.2003
  244MOL   H11049196   8.306   1.849   0.377  0.0871  0.8511  0.7050
  244MOL   H11149197   8.417   1.866   0.239 -1.5754  0.4365  0.0283
  244MOL   C11249198   0.072   1.747   0.423  0.4119 -0.0949 -0.0130
  244MOL   C11349199   0.034   1.598   0.393  0.4293 -0.2281  0.1215
  244MOL  Cl11449200   0.118   1.531   0.264 -0.1813 -0.1395 -0.1341
  244MOL   C11549201   8.371   1.523   0.469  0.1328  0.2347  0.8127
  244MOL   C11649202   8.289   1.580   0.577  0.2944  0.3513  0.4465
  244MOL   H11749203   0.176   1.769   0.399 -0.0935  1.0918 -1.1148
  244MOL   H11849204   0.064   1.765   0.531  0.7391 -1.2222  0.2083
  244MOL   H11949205   8.360   1.417   0.449  1.0790  0.2469  0.1317
  244MOL   H12049206   8.186   1.552   0.556 -0.4502  3.0521  0.3469
  244MOL   H12149207   8.270   1.687   0.581 -0.9159  0.1408  0.5210
  244MOL   C12249208   8.321   1.520   0.712  0.0848  0.3409  0.0876
  244MOL   C12349209   8.238   1.573   0.827 -0.1077 -0.1064 -0.4765
  244MOL  Cl12449210   8.288   1.725   0.882 -0.2413  0.0776  0.1325
  244MOL   C12549211   8.129   1.508   0.884 -0.1116 -0.1160  0.1989
  244MOL   C12649212   8.059   1.383   0.844  0.2074 -1.0290 -0.0239
  244MOL   H12749213   8.310   1.412   0.712  0.9554  0.2464  0.3115
  244MOL   H12849214   0.002   1.539   0.744  0.3115 -1.2863  0.3663
  244MOL   H12949215   8.090   1.557   0.972  2.9729 -2.7127  3.1824
  244MOL   H13049216   8.116   1.318   0.777  0.1012  1.4555 -2.5823
  244MOL   H13149217   8.040   1.335   0.940 -0.1294  0.3300  0.6009
  244MOL   C13249218   7.923   1.415   0.778  0.2967  0.5309 -0.3705
  244MOL   C13349219   7.835   1.291   0.767  0.3663  0.0879 -0.3397
  244MOL  Cl13449220   7.732   1.281   0.901 -0.0219  0.0219  0.1621
  244MOL   C13549221   7.808   1.219   0.659 -0.1331  0.5025  0.8334
  244MOL   C13649222   7.864   1.238   0.512  1.1017  0.2088 -0.1384
  244MOL   H13749223   7.870   1.489   0.838  0.9035 -0.2083  1.0925
  244MOL   H13849224   7.940   1.455   0.677  0.5628  1.2164 -0.0614
  244MOL   H13949225   7.732   1.143   0.672  1.7172 -1.5254  0.2189
  244MOL   H14049226   7.784   1.286   0.456  0.4357  0.3371  0.9005
  244MOL   H14149227   7.936   1.319   0.501  0.1054  1.2465  0.8522
  244MOL   C14249228   7.902   1.113   0.430  0.5301  0.2320  0.1652
  244MOL   C14349229   8.047   1.072   0.461 -0.5256  0.0677  0.2239
  244MOL  Cl14449230   8.162   1.097   0.333 -0.2813 -0.0901 -0.1249
  244MOL   C14549231   8.089   1.021   0.578 -0.1711 -0.9702  0.2533
  244MOL   C14649232   8.227   0.971   0.612  0.3023 -0.3436  0.4152
  244MOL   H14749233   7.875   1.130   0.326 -1.0637  4.4651  1.1688
  244MOL   H14849234   7.835   1.029   0.446  2.3767 -1.6739 -1.7959
  244MOL   H14949235   8.015   1.003   0.654 -0.5258 -0.6919 -0.0210
  244MOL   H15049236   8.213   0.866   0.640  1.9593 -0.5541  0.5425
  244MOL   H15149237   8.291   0.973   0.524  1.7780  0.2166  1.4806
  244MOL   C15249238   8.303   1.050   0.719 -0.4867 -0.3542 -0.2202
  244MOL   C15349239   0.032   1.024   0.720 -0.3123  0.5292 -0.0625
  244MOL  Cl15449240   0.109   1.166   0.661 -0.0332  0.0524  0.4114
  244MOL   C15549241   0.092   0.912   0.750 -0.2148  0.1120 -0.4274
  244MOL   C15649242   0.245   0.891   0.752 -0.1807  0.4658  0.9958
  244MOL   H15749243   8.293   1.156   0.698  0.7251 -0.0391  0.7578
  244MOL   H15849244   8.253   1.034   0.815 -2.5427  3.2659 -0.6179
  244MOL   H15949245   0.027   0.834   0.786  0.3407 -0.0442  0.2505
  244MOL   H16049246   0.297   0.984   0.726  0.7464 -0.0210  1.0901
  244MOL   H16149247   0.261   0.829   0.664 -0.9490 -1.0726  1.9115
  244MOL   C16249248   0.286   0.823   0.888  0.8998 -0.6720 -0.1965
  244MOL   C16349249   0.422   0.754   0.887 -0.3681 -0.4855 -0.2102
  244MOL  Cl16449250   0.490   0.736   1.047 -0.2152 -0.1200 -0.1583
  244MOL   C16549251   0.474   0.687   0.781 -1.2011  0.1169  0.1102
  244MOL   C16649252   0.607   0.615   0.789 -0.5457 -0.3334  0.3220
  244MOL   H16749253   0.268   0.891   0.972  1.1315 -1.8510  0.8385
  244MOL   H16849254   0.221   0.739   0.917  1.2615 -2.0034 -3.0535
  244MOL   H16949255   0.425   0.688   0.685  0.5290  1.2549 -0.8001
  244MOL   H17049256   0.689   0.680   0.759 -0.8479 -0.6695 -1.2949
  244MOL   H17149257   0.639   0.595   0.892 -0.1795  1.8425  0.6458
  244MOL   C17249258   0.604   0.487   0.703  0.4281  0.4338 -0.1578
  244MOL   C17349259   0.725   0.403   0.739 -0.3517  0.5664 -0.1988
  244MOL  Cl17449260   0.872   0.488   0.690 -0.1609  0.3995  0.3068
  244MOL   C17549261   0.733   0.283   0.791  0.8508 -0.1823 -0.1955
  244MOL   C17649262   0.855   0.205   0.840  0.9426 -0.4645 -0.1950
  244MOL   H17749263   0.587   0.495   0.596  1.1744 -0.4657 -0.3557
  244MOL   H17849264   0.513   0.439   0.739  1.0050  0.2603  1.0846
  244MOL   H17949265   0.640   0.227   0.800  1.0516 -0.4315  0.3815
  244MOL   H18049266   0.941   0.271   0.845  0.5790 -0.0440  0.6327
  244MOL   H18149267   0.874   0.125   0.769 -0.1412  0.1719 -1.2265
  244MOL   C18249268   0.835   0.153   0.982 -0.2744  0.0325  0.3502
  244MOL   C18349269   0.963   0.101   1.049  0.8378 -0.3765  0.3356
  244MOL  Cl18449270   0.990   0.167   1.203 -0.0001  0.5579  0.2728
  244MOL   C18549271   1.041   0.006   0.993  0.4813  0.0548 -0.4226
  244MOL   C18649272   1.164   8.360   1.059 -0.1329  0.5012 -1.1055
  244MOL   H18749273   0.793   0.242   1.029 -3.4684 -0.4847 -1.3987
  244MOL   H18849274   0.768   0.067   0.987  0.7505 -0.8662 -1.3285
  244MOL   H18949275   1.016   8.405   0.891  0.2565  0.6433 -0.4990
  244MOL   H19049276   1.257   8.406   1.023  0.2202  0.3129 -0.4583
  244MOL   H19149277   1.163   8.377   1.167 -0.9077 -1.9482 -0.7042
  244MOL   C19249278   1.168   8.207   1.044 -0.4389 -0.2889 -0.1047
  244MOL   C19349279   1.286   8.132   1.103 -0.4255  0.8103 -0.2065
  244MOL  Cl19449280   1.405   8.239   1.169  0.0908 -0.1302 -0.2692
  244MOL   C19549281   1.294   7.998   1.112  0.2775  0.0393 -0.2652
  244MOL   C19649282   1.197   7.897   1.065 -0.2897  0.0647 -0.2638
  244MOL   H19749283   1.163   8.177   0.939  0.0619  0.1121 -0.2472
  244MOL   H19849284   1.085   8.162   1.099 -1.8194  1.6935 -0.4948
  244MOL   H19949285   1.384   7.957   1.158  1.9592  3.0395 -0.7620
  244MOL   H20049286   1.248   7.816   1.013 -0.4714  0.0678 -0.4472
  244MOL   H20149287   1.131   7.941   0.990  0.8102  1.4010 -0.4747
  244MOL   H20249288   1.139   7.869   1.152  0.8354  1.5827  1.0153
  245MOL     C149289   3.372   2.528   8.234  0.6282  0.0974 -0.1118
  245MOL     C249290   3.456   2.547   8.113  0.4114  0.1460 -0.6475
  245MOL    Cl349291   3.617   2.494   8.149  0.1202 -0.4492  0.0527
  245MOL     C449292   3.407   2.590   7.995 -0.3321 -0.5218  0.3201
  245MOL     C549293   3.270   2.638   7.967 -0.0018  0.0015  0.7350
  245MOL     H649294   3.307   2.608   8.271 -0.0687 -0.0530 -0.9883
  245MOL     H749295   3.436   2.503   8.318 -0.6446 -0.8004  0.6012
  245MOL     H849296   3.464   2.601   7.904 -0.2226 -1.0449  0.3237
  245MOL     H949297   3.264   2.619   7.860 -0.7579  3.5387  0.0619
  245MOL    H1049298   3.186   2.592   8.019 -0.1011  2.7095  3.1232
  245MOL    H1149299   3.312   2.440   8.215 -0.3315  0.4534  1.2486
  245MOL    C1249300   3.268   2.785   7.953 -0.0727 -0.2937  0.5707
  245MOL    C1349301   3.127   2.830   7.912  0.0982  0.2207  0.2640
  245MOL   Cl1449302   3.017   2.863   8.049  0.1345  0.1692 -0.1765
  245MOL    C1549303   3.092   2.851   7.784 -0.2190 -0.4787 -0.1605
  245MOL    C1649304   3.177   2.830   7.660 -0.5358  0.4419  0.6046
  245MOL    H1749305   3.297   2.843   8.040  2.3559 -1.3991  0.5405
  245MOL    H1849306   3.335   2.826   7.878  0.8119 -0.7238  1.1154
  245MOL    H1949307   2.991   2.886   7.773  0.5598  2.9672  2.8895
  245MOL    H2049308   3.186   2.927   7.610 -3.0395 -0.2675 -1.3328
  245MOL    H2149309   3.277   2.789   7.675 -1.2239 -0.7927  1.8661
  245MOL    C2249310   3.090   2.743   7.562  0.3522 -0.1264  0.4337
  245MOL    C2349311   3.173   2.703   7.438  0.7691 -0.1916  0.8868
  245MOL   Cl2449312   3.262   2.554   7.470  0.0162 -0.0667 -0.0216
  245MOL    C2549313   3.185   2.773   7.324  0.1722  0.2115  0.2939
  245MOL    C2649314   3.269   2.742   7.202  0.6641  0.0763  0.7704
  245MOL    H2749315   3.054   2.654   7.613  1.4384  1.1059  3.4365
  245MOL    H2849316   3.010   2.808   7.528  1.7296  2.5162  2.0776
  245MOL    H2949317   3.130   2.863   7.301 -0.0246  0.4614  1.7044
  245MOL    H3049318   3.266   2.633   7.192  0.9998  0.0854  0.5344
  245MOL    H3149319   3.229   2.781   7.108 -0.4592  0.0558  1.2395
  245MOL    C3249320   3.419   2.790   7.210  0.1904 -0.6697 -0.6424
  245MOL    C3349321   3.493   2.831   7.090 -0.1851 -0.1292  0.2095
  245MOL   Cl3449322   3.470   2.995   7.061  0.0874 -0.3195  0.4236
  245MOL    C3549323   3.572   2.750   7.022 -0.7608 -0.0029  0.0865
  245MOL    C3649324   3.647   2.787   6.899 -0.9606 -0.1913 -0.0046
  245MOL    H3749325   3.403   2.878   7.272 -1.5742 -0.7944 -0.9165
  245MOL    H3849326   3.473   2.720   7.275 -1.5973 -1.8844 -0.4089
  245MOL    H3949327   3.583   2.646   7.050 -0.1495  0.1873  0.5481
  245MOL    H4049328   3.636   2.700   6.834 -0.6586  0.2357 -0.6374
  245MOL    H4149329   3.598   2.869   6.846 -1.9360 -1.7695 -1.6081
  245MOL    C4249330   3.795   2.838   6.921  0.4082 -0.0668  0.5732
  245MOL    C4349331   3.865   2.870   6.798 -0.1254  0.0953  0.2964
  245MOL   Cl4449332   3.901   3.032   6.789 -0.4998 -0.1171 -0.1807
  245MOL    C4549333   3.885   2.796   6.688  0.3484  0.4716 -0.3675
  245MOL    C4649334   3.845   2.647   6.678  0.0707 -0.3550  0.1445
  245MOL    H4749335   3.794   2.929   6.982 -1.8239 -0.2418  0.8247
  245MOL    H4849336   3.865   2.770   6.969 -1.4864 -2.0321  0.5983
  245MOL    H4949337   3.934   2.830   6.598  1.3273  1.7739  0.6401
  245MOL    H5049338   3.938   2.593   6.657  0.9228  1.9984 -2.4915
  245MOL    H5149339   3.816   2.603   6.773 -3.5197 -1.6213 -1.4553
  245MOL    C5249340   3.734   2.628   6.574  0.2899 -0.2817 -0.6469
  245MOL    C5349341   3.729   2.476   6.552 -0.0257  0.4722  0.5663
  245MOL   Cl5449342   3.795   2.433   6.390  0.4910 -0.0508  0.1413
  245MOL    C5549343   3.676   2.382   6.632  0.7591 -0.0492  0.3883
  245MOL    C5649344   3.679   2.234   6.605  0.2423 -0.5458  0.2003
  245MOL    H5749345   3.642   2.672   6.612 -0.2830 -2.0447  0.0758
  245MOL    H5849346   3.755   2.677   6.479  0.7086  0.4441 -0.1843
  245MOL    H5949347   3.623   2.415   6.720 -0.1099  0.5967 -0.3620
  245MOL    H6049348   3.740   2.214   6.517  0.2138 -0.6558  0.2048
  245MOL    H6149349   3.727   2.185   6.689 -0.4171 -0.7165  0.4822
  245MOL    C6249350   3.537   2.171   6.581 -0.2885 -0.2410 -0.2442
  245MOL    C6349351   3.519   2.026   6.617  0.3164  0.3003 -0.2300
  245MOL   Cl6449352   3.545   1.996   6.785 -0.3329  0.0148 -0.1497
  245MOL    C6549353   3.490   1.925   6.525  0.3507 -0.4887 -0.1676
  245MOL    C6649354   3.471   1.781   6.558 -0.4285 -0.3664 -0.1691
  245MOL    H6749355   3.468   2.229   6.642 -1.3373  0.6619 -2.2507
  245MOL    H6849356   3.513   2.196   6.478  2.7937 -2.3302 -1.5231
  245MOL    H6949357   3.468   1.952   6.422  0.9057 -1.9724 -0.6879
  245MOL    H7049358   3.369   1.756   6.532  0.2171 -1.6211 -1.5876
  245MOL    H7149359   3.467   1.767   6.666 -1.4171  0.3893 -0.1018
  245MOL    C7249360   3.573   1.694   6.484 -0.2437 -0.2775 -0.6256
  245MOL    C7349361   3.541   1.545   6.484  0.2282 -0.0798 -0.0511
  245MOL   Cl7449362   3.578   1.474   6.637 -0.3059  0.3568  0.1721
  245MOL    C7549363   3.501   1.476   6.383 -0.2523  0.1372  0.3104
  245MOL    C7649364   3.479   1.328   6.365  0.5281  0.3709  0.2460
  245MOL    H7749365   3.674   1.700   6.523 -0.3002 -1.1539 -0.3324
  245MOL    H7849366   3.579   1.739   6.385 -2.4105  0.7868 -0.3091
  245MOL    H7949367   3.483   1.534   6.293 -1.2241  1.5271  1.3798
  245MOL    H8049368   3.513   1.285   6.459  1.6214 -0.8985 -0.7000
  245MOL    H8149369   3.540   1.293   6.282 -2.3205 -1.1174 -1.3056
  245MOL    C8249370   3.331   1.289   6.327 -0.1899 -0.6711  0.4821
  245MOL    C8349371   3.320   1.148   6.274  0.4828  0.3120  0.4079
  245MOL   Cl8449372   3.420   1.039   6.356  0.0263 -0.0543  0.1174
  245MOL    C8549373   3.237   1.119   6.170 -0.1131  0.0826 -0.4507
  245MOL    C8649374   3.221   0.981   6.119 -0.2626  0.2802 -0.0041
  245MOL    H8749375   3.294   1.356   6.249  2.0248 -0.0371 -0.0499
  245MOL    H8849376   3.260   1.313   6.407  2.2494  0.6431  2.3243
  245MOL    H8949377   3.178   1.199   6.127 -1.8340 -0.0468  1.5766
  245MOL    H9049378   3.233   0.991   6.011  2.4037 -0.2434  0.2035
  245MOL    H9149379   3.300   0.912   6.149 -1.0476 -0.0909  1.2314
  245MOL    C9249380   3.076   0.932   6.135  0.1962 -0.6309 -0.3350
  245MOL    C9349381   3.022   0.863   6.013  0.0047 -0.4575  0.0660
  245MOL   Cl9449382   2.956   0.987   5.914  0.1328  0.6798  0.2011
  245MOL    C9549383   3.016   0.728   5.997  0.5015 -0.0150 -0.0060
  245MOL    C9649384   3.077   0.625   6.087  0.1131 -0.4389 -0.1343
  245MOL    H9749385   3.016   1.020   6.158  1.2675 -0.3055  1.2631
  245MOL    H9849386   3.067   0.866   6.222 -2.7093  1.5370  1.0952
  245MOL    H9949387   2.961   0.693   5.911  0.0628  0.1123  0.2194
  245MOL   H10049388   3.118   0.546   6.025  1.0729 -0.8756  1.0315
  245MOL   H10149389   3.162   0.667   6.142 -1.1078 -0.1601  1.5996
  245MOL   C10249390   2.980   0.555   6.178 -0.1001  0.2885 -0.6001
  245MOL   C10349391   3.036   0.475   6.293 -0.0601  0.2426  0.0172
  245MOL  Cl10449392   2.983   0.529   6.448  0.1271  0.3070  0.3340
  245MOL   C10549393   3.108   0.363   6.273  0.3255  0.1328 -0.4930
  245MOL   C10649394   3.159   0.263   6.379 -0.0472 -0.1063  0.6003
  245MOL   H10749395   2.913   0.630   6.221 -1.3649  0.8873 -3.4647
  245MOL   H10849396   2.924   0.480   6.122 -0.3247 -0.2625  0.3445
  245MOL   H10949397   3.135   0.331   6.174  2.1157 -0.4207  0.1587
  245MOL   H11049398   3.119   0.281   6.479 -0.6323 -3.2263  0.9719
  245MOL   H11149399   3.137   0.159   6.355  0.4095 -0.1648  0.4497
  245MOL   C11249400   3.314   0.264   6.378  0.3687 -0.6501  0.0067
  245MOL   C11349401   3.386   0.153   6.447  0.4310  0.1125  0.2362
  245MOL  Cl11449402   3.324   8.412   6.413 -0.4683 -0.3354 -0.1681
  245MOL   C11549403   3.494   0.164   6.524 -0.4730 -0.5055 -0.2613
  245MOL   C11649404   3.575   0.287   6.554 -0.0310 -0.8495  0.6467
  245MOL   H11749405   3.346   0.249   6.274  0.7654 -1.8678  0.2878
  245MOL   H11849406   3.348   0.363   6.407  0.6432 -1.1765  1.5248
  245MOL   H11949407   3.533   0.075   6.572  0.0129 -0.1950 -0.0746
  245MOL   H12049408   3.556   0.362   6.477 -1.4477 -1.1440  0.6823
  245MOL   H12149409   3.680   0.263   6.538 -0.3023 -1.9180  0.4228
  245MOL   C12249410   3.547   0.339   6.696 -0.0714 -1.1337  0.2505
  245MOL   C12349411   3.417   0.428   6.706 -0.4368  0.9017  0.2462
  245MOL  Cl12449412   3.283   0.334   6.765  0.2209  0.2079 -0.2050
  245MOL   C12549413   3.406   0.558   6.684 -0.4330 -0.2103 -0.1009
  245MOL   C12649414   3.518   0.655   6.640  0.0323  1.0276 -0.3337
  245MOL   H12749415   3.518   0.245   6.743 -2.7302 -0.4770  0.0184
  245MOL   H12849416   3.626   0.390   6.750 -1.2710  1.1470 -0.0797
  245MOL   H12949417   3.311   0.609   6.697  1.3048  3.4162 -0.8324
  245MOL   H13049418   3.534   0.719   6.726  1.8796 -0.1849  0.2413
  245MOL   H13149419   3.610   0.599   6.626 -0.3934  0.1973  0.1056
  245MOL   C13249420   3.490   0.737   6.508 -0.0013 -0.1255  0.5722
  245MOL   C13349421   3.492   0.653   6.382  0.4450 -0.1491 -0.1831
  245MOL  Cl13449422   3.331   0.634   6.321 -0.1103  0.2194  0.1524
  245MOL   C13549423   3.596   0.605   6.310  0.1011 -0.1025 -0.5471
  245MOL   C13649424   3.741   0.622   6.355  0.6054  0.3690  0.8766
  245MOL   H13749425   3.397   0.792   6.524 -0.3073 -0.4778  0.0322
  245MOL   H13849426   3.565   0.815   6.494 -0.1450  0.0509  0.7862
  245MOL   H13949427   3.578   0.549   6.219 -1.8966  2.2783 -1.7028
  245MOL   H14049428   3.746   0.681   6.446 -1.6731  0.4714  0.9697
  245MOL   H14149429   3.801   0.531   6.367  0.3567 -0.1156 -1.2309
  245MOL   C14249430   3.812   0.712   6.249 -0.3834 -0.0978  0.3847
  245MOL   C14349431   3.777   0.863   6.253  0.1225 -0.4195 -0.2331
  245MOL  Cl14449432   3.673   0.893   6.118 -0.0016 -0.1117  0.2930
  245MOL   C14549433   3.836   0.961   6.325 -0.3301  0.0005  0.5486
  245MOL   C14649434   3.809   1.111   6.322 -0.4557  0.2246  0.5961
  245MOL   H14749435   3.805   0.670   6.148 -0.9170 -1.5158  0.9973
  245MOL   H14849436   3.919   0.709   6.273  0.2502  2.8581 -1.6991
  245MOL   H14949437   3.910   0.931   6.398  0.9962  1.6798 -0.0770
  245MOL   H15049438   3.730   1.128   6.248 -0.0052 -0.2917 -0.0099
  245MOL   H15149439   3.776   1.144   6.420  2.2672  1.5530  1.1007
  245MOL   C15249440   3.928   1.181   6.262 -0.6437 -0.0164  0.1549
  245MOL   C15349441   3.920   1.335   6.283  1.4697 -0.2173 -0.7053
  245MOL  Cl15449442   3.888   1.431   6.145 -0.3355  0.4450  0.0491
  245MOL   C15549443   3.923   1.392   6.402 -0.2639  0.2901  0.1822
  245MOL   C15649444   3.894   1.534   6.437 -0.3911  0.1647 -0.8308
  245MOL   H15749445   4.022   1.149   6.307 -0.8502 -2.1702 -0.9008
  245MOL   H15849446   3.947   1.150   6.159  0.3807 -1.5613  0.7990
  245MOL   H15949447   3.944   1.328   6.487 -1.7072  1.4167  1.4170
  245MOL   H16049448   3.835   1.540   6.529 -1.4791  1.6964 -1.6094
  245MOL   H16149449   3.834   1.583   6.360 -1.3070  1.6823  0.8007
  245MOL   C16249450   4.024   1.624   6.460  0.1603  0.5659 -0.2244
  245MOL   C16349451   3.979   1.754   6.532 -0.3890  0.0305 -0.2454
  245MOL  Cl16449452   3.969   1.886   6.425 -0.1013  0.0478 -0.4759
  245MOL   C16549453   3.964   1.769   6.668  0.3259  0.2283  0.7151
  245MOL   C16649454   3.928   1.887   6.754 -0.0622  0.5205 -0.0380
  245MOL   H16749455   4.100   1.579   6.523 -1.1227 -1.5517 -0.1673
  245MOL   H16849456   4.066   1.654   6.364  1.2471  2.5949  0.8351
  245MOL   H16949457   3.979   1.676   6.720 -0.5081 -0.8749 -0.9662
  245MOL   H17049458   4.024   1.929   6.783 -0.4114  0.8616  0.6231
  245MOL   H17149459   3.872   1.952   6.686 -0.9603  0.6298  0.8042
  245MOL   C17249460   3.874   1.863   6.895  0.0136 -0.4338 -0.2426
  245MOL   C17349461   3.884   1.988   6.988  0.3533 -0.1592  0.8168
  245MOL  Cl17449462   3.914   1.954   7.157 -0.0975 -0.4413 -0.1460
  245MOL   C17549463   3.869   2.117   6.949 -0.0208  0.5130  0.1811
  245MOL   C17649464   3.870   2.238   7.041 -0.2726  0.5169  0.5456
  245MOL   H17749465   3.931   1.783   6.943  2.2510  1.2001 -0.1208
  245MOL   H17849466   3.768   1.837   6.894  0.3112 -1.6690 -0.1176
  245MOL   H17949467   3.867   2.138   6.843 -0.6866  0.2725  0.1484
  245MOL   H18049468   3.969   2.282   7.036 -0.2011  0.4220  1.0185
  245MOL   H18149469   3.857   2.200   7.143  0.6304  1.1497  0.9016
  245MOL   C18249470   3.754   2.336   7.018  0.1081 -0.7684 -0.4563
  245MOL   C18349471   3.737   2.415   7.149  0.7696 -0.6615 -0.3151
  245MOL  Cl18449472   3.864   2.530   7.166 -0.0009 -0.0686  0.1468
  245MOL   C18549473   3.642   2.392   7.242 -0.6228  0.2108 -0.5270
  245MOL   C18649474   3.616   2.461   7.377 -0.5201  0.4163 -0.3275
  245MOL   H18749475   3.775   2.397   6.931 -1.1906  1.5658  0.8072
  245MOL   H18849476   3.670   2.273   6.989 -0.3605 -1.4409  2.1584
  245MOL   H18949477   3.576   2.310   7.218 -1.5356  0.7342  0.1736
  245MOL   H19049478   3.698   2.533   7.387 -0.8636  0.9021 -0.9361
  245MOL   H19149479   3.518   2.509   7.379 -1.6484 -1.8609  1.4517
  245MOL   C19249480   3.631   2.351   7.487  0.5058  0.3182 -0.3731
  245MOL   C19349481   3.776   2.297   7.488 -0.5116  0.1953  0.0795
  245MOL  Cl19449482   3.903   2.418   7.501 -0.0863  0.1387 -0.4108
  245MOL   C19549483   3.815   2.167   7.478  0.5488 -1.0198 -0.4250
  245MOL   C19649484   3.740   2.034   7.474  0.0468  0.4699  0.2031
  245MOL   H19749485   3.554   2.274   7.482 -1.0668  1.9036 -1.1772
  245MOL   H19849486   3.603   2.397   7.582  0.1410 -0.1511 -0.2518
  245MOL   H19949487   3.923   2.161   7.471  1.0388  3.4448  1.8486
  245MOL   H20049488   3.773   1.963   7.549  0.4429 -1.5588 -1.8500
  245MOL   H20149489   3.772   1.996   7.377  1.0385  0.9044  0.3563
  245MOL   H20249490   3.634   2.054   7.490  0.4943  1.8003  1.6212
  246MOL     C149491   7.715   6.106   5.295  0.2412  0.4387 -0.0120
  246MOL     C249492   7.812   6.094   5.407  0.1291  0.4670 -0.0100
  246MOL    Cl349493   7.742   6.129   5.563 -0.6278 -0.2724  0.1517
  246MOL     C449494   7.945   6.080   5.396  0.1113  1.0076  0.4485
  246MOL     C549495   8.032   6.071   5.267 -0.7317 -0.1294  0.1070
  246MOL     H649496   7.613   6.105   5.333  0.1902 -2.2014 -0.1769
  246MOL     H749497   7.733   6.029   5.220 -1.2267 -0.9353  0.9939
  246MOL     H849498   8.007   6.073   5.483  0.1757  0.4486  0.3622
  246MOL     H949499   7.962   6.067   5.184  0.5232  0.7454 -1.0094
  246MOL    H1049500   8.092   6.162   5.267  1.3340 -1.4525 -0.1839
  246MOL    H1149501   7.724   6.206   5.251  0.1360  0.7651  0.7045
  246MOL    C1249502   8.132   5.949   5.266  0.0118  0.0573  0.4787
  246MOL    C1349503   8.190   5.909   5.132  0.5654  0.1089  0.0381
  246MOL   Cl1449504   8.231   6.042   5.034  0.1836 -0.1312 -0.3933
  246MOL    C1549505   8.201   5.781   5.088 -0.2138  0.6370  0.4657
  246MOL    C1649506   8.151   5.651   5.148 -0.2484 -0.4535 -0.7372
  246MOL    H1749507   8.225   5.984   5.310  0.2961  0.9574 -0.7923
  246MOL    H1849508   8.100   5.867   5.330  1.4105 -1.2838 -0.4991
  246MOL    H1949509   8.244   5.771   4.989 -2.1442  0.2565 -0.3641
  246MOL    H2049510   8.099   5.672   5.241  0.2553  1.2478 -0.8125
  246MOL    H2149511   8.066   5.623   5.086 -2.1724  1.4760  0.9459
  246MOL    C2249512   8.266   5.548   5.173  0.5731 -0.1837  0.2994
  246MOL    C2349513   8.218   5.415   5.231  0.3526  0.0228 -1.1293
  246MOL   Cl2449514   8.252   5.281   5.134 -0.0031 -0.0555 -0.2547
  246MOL    C2549515   8.140   5.405   5.340  0.1338 -0.0248 -0.1257
  246MOL    C2649516   8.085   5.277   5.405  0.8354 -0.2152 -0.4457
  246MOL    H2749517   8.313   5.533   5.076 -0.0992  0.5604 -0.1391
  246MOL    H2849518   8.344   5.593   5.235  1.3718  0.4148 -1.1261
  246MOL    H2949519   8.118   5.499   5.390  1.3139 -0.0514  0.4551
  246MOL    H3049520   7.976   5.270   5.405  0.7805  0.2995  1.5953
  246MOL    H3149521   8.121   5.192   5.347  2.1125  0.5870 -0.8480
  246MOL    C3249522   8.139   5.279   5.551 -0.3408  0.0595 -0.3673
  246MOL    C3349523   8.117   5.141   5.623 -0.5725 -0.0557 -0.3824
  246MOL   Cl3449524   7.957   5.072   5.629 -0.0580  0.1978  0.2920
  246MOL    C3549525   8.219   5.084   5.681  0.0085  0.3576 -0.3543
  246MOL    C3649526   8.218   4.954   5.752 -0.0119  0.1882 -1.1483
  246MOL    H3749527   8.241   5.317   5.556  1.1002 -3.4090 -1.5077
  246MOL    H3849528   8.073   5.349   5.601  0.3667  0.1583  0.4361
  246MOL    H3949529   8.311   5.140   5.672 -0.2043  1.1933  2.2032
  246MOL    H4049530   8.121   4.907   5.765  0.3911 -0.7172 -1.3851
  246MOL    H4149531   8.287   4.888   5.700  1.8506  1.7697 -0.7693
  246MOL    C4249532   8.271   4.961   5.902  0.6869 -0.4947 -0.3967
  246MOL    C4349533   8.418   5.013   5.921 -0.3670  0.8799 -0.9702
  246MOL   Cl4449534   0.112   4.880   5.945 -0.2240  0.4789  0.2900
  246MOL    C4549535   0.025   5.139   5.947 -0.2507  0.0398  0.4505
  246MOL    C4649536   8.353   5.255   5.949  0.1928  0.2820 -0.4179
  246MOL    H4749537   8.202   5.017   5.965  0.1087 -0.9511 -0.6178
  246MOL    H4849538   8.266   4.864   5.952  1.5726  0.6068  1.8756
  246MOL    H4949539   0.127   5.161   5.977  0.3254  0.3546 -1.6390
  246MOL    H5049540   8.313   5.273   5.849 -2.1878  0.8954  0.6119
  246MOL    H5149541   8.262   5.225   6.001 -0.5274 -0.8174 -2.2583
  246MOL    C5249542   8.419   5.381   5.994  0.2422 -0.1856 -0.4142
  246MOL    C5349543   8.329   5.499   5.980  0.0848 -0.4354 -0.2292
  246MOL   Cl5449544   8.191   5.493   6.080 -0.2669  0.3295 -0.3421
  246MOL    C5549545   8.331   5.587   5.876 -0.3275 -0.0432  0.0810
  246MOL    C5649546   8.250   5.713   5.844  0.5142 -0.1149  0.2569
  246MOL    H5749547   0.025   5.376   6.100 -3.4947 -2.5247  0.4928
  246MOL    H5849548   0.088   5.404   5.936  0.4106  0.1617 -0.0216
  246MOL    H5949549   8.414   5.560   5.813 -0.8833  0.6539 -0.9600
  246MOL    H6049550   8.165   5.724   5.911 -0.4390 -1.7750 -0.6483
  246MOL    H6149551   8.317   5.795   5.868  0.8609  0.0454 -1.2135
  246MOL    C6249552   8.201   5.707   5.699 -0.3824  0.1307 -0.5642
  246MOL    C6349553   8.285   5.784   5.599  0.0404 -0.1902 -0.0502
  246MOL   Cl6449554   8.278   5.958   5.618  0.0586  0.0411  0.5856
  246MOL    C6549555   8.354   5.721   5.500 -0.0049 -0.2904 -0.3905
  246MOL    C6649556   0.036   5.783   5.405 -0.7653 -0.6382 -0.6891
  246MOL    H6749557   8.176   5.606   5.666 -1.6492 -0.2615  1.5037
  246MOL    H6849558   8.109   5.764   5.711 -0.3030  0.7502 -2.6325
  246MOL    H6949559   8.344   5.615   5.479 -1.2803 -0.3650  0.5564
  246MOL    H7049560   0.044   5.888   5.430  0.5958 -0.4716 -1.7550
  246MOL    H7149561   8.409   5.774   5.307 -0.7798 -1.2159 -0.6340
  246MOL    C7249562   0.178   5.721   5.406  0.4914  0.2853 -0.2239
  246MOL    C7349563   0.281   5.780   5.314  0.2635 -0.2509 -0.0491
  246MOL   Cl7449564   0.227   5.752   5.149  0.2983  0.0931  0.0166
  246MOL    C7549565   0.397   5.847   5.343  0.5964  0.4933  0.2158
  246MOL    C7649566   0.484   5.901   5.236 -0.3040  0.2913 -0.2405
  246MOL    H7749567   0.160   5.617   5.382 -1.2369  0.0962  1.7592
  246MOL    H7849568   0.218   5.738   5.506  2.4619 -1.8964 -0.6212
  246MOL    H7949569   0.418   5.854   5.449 -2.4979 -1.6589  1.0506
  246MOL    H8049570   0.425   5.932   5.150  1.3141 -0.2334 -1.5596
  246MOL    H8149571   0.547   5.824   5.193  1.6035  1.5553  0.2393
  246MOL    C8249572   0.564   6.015   5.291  1.1698 -0.5424 -0.1684
  246MOL    C8349573   0.670   6.064   5.195  0.6651 -0.1858  0.1998
  246MOL   Cl8449574   0.648   6.229   5.146 -0.0299 -0.0099 -0.0047
  246MOL    C8549575   0.779   5.996   5.166  0.4385  0.0744 -0.2552
  246MOL    C8649576   0.886   6.029   5.069  0.2083 -0.2184  0.0792
  246MOL    H8749577   0.608   6.000   5.389  2.7503 -1.6710 -1.0250
  246MOL    H8849578   0.502   6.104   5.302  3.1460  0.6745  1.3398
  246MOL    H8949579   0.792   5.900   5.213  0.8623  0.9826  1.4928
  246MOL    H9049580   0.892   6.137   5.053 -0.2169 -0.5388 -2.4064
  246MOL    H9149581   0.976   5.993   5.119 -0.8027 -1.0066  1.3505
  246MOL    C9249582   0.856   5.965   4.932  0.8395 -0.1562 -0.4864
  246MOL    C9349583   0.957   6.005   4.825 -1.1999  0.1818  0.2086
  246MOL   Cl9449584   1.086   5.887   4.825  0.6204 -0.7505 -0.4760
  246MOL    C9549585   0.967   6.115   4.749 -0.3721 -0.0297 -0.1091
  246MOL    C9649586   0.856   6.225   4.746 -0.1572 -0.8409  0.8654
  246MOL    H9749587   0.754   5.985   4.898  1.0666 -0.5013 -1.3722
  246MOL    H9849588   0.859   5.856   4.937 -1.9895 -0.2341  0.3404
  246MOL    H9949589   1.058   6.119   4.690 -0.4691  1.4494 -0.1908
  246MOL   H10049590   0.766   6.189   4.797 -0.6577  0.3569  0.8279
  246MOL   H10149591   0.897   6.312   4.797 -0.5976  0.1984 -0.5510
  246MOL   C10249592   0.810   6.260   4.608  0.9140  0.2041  0.1338
  246MOL   C10349593   0.682   6.341   4.603 -0.7723 -0.1524 -0.3247
  246MOL  Cl10449594   0.722   6.498   4.676  0.2852  0.0451 -0.3315
  246MOL   C10549595   0.566   6.303   4.546  0.1188  1.1355  1.4138
  246MOL   C10649596   0.442   6.389   4.536  0.7662 -0.7448  0.0449
  246MOL   H10749597   0.889   6.310   4.551 -1.5176  2.4649 -1.4092
  246MOL   H10849598   0.792   6.168   4.554 -0.0481  0.7643 -0.5172
  246MOL   H10949599   0.565   6.207   4.496 -2.3229  1.2187  1.2547
  246MOL   H11049600   0.459   6.496   4.552 -0.9395 -0.3269 -0.7525
  246MOL   H11149601   0.404   6.384   4.434  0.9694 -0.4070 -0.0475
  246MOL   C11249602   0.324   6.345   4.624 -0.0647  0.0488 -0.6630
  246MOL   C11349603   0.185   6.410   4.595 -0.1576  0.6473 -0.3748
  246MOL  Cl11449604   0.203   6.584   4.593  0.2821  0.0096  0.2494
  246MOL   C11549605   0.070   6.350   4.582 -0.3325 -0.0250  0.5803
  246MOL   C11649606   0.049   6.201   4.580  0.8108  0.3233 -0.3564
  246MOL   H11749607   0.327   6.236   4.618 -1.5833  0.0635 -2.2177
  246MOL   H11849608   0.354   6.360   4.727 -0.7000 -0.7308 -0.3579
  246MOL   H11949609   8.403   6.412   4.574 -0.4822 -0.5374 -2.0255
  246MOL   H12049610   0.129   6.136   4.545  0.2327  0.4650 -1.9461
  246MOL   H12149611   8.396   6.186   4.502  0.1779 -0.2996  0.3512
  246MOL   C12249612   8.387   6.158   4.701  0.1246 -0.6936 -0.2974
  246MOL   C12349613   8.388   6.008   4.729  0.1811  0.2209  0.1847
  246MOL  Cl12449614   8.233   5.941   4.707 -0.0238  0.2596 -0.1383
  246MOL   C12549615   0.066   5.937   4.783  0.2370 -0.2552  0.0184
  246MOL   C12649616   0.204   5.997   4.807 -0.1050 -0.2159  0.0148
  246MOL   H12749617   0.005   6.193   4.797  1.0149  0.0149 -0.9065
  246MOL   H12849618   8.285   6.195   4.699  0.1280 -0.3528  2.8838
  246MOL   H12949619   0.062   5.831   4.802  0.6801 -0.4312 -0.8269
  246MOL   H13049620   0.211   6.102   4.779  1.9552 -0.0448  1.0902
  246MOL   H13149621   0.216   5.996   4.915  0.7877 -0.6566 -0.0866
  246MOL   C13249622   0.316   5.928   4.734  0.3382  0.0582 -0.1718
  246MOL   C13349623   0.458   5.988   4.747 -0.0999 -0.3018  0.3263
  246MOL  Cl13449624   0.470   6.102   4.872 -0.2390 -0.2631 -0.3731
  246MOL   C13549625   0.569   5.951   4.682  0.1863  0.3838 -0.4478
  246MOL   C13649626   0.578   5.839   4.579 -0.1924 -0.0039 -0.0961
  246MOL   H13749627   0.328   5.824   4.765  2.0155 -0.3008 -1.9245
  246MOL   H13849628   0.294   5.929   4.628 -2.1256 -1.1631  0.2968
  246MOL   H13949629   0.663   5.992   4.716 -0.8058  0.9848  1.6697
  246MOL   H14049630   0.486   5.797   4.538 -0.0595 -0.4132  0.0290
  246MOL   H14149631   0.634   5.882   4.496  2.0498  0.3777  1.5778
  246MOL   C14249632   0.660   5.724   4.640  0.6799 -0.9813 -0.0278
  246MOL   C14349633   0.659   5.587   4.573  0.1799  0.3574  0.1332
  246MOL  Cl14449634   0.809   5.535   4.508  0.6292 -0.0876 -0.2981
  246MOL   C14549635   0.544   5.510   4.564  0.2957  0.9169  0.1089
  246MOL   C14649636   0.539   5.383   4.494  0.5923  0.3306  0.6783
  246MOL   H14749637   0.632   5.717   4.746 -0.1847  1.7456 -0.0340
  246MOL   H14849638   0.765   5.752   4.635  0.1720  0.8016 -1.0537
  246MOL   H14949639   0.449   5.548   4.601 -0.7507 -1.4375 -0.0907
  246MOL   H15049640   0.484   5.406   4.402 -2.4968 -1.3623  2.0107
  246MOL   H15149641   0.635   5.351   4.454 -0.0081  0.3347 -0.8247
  246MOL   C15249642   0.472   5.265   4.578 -0.0183 -0.1079  0.0019
  246MOL   C15349643   0.436   5.156   4.483  0.9317 -0.4920  0.7298
  246MOL  Cl15449644   0.550   5.033   4.493  0.3574 -0.0503 -0.1444
  246MOL   C15549645   0.320   5.153   4.406  0.2762  0.4843  0.1048
  246MOL   C15649646   0.269   5.044   4.314 -0.2377 -0.0086 -1.0047
  246MOL   H15749647   0.554   5.241   4.646 -2.1163 -1.1648  2.2495
  246MOL   H15849648   0.387   5.301   4.636  1.9394  1.3213  2.0317
  246MOL   H15949649   0.259   5.241   4.418  0.6856  0.5445  1.9001
  246MOL   H16049650   0.203   4.977   4.369  1.9782 -0.9183  0.5952
  246MOL   H16149651   0.359   4.996   4.275  1.6793  3.6228 -1.3196
  246MOL   C16249652   0.201   5.101   4.190  0.2776  0.4491  0.4367
  246MOL   C16349653   0.168   4.992   4.086  0.6626 -1.0412 -0.3348
  246MOL  Cl16449654   8.420   4.955   4.077  0.1312  0.1812  0.5032
  246MOL   C16549655   0.255   4.947   3.992 -0.1106 -0.1918  0.4748
  246MOL   C16649656   0.222   4.853   3.874 -0.1395 -0.5374 -0.4634
  246MOL   H16749657   0.117   5.169   4.207 -1.4106 -1.2909 -0.7443
  246MOL   H16849658   0.275   5.165   4.141 -1.3574  1.1539 -1.1551
  246MOL   H16949659   0.355   4.985   4.004 -1.3115  2.7155  1.8543
  246MOL   H17049660   0.121   4.813   3.887  0.0915 -0.4894  1.5711
  246MOL   H17149661   0.226   4.917   3.786 -0.4313 -0.6961 -0.5943
  246MOL   C17249662   0.323   4.735   3.885 -0.3242  0.0656 -0.3326
  246MOL   C17349663   0.309   4.624   3.782 -0.9249  1.0825 -0.1186
  246MOL  Cl17449664   0.439   4.639   3.669  0.0889 -0.0085  0.5160
  246MOL   C17549665   0.216   4.531   3.771  1.0106 -0.0448 -0.4562
  246MOL   C17649666   0.208   4.426   3.659  0.7006  0.5617 -0.1965
  246MOL   H17749667   0.314   4.698   3.987  1.9552  0.0859 -0.0936
  246MOL   H17849668   0.424   4.778   3.889 -0.7147  0.8975  0.6724
  246MOL   H17949669   0.143   4.525   3.850  0.2758 -3.0320 -1.2905
  246MOL   H18049670   0.297   4.363   3.656 -0.2519 -0.8718  1.0268
  246MOL   H18149671   0.209   4.483   3.566 -0.2662  1.9247  0.5971
  246MOL   C18249672   0.078   4.346   3.671  0.0416  0.2961  0.1295
  246MOL   C18349673   0.069   4.239   3.778  0.4095 -0.4064  0.3793
  246MOL  Cl18449674   8.343   4.263   3.870  0.0239 -0.2263  0.0329
  246MOL   C18549675   0.149   4.138   3.807 -0.0279  0.2626 -0.6047
  246MOL   C18649676   0.138   4.051   3.925  0.1033  0.1003 -0.4749
  246MOL   H18749677   8.409   4.408   3.674  0.1563  0.4962 -0.6379
  246MOL   H18849678   0.065   4.295   3.576  0.7219  1.2522 -0.4864
  246MOL   H18949679   0.236   4.111   3.749  1.9439 -0.5054  2.5544
  246MOL   H19049680   0.237   4.029   3.964 -0.6332 -1.1323  0.7206
  246MOL   H19149681   0.082   4.096   4.007  1.0980 -0.5964  0.5991
  246MOL   C19249682   0.057   3.925   3.883  0.2367 -0.6084  0.0795
  246MOL   C19349683   0.117   3.840   3.769 -0.3210 -0.3924 -0.0568
  246MOL  Cl19449684   0.257   3.748   3.826 -0.2124 -0.1581 -0.0265
  246MOL   C19549685   0.077   3.840   3.636  0.0787 -0.1138 -0.4645
  246MOL   C19649686   8.384   3.918   3.571 -0.1493  0.6623 -0.3981
  246MOL   H19749687   8.374   3.945   3.857 -0.1949 -1.3702  1.1396
  246MOL   H19849688   0.057   3.863   3.973 -0.3971 -1.6152 -0.5998
  246MOL   H19949689   0.134   3.779   3.567 -0.0468 -0.4926 -0.2371
  246MOL   H20049690   8.310   3.857   3.520  0.1449  0.7625 -0.9461
  246MOL   H20149691   0.010   3.975   3.490  0.5544 -1.9285 -1.8475
  246MOL   H20249692   8.338   3.991   3.638  0.8842  0.9049  0.0648
  247MOL     C149693   2.798   2.728   4.049  0.5658 -0.1322  0.4886
  247MOL     C249694   2.718   2.620   4.108 -0.6894 -0.5977 -0.3758
  247MOL    Cl349695   2.561   2.667   4.167 -0.1244  0.3609 -0.0488
  247MOL     C449696   2.753   2.492   4.131 -0.3538  0.9864 -0.6956
  247MOL     C549697   2.889   2.426   4.099 -0.7419 -0.5872 -0.4143
  247MOL     H649698   2.742   2.820   4.031  0.4125  0.3412  3.1943
  247MOL     H749699   2.860   2.695   3.966  2.2083  1.2828  1.1153
  247MOL     H849700   2.692   2.417   4.179  1.9496  0.1400  0.9558
  247MOL     H949701   2.859   2.350   4.026 -1.7646 -0.3560 -0.2417
  247MOL    H1049702   2.952   2.501   4.050 -1.7166 -0.5210 -1.5968
  247MOL    H1149703   2.867   2.759   4.128 -0.4256 -1.7221  2.0327
  247MOL    C1249704   2.963   2.348   4.211 -0.8166  0.9815 -0.5164
  247MOL    C1349705   3.092   2.281   4.180  0.1269 -0.5858 -0.7505
  247MOL   Cl1449706   3.078   2.109   4.190 -0.0987 -0.0057  0.4565
  247MOL    C1549707   3.212   2.339   4.144  0.0995  0.1783  0.3541
  247MOL    C1649708   3.240   2.485   4.131  0.4825  0.1818 -0.3209
  247MOL    H1749709   2.991   2.413   4.294 -2.3426  1.6279 -0.5009
  247MOL    H1849710   2.897   2.281   4.266 -1.3094  0.4514 -1.7403
  247MOL    H1949711   3.294   2.274   4.117  0.4426  1.4213 -1.7024
  247MOL    H2049712   3.149   2.527   4.173  0.0525 -0.5338 -0.5433
  247MOL    H2149713   3.318   2.515   4.201  0.2632 -2.0087  0.8824
  247MOL    C2249714   3.257   2.527   3.986 -0.1175 -0.8000  0.4836
  247MOL    C2349715   3.259   2.679   3.973 -0.7960 -0.2623 -0.1261
  247MOL   Cl2449716   3.413   2.734   4.021 -0.1572 -0.0048  0.2718
  247MOL    C2549717   3.168   2.759   3.922 -0.6922 -0.4136  0.6384
  247MOL    C2649718   3.168   2.913   3.900  0.2191  0.1013 -0.1326
  247MOL    H2749719   3.349   2.487   3.942  0.5392 -0.9888  1.9909
  247MOL    H2849720   3.173   2.478   3.937 -1.6447  1.7113  0.4920
  247MOL    H2949721   3.077   2.715   3.884 -1.9047  1.3083  1.4774
  247MOL    H3049722   3.088   2.957   3.959  1.8174  1.8500  0.7878
  247MOL    H3149723   3.259   2.957   3.940  1.3978 -0.1869 -2.3703
  247MOL    C3249724   3.169   2.968   3.750 -0.3023  0.2150  0.2191
  247MOL    C3349725   3.189   3.119   3.736  0.2141 -0.0254  0.5322
  247MOL   Cl3449726   3.147   3.178   3.580  0.0273 -0.0262  0.4542
  247MOL    C3549727   3.229   3.204   3.833  0.0378  0.0319 -0.0424
  247MOL    C3649728   3.240   3.353   3.814 -0.5021 -0.6714 -0.1426
  247MOL    H3749729   3.245   2.919   3.688 -2.3524 -1.5079 -0.9927
  247MOL    H3849730   3.073   2.940   3.707  0.5518 -0.1974 -1.5030
  247MOL    H3949731   3.261   3.174   3.932  1.8388  1.6919 -0.0876
  247MOL    H4049732   3.168   3.382   3.737 -1.7742 -1.7525  0.6227
  247MOL    H4149733   3.210   3.406   3.904  1.7900 -0.9236  0.8064
  247MOL    C4249734   3.386   3.404   3.779  0.8074  0.0342  0.1219
  247MOL    C4349735   3.391   3.556   3.778 -0.6667  1.1934  0.0227
  247MOL   Cl4449736   3.445   3.625   3.931  0.2616  0.1222  0.1079
  247MOL    C4549737   3.366   3.643   3.678  0.2896  0.1011  0.2920
  247MOL    C4649738   3.331   3.607   3.539 -0.1000  0.1843 -0.5640
  247MOL    H4749739   3.457   3.360   3.849  1.4376  2.0189  0.7481
  247MOL    H4849740   3.408   3.373   3.677 -1.4949 -2.6983  0.3698
  247MOL    H4949741   3.371   3.748   3.703 -0.9939 -0.2428  2.0795
  247MOL    H5049742   3.388   3.667   3.468  1.0381 -1.9922 -1.5059
  247MOL    H5149743   3.349   3.500   3.533 -2.9303 -0.5143  2.0357
  247MOL    C5249744   3.182   3.638   3.527  0.4984  0.0117 -0.0477
  247MOL    C5349745   3.107   3.571   3.412  0.3976  0.2064  0.4107
  247MOL   Cl5449746   3.006   3.439   3.452  0.4281 -0.0362 -0.4848
  247MOL    C5549747   3.130   3.609   3.283  0.0067 -0.5759 -0.9460
  247MOL    C5649748   3.082   3.550   3.150  0.3416 -0.3890  0.2167
  247MOL    H5749749   3.123   3.629   3.618 -1.6648  3.5092 -1.0052
  247MOL    H5849750   3.173   3.741   3.491 -0.2220 -0.5584 -1.5656
  247MOL    H5949751   3.198   3.692   3.273  2.5585 -2.2443  1.6439
  247MOL    H6049752   3.172   3.554   3.089 -0.2811  2.1111 -0.6032
  247MOL    H6149753   3.053   3.446   3.167 -2.1672  0.1630 -0.4212
  247MOL    C6249754   2.981   3.631   3.067 -0.9103 -0.2770  0.0602
  247MOL    C6349755   2.966   3.588   2.921 -0.0793 -0.1579  0.3510
  247MOL   Cl6449756   3.111   3.589   2.832 -0.4342  0.2917 -0.3393
  247MOL    C6549757   2.849   3.569   2.859  0.3215 -0.2664 -0.2466
  247MOL    C6649758   2.832   3.531   2.713  0.6178  0.1501  0.2380
  247MOL    H6749759   2.885   3.618   3.119  0.3932  1.7745  3.1465
  247MOL    H6849760   2.998   3.739   3.074  0.3925 -0.4081 -1.0392
  247MOL    H6949761   2.754   3.574   2.910  0.5079 -0.4280  0.1169
  247MOL    H7049762   2.926   3.510   2.663 -1.0177 -0.7486 -2.5584
  247MOL    H7149763   2.791   3.619   2.664 -1.2433  1.1167  3.3570
  247MOL    C7249764   2.749   3.397   2.694 -0.1136 -0.2569 -0.2239
  247MOL    C7349765   2.734   3.364   2.544 -0.1480 -0.2063 -1.2967
  247MOL   Cl7449766   2.715   3.192   2.535 -0.0956  0.0802 -0.2081
  247MOL    C7549767   2.734   3.453   2.439  1.0516 -0.7906  0.2674
  247MOL    C7649768   2.728   3.411   2.295 -0.0653  0.9583 -0.2307
  247MOL    H7749769   2.650   3.405   2.737 -0.1879 -0.8671 -0.2858
  247MOL    H7849770   2.804   3.314   2.739 -1.7231  0.5131  3.3369
  247MOL    H7949771   2.746   3.560   2.451 -1.8095 -0.4555  0.5414
  247MOL    H8049772   2.747   3.304   2.299 -1.5106  0.7494  1.4610
  247MOL    H8149773   2.811   3.452   2.238  0.5440  0.4386  0.2792
  247MOL    C8249774   2.587   3.427   2.234 -1.0453  0.0393  0.1410
  247MOL    C8349775   2.571   3.386   2.087 -0.2641  0.4797  0.8124
  247MOL   Cl8449776   2.717   3.335   2.005 -0.0491  0.4245 -0.3765
  247MOL    C8549777   2.456   3.393   2.016 -0.2882 -0.5481 -0.3457
  247MOL    C8649778   2.438   3.366   1.874  0.7552 -0.0945  0.2412
  247MOL    H8749779   2.563   3.533   2.239 -2.6830 -0.1785 -1.9475
  247MOL    H8849780   2.510   3.381   2.296 -2.5629 -1.1243 -2.4943
  247MOL    H8949781   2.369   3.433   2.066 -1.4137  0.3957 -2.9822
  247MOL    H9049782   2.362   3.432   1.831 -0.6642 -1.2979  0.9167
  247MOL    H9149783   2.528   3.390   1.816  0.5826 -0.6500 -0.2629
  247MOL    C9249784   2.390   3.221   1.842  0.0108  0.1144 -0.4796
  247MOL    C9349785   2.341   3.188   1.699  0.6895  0.2568  0.2515
  247MOL   Cl9449786   2.174   3.164   1.674  0.0896 -0.2285  0.2174
  247MOL    C9549787   2.413   3.170   1.589 -0.4432 -0.5256 -0.6858
  247MOL    C9649788   2.567   3.181   1.590  0.0376  0.0982  1.2691
  247MOL    H9749789   2.300   3.201   1.899  0.5127  0.8738  0.5862
  247MOL    H9849790   2.472   3.153   1.866 -0.0629  0.9007  2.1252
  247MOL    H9949791   2.371   3.135   1.496 -1.6635 -2.6876  0.6368
  247MOL   H10049792   2.600   3.225   1.685  0.7613  2.1897  0.0761
  247MOL   H10149793   2.614   3.083   1.591  2.9991  1.3406 -2.5095
  247MOL   C10249794   2.614   3.280   1.480  0.0558 -0.0769  0.2958
  247MOL   C10349795   2.762   3.291   1.503 -0.3827  0.5125  0.3058
  247MOL  Cl10449796   2.843   3.150   1.439 -0.1698  0.2789  0.2121
  247MOL   C10549797   2.823   3.397   1.565  0.2151 -0.6012 -0.2400
  247MOL   C10649798   2.973   3.409   1.597  0.1581 -0.5079 -0.1069
  247MOL   H10749799   2.585   3.256   1.378  2.8495  0.8111 -0.7662
  247MOL   H10849800   2.563   3.374   1.501 -0.2774  0.2585 -1.9393
  247MOL   H10949801   2.761   3.478   1.601  1.2671 -0.1836  0.6676
  247MOL   H11049802   3.030   3.318   1.578  0.1119 -0.1639 -2.0469
  247MOL   H11149803   3.012   3.484   1.528  1.0547 -0.5079  0.4016
  247MOL   C11249804   2.984   3.442   1.740 -0.1321 -0.5094 -0.1618
  247MOL   C11349805   3.130   3.456   1.776 -0.2719 -0.1757 -0.0687
  247MOL  Cl11449806   3.200   3.299   1.784 -0.2291  0.1327 -0.3791
  247MOL   C11549807   3.187   3.569   1.808  0.2311 -0.6977 -0.0116
  247MOL   C11649808   3.130   3.713   1.814  0.6542 -0.5889  1.0287
  247MOL   H11749809   2.918   3.526   1.761 -2.3086 -2.4264  0.8575
  247MOL   H11849810   2.945   3.361   1.800 -0.4479 -0.6725 -0.5825
  247MOL   H11949811   3.290   3.568   1.841 -0.5665  1.8059  2.6679
  247MOL   H12049812   3.148   3.739   1.918 -0.7020  0.8921  0.9088
  247MOL   H12149813   3.022   3.709   1.800  0.9750  2.4862 -3.2943
  247MOL   C12249814   3.186   3.806   1.709 -0.0136 -0.0864 -0.1979
  247MOL   C12349815   3.140   3.801   1.565 -1.2136 -0.3322 -0.6312
  247MOL  Cl12449816   2.973   3.863   1.540 -0.0643  0.2827 -0.0940
  247MOL   C12549817   3.203   3.758   1.452 -0.1180  0.0122  0.0783
  247MOL   C12649818   3.346   3.714   1.450  0.7065 -0.4401  0.3199
  247MOL   H12749819   3.146   3.904   1.737 -0.9971 -0.6546  0.4419
  247MOL   H12849820   3.293   3.816   1.725 -0.3866  1.4407  1.5990
  247MOL   H12949821   3.146   3.759   1.360  0.2733  0.4877 -0.1581
  247MOL   H13049822   3.407   3.793   1.408 -0.8760  0.2891 -0.6487
  247MOL   H13149823   3.375   3.724   1.554  0.4062  1.7637  0.2012
  247MOL   C13249824   3.365   3.573   1.391 -0.8191 -0.1497  0.0030
  247MOL   C13349825   3.520   3.538   1.401  1.0677 -0.0275 -0.0354
  247MOL  Cl13449826   3.565   3.445   1.540 -0.0494 -0.2274  0.1056
  247MOL   C13549827   3.614   3.566   1.306  0.6944  0.6815  0.3550
  247MOL   C13649828   3.596   3.646   1.179  0.4044 -0.4702 -0.9781
  247MOL   H13749829   3.325   3.496   1.456  1.9531 -1.8338 -0.2148
  247MOL   H13849830   3.328   3.551   1.291  0.3856  2.2094 -1.0153
  247MOL   H13949831   3.716   3.536   1.324  0.3454  0.5358  2.2290
  247MOL   H14049832   3.517   3.720   1.191 -0.5626 -1.0280 -3.4771
  247MOL   H14149833   3.681   3.713   1.166  0.2146 -0.2109 -0.8926
  247MOL   C14249834   3.585   3.566   1.044  0.6333  0.7000  0.1448
  247MOL   C14349835   3.671   3.448   1.026  1.0644 -0.0437 -0.6025
  247MOL  Cl14449836   3.571   3.311   0.996  0.2695  0.1499  0.1989
  247MOL   C14549837   3.807   3.450   1.039 -0.1369 -0.0194  0.3462
  247MOL   C14649838   3.906   3.335   1.020 -0.4393  0.3430 -0.7011
  247MOL   H14749839   3.624   3.627   0.963  0.5691  0.0269 -0.3958
  247MOL   H14849840   3.479   3.549   1.023  0.7746  0.4112 -0.3208
  247MOL   H14949841   3.862   3.542   1.056 -0.6693  0.2239  0.7607
  247MOL   H15049842   3.862   3.256   0.960  2.0549 -1.1099 -0.6736
  247MOL   H15149843   3.991   3.377   0.966 -0.1155 -0.6502 -0.9662
  247MOL   C15249844   3.960   3.284   1.156 -0.2238 -0.1475  0.2326
  247MOL   C15349845   3.873   3.179   1.224  0.0050  0.0999  0.5361
  247MOL  Cl15449846   3.882   3.191   1.395  0.0175  0.4039 -0.1155
  247MOL   C15549847   3.779   3.099   1.164 -0.0446 -0.4251 -0.2224
  247MOL   C15649848   3.677   3.018   1.234  0.0671  0.3288  0.3993
  247MOL   H15749849   4.058   3.239   1.142 -0.6571 -0.7022 -1.1182
  247MOL   H15849850   3.966   3.368   1.225 -4.1932  0.0901  0.4126
  247MOL   H15949851   3.767   3.095   1.057  2.6212  0.9391 -0.6035
  247MOL   H16049852   3.723   2.990   1.328  1.9786 -3.0353 -1.4694
  247MOL   H16149853   3.670   2.929   1.172  2.8699  2.7908 -3.6549
  247MOL   C16249854   3.541   3.083   1.275 -0.1009 -0.2474 -0.0773
  247MOL   C16349855   3.444   2.989   1.349  0.0274  0.1110  0.9777
  247MOL  Cl16449856   3.441   2.830   1.279 -0.1711 -0.2122 -0.5156
  247MOL   C16549857   3.389   3.017   1.472  0.2166  0.2984  0.8366
  247MOL   C16649858   3.294   2.927   1.549  0.1609  0.1347  0.6727
  247MOL   H16749859   3.562   3.163   1.347  0.4925 -0.1564 -0.3555
  247MOL   H16849860   3.481   3.119   1.191  0.2223 -1.8813 -1.0225
  247MOL   H16949861   3.416   3.108   1.522  5.3651 -0.7411  0.3043
  247MOL   H17049862   3.317   2.820   1.551 -0.6995 -0.0775 -0.0933
  247MOL   H17149863   3.295   2.962   1.652 -3.1686 -0.7836  1.0774
  247MOL   C17249864   3.146   2.926   1.498 -0.2668 -0.2142  0.5645
  247MOL   C17349865   3.051   2.885   1.604  0.4692  0.7859 -0.0417
  247MOL  Cl17449866   2.991   2.722   1.577  0.1589  0.4729  0.2924
  247MOL   C17549867   3.029   2.955   1.716  0.1888  0.8029  0.0684
  247MOL   C17649868   2.939   2.915   1.837  0.2869 -0.5274  0.7441
  247MOL   H17749869   3.138   2.868   1.406 -0.6510  0.5656  0.1005
  247MOL   H17849870   3.126   3.029   1.469  0.3842 -0.0606  0.6621
  247MOL   H17949871   3.082   3.047   1.735 -1.1664  1.4254  0.9356
  247MOL   H18049872   3.008   2.891   1.918 -1.2267 -0.3658  2.0966
  247MOL   H18149873   2.885   2.824   1.813  1.4291 -1.2172  0.7569
  247MOL   C18249874   2.833   3.012   1.878 -0.2106 -0.0240 -0.7898
  247MOL   C18349875   2.759   2.974   2.006  0.5996 -0.2272  0.1237
  247MOL  Cl18449876   2.850   3.020   2.142 -0.5075 -0.3532  0.2027
  247MOL   C18549877   2.630   2.937   2.012 -0.0111  0.9336  0.8316
  247MOL   C18649878   2.547   2.915   2.134 -0.3732  0.1069 -0.4343
  247MOL   H18749879   2.886   3.107   1.891 -0.7320  0.4821 -2.2439
  247MOL   H18849880   2.756   3.036   1.805 -1.9669  2.0727  1.6232
  247MOL   H18949881   2.578   2.932   1.917  2.3190 -1.5243 -0.4032
  247MOL   H19049882   2.508   2.814   2.127  0.8157 -0.3383 -0.7602
  247MOL   H19149883   2.605   2.919   2.226  0.1005  0.6991 -0.7573
  247MOL   C19249884   2.433   3.016   2.154  0.1597 -0.0619 -0.3158
  247MOL   C19349885   2.368   3.014   2.286  0.1733 -0.6783 -0.9756
  247MOL  Cl19449886   2.381   3.165   2.365  0.5384 -0.1640 -0.3420
  247MOL   C19549887   2.300   2.905   2.334 -0.5489 -0.6998 -0.1359
  247MOL   C19649888   2.281   2.773   2.269 -0.4838 -0.2452  0.0121
  247MOL   H19749889   2.354   3.005   2.080 -0.6583 -0.0270  0.5473
  247MOL   H19849890   2.483   3.112   2.139  0.0344  0.2097  0.9486
  247MOL   H19949891   2.261   2.913   2.434 -0.1786 -1.2657  0.0577
  247MOL   H20049892   2.359   2.700   2.290  1.5716  1.5604 -1.1151
  247MOL   H20149893   2.269   2.775   2.160 -0.5476 -2.0721 -0.0233
  247MOL   H20249894   2.186   2.726   2.293 -1.1942  1.3604  0.4211
   8.42084   8.42084   8.42084
