Control file title. For DL_FIELD 4.10
49434
    1MOL     C1    1   7.076   3.717   1.694 -1.4395 -0.1311 -0.2019
    1MOL     O2    2   6.958   3.697   1.668 -0.0983  0.0403 -0.2307
    1MOL     C3    3   7.173   3.602   1.666  0.2625 -0.0526 -0.4513
    1MOL     C4    4   7.107   3.473   1.605 -0.2217  0.3634 -0.0993
    1MOL     C5    5   7.209   3.353   1.576  0.6773 -0.1393 -0.3992
    1MOL     C6    6   7.149   3.226   1.515  0.4416 -0.2271  0.0048
    1MOL     C7    7   7.251   3.158   1.430  0.7848  0.0830  0.3476
    1MOL     O8    8   7.254   3.181   1.310  0.0322 -0.2646 -0.0998
    1MOL     N9    9   7.353   3.092   1.488  0.1512  0.7387  0.0708
    1MOL    C10   10   7.474   3.036   1.420  0.3674 -0.7412 -0.3359
    1MOL    C11   11   7.449   2.894   1.354  0.5750  0.6263  0.2967
    1MOL    C12   12   7.586   2.833   1.317  0.1408 -0.2792 -0.2032
    1MOL    C13   13   7.647   2.766   1.434  0.1530 -0.4764  0.0028
    1MOL    N14   14   0.081   2.717   1.420 -0.8076  0.0340 -0.1440
    1MOL    H15   15   7.252   3.634   1.598  1.0637  0.7182  0.8095
    1MOL    H16   16   7.218   3.580   1.763 -1.4668  0.0229  0.3746
    1MOL    H17   17   7.031   3.432   1.671  0.1138 -0.2677 -0.0980
    1MOL    H18   18   7.046   3.501   1.520 -1.3719  0.8223  0.8608
    1MOL    H19   19   7.271   3.329   1.663  0.5465  1.2074  0.0757
    1MOL    H20   20   7.289   3.395   1.515 -1.2664  1.4341 -1.8889
    1MOL    H21   21   7.059   3.257   1.463  0.1778 -2.7235 -1.0716
    1MOL    H22   22   7.113   3.149   1.583 -0.0652  0.7806  0.8980
    1MOL    H23   23   7.337   3.074   1.586  0.2973  0.7060  0.0889
    1MOL    H24   24   7.547   3.039   1.501 -1.9564  2.3378  1.7450
    1MOL    H25   25   7.498   3.117   1.351 -0.4588 -0.4877 -0.3244
    1MOL    H26   26   7.396   2.825   1.420  3.0372 -1.8810 -0.2434
    1MOL    H27   27   7.388   2.900   1.264 -2.3601 -1.4168  2.0371
    1MOL    H28   28   7.647   2.913   1.275  0.8806 -0.4091  0.6182
    1MOL    H29   29   7.590   2.767   1.230  2.7065 -2.1227  1.2388
    1MOL    H30   30   7.593   2.673   1.452  0.5301 -0.6552  0.2322
    1MOL    H31   31   7.636   2.825   1.525 -0.5752  0.8539 -0.9324
    1MOL    H32   32   0.097   2.618   1.416 -2.2936 -0.2242  0.0111
    1MOL    H33   33   7.120   3.816   1.707  0.1430 -0.9736  1.1748
    1MOL    C34   34   0.194   2.788   1.443  0.1436  0.8072 -0.0163
    1MOL    O35   35   0.179   2.906   1.464  0.1344 -0.2447 -0.2576
    1MOL    C36   36   0.332   2.728   1.420  0.0431 -0.0099 -0.4344
    1MOL    C37   37   0.448   2.832   1.397  0.3518  0.2555 -0.2759
    1MOL    C38   38   0.462   2.891   1.258 -1.3710  0.2393 -0.2175
    1MOL    C39   39   0.580   3.002   1.257 -0.1871 -0.8138 -0.7073
    1MOL    C40   40   0.542   3.128   1.335  0.3742 -0.1778 -0.7187
    1MOL    O41   41   0.483   3.218   1.277  0.6740  0.0136  0.2901
    1MOL    N42   42   0.584   3.130   1.463 -0.0194  0.6508 -0.2331
    1MOL    C43   43   0.557   3.225   1.562  0.2432 -0.0332 -0.6695
    1MOL    C44   44   0.505   3.165   1.689  0.1988 -0.3906  0.2294
    1MOL    C45   45   0.471   3.275   1.791 -0.6105  0.1876  0.2513
    1MOL    C46   46   0.376   3.222   1.896 -0.0700  0.1187 -0.0449
    1MOL    N47   47   0.259   3.155   1.839  0.4407 -0.3409 -0.0040
    1MOL    H48   48   0.345   2.666   1.509 -2.1739 -0.4008 -0.3734
    1MOL    H49   49   0.326   2.648   1.346 -1.1763 -0.4328  0.1086
    1MOL    H50   50   0.425   2.906   1.473  0.8378 -0.9376  1.0562
    1MOL    H51   51   0.541   2.779   1.416 -0.1265 -1.1395 -1.6611
    1MOL    H52   52   0.372   2.931   1.212 -0.8014 -0.8330 -2.2909
    1MOL    H53   53   0.488   2.806   1.196  0.5505  0.7438 -0.1402
    1MOL    H54   54   0.575   3.036   1.154 -1.0539  0.6669 -0.1904
    1MOL    H55   55   0.675   2.952   1.275 -0.4260 -1.2217 -0.5722
    1MOL    H56   56   0.651   3.060   1.489  0.3456  1.0362 -0.1420
    1MOL    H57   57   0.495   3.307   1.526  0.5922  1.4135  1.9132
    1MOL    H58   58   0.645   3.286   1.583  0.7253 -0.7325 -0.6351
    1MOL    H59   59   0.416   3.105   1.670 -0.6421  1.2676 -1.1807
    1MOL    H60   60   0.573   3.088   1.724 -0.6613 -0.3055  2.1566
    1MOL    H61   61   0.412   3.346   1.734 -0.5161 -0.3741 -0.5596
    1MOL    H62   62   0.557   3.331   1.829 -0.6375 -0.1756  0.8637
    1MOL    H63   63   0.346   3.300   1.966 -0.2240 -0.1366  0.1759
    1MOL    H64   64   0.415   3.137   1.951 -0.9757 -0.4505 -0.2648
    1MOL    H65   65   0.268   3.130   1.742  3.1603  1.7664 -0.3453
    1MOL    C66   66   0.144   3.141   1.903  0.4329 -0.2068  0.0132
    1MOL    O67   67   0.139   3.158   2.026  0.3580 -0.3752 -0.2071
    1MOL    C68   68   0.026   3.080   1.823  0.2337  0.5168 -0.0314
    1MOL    C69   69   7.612   3.175   1.800  0.6527 -0.0773  0.1970
    1MOL    C70   70   7.518   3.206   1.920  0.7826  0.2486  0.4671
    1MOL    C71   71   7.438   3.085   1.971  0.4421  0.2396 -0.6446
    1MOL    C72   72   7.323   3.044   1.887 -0.6149 -0.0054 -0.7740
    1MOL    O73   73   7.318   3.073   1.769 -0.3492  0.2730 -0.0276
    1MOL    N74   74   7.225   2.976   1.948 -0.1215 -0.2595  0.3032
    1MOL    C75   75   7.108   2.923   1.888 -0.0792 -0.0509 -0.3262
    1MOL    C76   76   7.147   2.786   1.836 -0.0695 -0.5187  0.2510
    1MOL    C77   77   7.027   2.713   1.763  0.5597  0.1805 -0.5454
    1MOL    C78   78   7.047   2.563   1.726 -0.7019 -0.2873  0.5367
    1MOL    N79   79   7.167   2.558   1.646 -0.0469 -0.1688 -0.0997
    1MOL    H80   80   0.071   3.047   1.729 -0.3357 -0.6979  0.1111
    1MOL    H81   81   7.693   2.987   1.869 -0.1108 -0.4954 -2.2518
    1MOL    H82   82   7.664   3.269   1.782  1.4174 -0.4770  0.3290
    1MOL    H83   83   7.551   3.149   1.713 -0.0912 -0.0176  0.6921
    1MOL    H84   84   7.450   3.284   1.887  0.7011  0.9663  2.2844
    1MOL    H85   85   7.586   3.244   1.997 -1.0086  1.8821  1.2777
    1MOL    H86   86   7.403   3.114   2.069  0.0423  0.7039 -0.9245
    1MOL    H87   87   7.503   3.000   1.993  0.6710  0.2325 -1.3268
    1MOL    H88   88   7.231   2.966   2.049 -1.3832 -0.8636  0.3207
    1MOL    H89   89   7.065   2.997   1.821 -2.3133  0.2711  1.4052
    1MOL    H90   90   7.039   2.919   1.973  0.7865 -0.7955  0.3451
    1MOL    H91   91   7.232   2.794   1.769  0.0780  1.4096  0.6473
    1MOL    H92   92   7.181   2.735   1.926  0.5271  0.5908  0.6700
    1MOL    H93   93   7.014   2.777   1.676  1.2432  0.5326 -0.3891
    1MOL    H94   94   6.939   2.721   1.826 -0.1420  0.4107 -1.5500
    1MOL    H95   95   6.955   2.541   1.671 -0.2916  2.4846 -1.3886
    1MOL    H96   96   7.058   2.499   1.813  3.3141  0.5022  0.6864
    1MOL    H97   97   7.174   2.603   1.556  0.5049  0.6771  0.3641
    1MOL    C98   98   7.280   2.514   1.697  0.1934 -0.1963 -0.4240
    1MOL    O99   99   7.301   2.477   1.814  0.1601  0.6059  0.2821
    1MOL   C100  100   7.390   2.507   1.589 -0.1424 -0.7361  0.4095
    1MOL   C101  101   7.523   2.455   1.647 -0.4895 -0.4697  0.7674
    1MOL   C102  102   7.607   2.539   1.746 -0.2148 -0.3269 -0.1372
    1MOL   C103  103   0.033   2.469   1.793 -0.1819  0.0347  0.5961
    1MOL   C104  104   0.149   2.440   1.689  0.2161 -0.1401  0.3605
    1MOL   O105  105   0.126   2.457   1.572  0.2816  0.6728 -0.4223
    1MOL   N106  106   0.268   2.413   1.740  0.4939  0.0167  0.3874
    1MOL   C107  107   0.369   2.347   1.660  0.3261  0.0914  0.6811
    1MOL   C108  108   0.389   2.202   1.707 -0.4017 -1.1280 -0.0830
    1MOL   C109  109   0.500   2.125   1.635 -0.2077 -0.1463 -0.9705
    1MOL   C110  110   0.519   1.988   1.691  0.4432 -0.1864  0.7749
    1MOL   N111  111   0.621   1.901   1.620  0.5285 -0.1639 -0.0176
    1MOL   H112  112   7.359   2.445   1.505 -0.2816  0.7585 -0.6573
    1MOL   H113  113   7.395   2.609   1.553  1.0965 -0.9774 -0.1262
    1MOL   H114  114   7.503   2.360   1.697 -1.1414  0.4266  2.2465
    1MOL   H115  115   7.578   2.433   1.556 -1.4393 -2.6238  0.6814
    1MOL   H116  116   7.545   2.566   1.832 -1.3757  0.5858 -1.2516
    1MOL   H117  117   7.638   2.630   1.695 -0.8632  0.3208  0.6026
    1MOL   H118  118   0.016   2.366   1.826 -0.2896 -0.3525 -0.6319
    1MOL   H119  119   0.071   2.519   1.882 -1.2625  2.1781 -0.1044
    1MOL   H120  120   0.286   2.420   1.839 -0.5266 -0.4441  0.6182
    1MOL   H121  121   0.457   2.407   1.684  1.0580  0.8497 -3.4630
    1MOL   H122  122   0.350   2.359   1.553  2.3167 -1.0164  0.1847
    1MOL   H123  123   0.388   2.195   1.815 -1.3808 -1.2720 -0.0961
    1MOL   H124  124   0.297   2.147   1.691 -1.4514 -0.6001  3.6839
    1MOL   H125  125   0.601   2.164   1.649 -0.2567 -0.7722  1.1795
    1MOL   H126  126   0.472   2.108   1.531  1.8182  0.0141 -1.5478
    1MOL   H127  127   0.422   1.940   1.686  0.8760 -1.0104  0.0593
    1MOL   H128  128   0.538   1.990   1.799 -1.1611 -2.0681  1.1320
    1MOL   H129  129   0.718   1.903   1.650  1.0109  2.1984 -1.6483
    1MOL   C130  130   0.607   1.831   1.513  0.3075 -0.1180 -0.0206
    1MOL   O131  131   0.493   1.834   1.466 -0.5755  0.2118  0.4291
    1MOL   C132  132   0.726   1.752   1.462  0.5460 -0.3780 -0.5371
    1MOL   C133  133   0.746   1.625   1.546  0.0016  0.0408 -0.2711
    1MOL   C134  134   0.679   1.495   1.501  0.9374 -0.6699  0.2174
    1MOL   C135  135   0.723   1.360   1.572  0.3405 -0.2973  0.5366
    1MOL   C136  136   0.674   1.361   1.717  0.3883  0.5475  0.1955
    1MOL   O137  137   0.574   1.294   1.750  0.5535  0.2313  0.1759
    1MOL   N138  138   0.750   1.423   1.806  0.1501  0.5906  0.4742
    1MOL   C139  139   0.709   1.455   1.942  0.3306  0.5579  0.1230
    1MOL   C140  140   0.834   1.458   2.031  0.2340 -0.0130  0.4131
    1MOL   C141  141   0.917   1.326   2.038  0.0629  0.6156  0.4616
    1MOL   C142  142   1.009   1.318   2.159  0.2538  0.3388 -0.1355
    1MOL   N143  143   1.105   1.204   2.144  0.1038  0.2680  0.1319
    1MOL   H144  144   0.716   1.734   1.355 -2.4570 -1.3429 -0.1378
    1MOL   H145  145   0.803   1.823   1.490 -0.1596  0.3318 -0.3659
    1MOL   H146  146   0.853   1.609   1.557  0.0029 -0.1894 -0.5983
    1MOL   H147  147   0.711   1.651   1.646  1.6336 -2.2672  0.9308
    1MOL   H148  148   0.708   1.476   1.397 -1.2729 -1.4033 -0.3004
    1MOL   H149  149   0.571   1.502   1.491  1.0792 -0.9046 -1.7396
    1MOL   H150  150   0.831   1.346   1.565  0.4347  0.8837 -0.5726
    1MOL   H151  151   0.678   1.268   1.533 -1.3752  0.0867  1.6018
    1MOL   H152  152   0.838   1.455   1.767  0.2647 -0.2630  0.0271
    1MOL   H153  153   0.632   1.389   1.983 -1.4162  1.8189 -1.0755
    1MOL   H154  154   0.656   1.550   1.940 -2.2587 -0.8144  1.1033
    1MOL   H155  155   0.900   1.535   1.992  0.0730  0.9579  2.0005
    1MOL   H156  156   0.806   1.496   2.129  0.6576 -0.7134  0.8106
    1MOL   H157  157   0.964   1.311   1.941  1.5113  0.2332  1.2076
    1MOL   H158  158   0.847   1.245   2.057 -0.4797  0.7122 -1.0765
    1MOL   H159  159   0.962   1.307   2.257  0.4981 -0.7363 -0.1371
    1MOL   H160  160   1.063   1.413   2.166  1.1702 -0.1306 -0.8316
    1MOL   H161  161   1.088   1.104   2.147  1.7659 -0.0625 -0.5135
    1MOL   C162  162   1.236   1.215   2.108 -0.1594  0.4403  0.5404
    1MOL   O163  163   1.293   1.321   2.089 -0.0215 -0.2220 -0.4374
    1MOL   C164  164   1.298   1.080   2.077 -0.1490  0.0237  0.1430
    1MOL   C165  165   1.450   1.082   2.048 -0.4353 -0.4273  0.7288
    1MOL   C166  166   1.488   1.153   1.911  0.1940  0.0255  0.8207
    1MOL   C167  167   1.639   1.146   1.880 -0.0642 -0.2000  0.6198
    1MOL   C168  168   1.679   1.001   1.827  0.2852  0.0520 -0.2620
    1MOL   O169  169   1.685   0.982   1.707  0.3017 -0.0562 -0.0358
    1MOL   N170  170   1.700   0.903   1.913  0.4678  0.3833 -0.2699
    1MOL   C171  171   1.686   0.756   1.884 -0.0410 -0.2471 -0.1750
    1MOL   C172  172   1.649   0.683   2.017  0.8008  0.5329 -0.4933
    1MOL   C173  173   1.624   0.531   2.018  0.4732  0.2043 -0.2458
    1MOL   C174  174   1.584   0.493   2.163 -0.2668  0.1292 -1.4950
    1MOL   N175  175   1.519   0.370   2.173 -0.2054  0.2768  0.2020
    1MOL   H176  176   1.287   1.011   2.161 -0.3811 -2.3272 -1.7427
    1MOL   H177  177   1.248   1.040   1.988  1.2692  1.2579 -1.2358
    1MOL   H178  178   1.493   1.138   2.131  1.1933  0.2705 -0.5319
    1MOL   H179  179   1.480   0.978   2.057 -1.2051 -0.7758 -0.6384
    1MOL   H180  180   1.459   1.259   1.913 -1.3952 -0.3836  0.4266
    1MOL   H181  181   1.433   1.118   1.824 -0.9793  3.3931  0.1062
    1MOL   H182  182   1.698   1.168   1.969  0.1297 -1.1403  0.7252
    1MOL   H183  183   1.656   1.224   1.805  0.2873  1.4719  2.3794
    1MOL   H184  184   1.707   0.932   2.010 -2.0574  0.0964  0.0393
    1MOL   H185  185   1.786   0.718   1.862 -0.1909 -0.0761 -1.1419
    1MOL   H186  186   1.616   0.732   1.804  0.4376 -0.4767 -0.5266
    1MOL   H187  187   1.730   0.708   2.087  0.4325  0.4440 -0.0338
    1MOL   H188  188   1.562   0.743   2.041  1.2667  0.7849  0.6077
    1MOL   H189  189   1.716   0.482   1.988 -0.6465 -0.8327 -2.0539
    1MOL   H190  190   1.548   0.503   1.945  0.7632  0.1025 -0.5109
    1MOL   H191  191   1.520   0.570   2.204  1.0829  0.7161 -0.4855
    1MOL   H192  192   1.677   0.496   2.220 -1.8485 -1.6875  1.2829
    1MOL   H193  193   1.451   0.339   2.105 -3.0071 -0.8444  3.3875
    1MOL   C194  194   1.534   0.299   2.284 -0.1341 -0.2295 -0.2435
    1MOL   O195  195   1.598   0.337   2.384  0.1407  0.4856 -0.2512
    1MOL   C196  196   1.463   0.163   2.293  0.4886 -0.1311  0.2006
    1MOL   C197  197   1.333   0.175   2.377  0.8771 -0.0382 -0.0593
    1MOL   C198  198   1.219   0.258   2.312  0.1103 -0.2036 -0.0747
    1MOL   C199  199   1.164   0.186   2.186  0.3027  0.8764 -0.7043
    1MOL   C200  200   1.192   0.259   2.050  0.0678 -0.1403 -0.0360
    1MOL   O201  201   1.295   0.318   2.028 -0.3024  0.1606 -0.0836
    1MOL   N202  202   1.082   0.265   1.970 -0.3520 -0.1724 -0.1565
    1MOL   C203  203   1.075   0.331   1.839  0.2619 -0.2126 -1.0838
    1MOL   C204  204   0.965   0.439   1.832 -0.0212  0.8007  0.6724
    1MOL   C205  205   0.862   0.447   1.947  0.2405 -0.0613 -0.1868
    1MOL   C206  206   0.745   0.337   1.928 -1.5686  0.6449  0.2395
    1MOL   N207  207   0.659   0.309   2.050  0.3602 -0.2571  0.0278
    1MOL   H208  208   1.446   0.124   2.193  1.8596 -0.3841  0.0622
    1MOL   H209  209   1.532   0.089   2.334  1.6816  1.5542  1.2673
    1MOL   H210  210   1.286   0.079   2.395 -3.3644  2.1704  1.3100
    1MOL   H211  211   1.367   0.213   2.473  0.7450 -1.1331  0.4239
    1MOL   H212  212   1.269   0.354   2.295  1.0540 -0.1298  2.9596
    1MOL   H213  213   1.130   0.282   2.371 -0.9408  2.5261 -2.6245
    1MOL   H214  214   1.058   0.162   2.193 -0.1643  2.4485 -2.0194
    1MOL   H215  215   1.213   0.089   2.185 -0.9643  0.1939  1.2045
    1MOL   H216  216   0.998   0.219   2.002  1.0501 -2.4209  0.3836
    1MOL   H217  217   1.048   0.254   1.767 -0.8145  0.0550 -0.9755
    1MOL   H218  218   1.172   0.369   1.806 -1.0808  2.1778 -2.4268
    1MOL   H219  219   1.015   0.535   1.824  0.4803  0.5132  0.3437
    1MOL   H220  220   0.905   0.430   1.741  0.8183 -0.9771  0.2691
    1MOL   H221  221   0.821   0.548   1.946 -1.4747 -0.7461 -1.0706
    1MOL   H222  222   0.915   0.436   2.041 -2.0234  1.8965  1.3945
    1MOL   H223  223   0.784   0.243   1.888 -3.2415 -0.4134  1.0503
    1MOL   H224  224   0.679   0.362   1.845 -1.3530 -0.7416 -0.3770
    1MOL   H225  225   0.564   0.344   2.048  0.7043  0.6744 -0.3322
    1MOL   C226  226   0.714   0.250   2.159  0.2365  0.1103 -0.5243
    1MOL   O227  227   0.835   0.221   2.169  0.6636  0.3515 -0.7745
    1MOL   C228  228   0.628   0.245   2.288  0.6866 -0.7422 -0.7993
    1MOL   C229  229   0.709   0.262   2.417 -0.8215 -0.4878 -0.2122
    1MOL   C230  230   0.776   0.398   2.433  0.1501 -0.1140  0.3635
    1MOL   C231  231   0.676   0.518   2.449 -0.4742 -0.0312 -0.9437
    1MOL   C232  232   0.600   0.580   2.330 -0.6022  0.0464  0.2049
    1MOL   O233  233   0.652   0.589   2.219  0.1735  0.1590 -0.1015
    1MOL   N234  234   0.477   0.614   2.358  0.0892  0.6811 -0.0983
    1MOL   C235  235   0.389   0.702   2.279  0.3451  0.2658 -0.5676
    1MOL   C236  236   0.288   0.775   2.366  0.2495 -0.1220  0.2921
    1MOL   C237  237   0.349   0.881   2.457  0.7932  0.3418 -0.3856
    1MOL   C238  238   0.245   0.938   2.561  0.5356 -0.4307 -0.2754
    1MOL   N239  239   0.319   1.005   2.667  0.6654  0.0314 -0.2870
    1MOL   H240  240   0.542   0.312   2.288  1.0740 -0.2300 -2.2558
    1MOL   H241  241   0.575   0.149   2.289 -1.4643  0.3984  3.2673
    1MOL   H242  242   0.636   0.242   2.495  1.0638 -1.3151  1.4024
    1MOL   H243  243   0.782   0.181   2.425 -0.0543  0.0598 -1.4829
    1MOL   H244  244   0.842   0.423   2.350 -0.1100  0.6775  0.3917
    1MOL   H245  245   0.841   0.393   2.521  2.0451 -0.0121 -0.9899
    1MOL   H246  246   0.729   0.596   2.505 -0.8356  1.0414 -2.0601
    1MOL   H247  247   0.603   0.477   2.519 -1.8545  0.1681 -2.2332
    1MOL   H248  248   0.440   0.579   2.445  1.2428 -2.0888 -0.6984
    1MOL   H249  249   0.319   0.646   2.218 -0.9604 -1.2583  2.2341
    1MOL   H250  250   0.446   0.767   2.213  0.3886 -2.1612 -3.0001
    1MOL   H251  251   0.231   0.826   2.288  0.3608 -0.2425  0.1307
    1MOL   H252  252   0.223   0.710   2.425  1.1353  0.9278  2.4795
    1MOL   H253  253   0.386   0.956   2.388 -2.1948  2.3031  0.0348
    1MOL   H254  254   0.427   0.825   2.508  0.0435 -0.3526  0.0250
    1MOL   H255  255   0.197   0.853   2.608  0.6991 -0.6291 -0.4682
    1MOL   H256  256   0.167   0.997   2.512  0.3809 -1.0904 -0.8298
    1MOL   H257  257   0.302   0.964   2.758 -1.8294  1.4428 -0.0678
    1MOL   C258  258   0.388   1.118   2.654 -0.6021 -0.1348 -0.3302
    1MOL   O259  259   0.386   1.179   2.548  0.4009 -0.2036  0.2855
    1MOL   C260  260   0.459   1.178   2.774 -0.0960 -0.4794  0.7174
    1MOL   C261  261   0.534   1.074   2.858 -0.0118  0.1076 -0.1576
    1MOL   C262  262   0.641   0.988   2.788 -0.7367 -0.4193  0.9374
    1MOL   C263  263   0.774   1.059   2.747 -0.4693 -0.4038  0.4329
    1MOL   C264  264   0.883   0.981   2.669  0.0226  0.7062  0.3523
    1MOL   O265  265   0.872   0.861   2.662  0.6102 -0.5271  0.1638
    1MOL   N266  266   0.988   1.053   2.618 -0.5576  0.5995  0.5810
    1MOL   C267  267   1.105   1.002   2.540  0.5264  0.3029 -0.2097
    1MOL   C268  268   1.204   1.108   2.504 -0.0099 -0.4103  0.2460
    1MOL   C269  269   1.345   1.046   2.476  0.0516  0.3484 -0.5956
    1MOL   C270  270   1.445   1.152   2.434 -0.2164  0.3145 -0.4181
    1MOL   N271  271   1.571   1.099   2.397  0.1228  0.1316 -0.3851
    1MOL   H272  272   0.529   1.251   2.734 -0.8296  0.5123  1.2296
    1MOL   H273  273   0.393   1.237   2.838  1.7098  0.8429  1.3956
    1MOL   H274  274   0.578   1.117   2.948  1.4394  0.2429 -0.9341
    1MOL   H275  275   0.454   1.007   2.891  1.6683 -1.1894  1.3541
    1MOL   H276  276   0.600   0.942   2.698 -1.7669  1.5873  0.3531
    1MOL   H277  277   0.669   0.903   2.849  3.5198 -3.3391 -4.5716
    1MOL   H278  278   0.829   1.076   2.839 -1.4784 -0.5881  1.0796
    1MOL   H279  279   0.761   1.161   2.712 -1.2368 -0.9623 -0.9558
    1MOL   H280  280   1.000   1.146   2.656  0.8136 -0.4486  2.7938
    1MOL   H281  281   1.076   0.941   2.455  1.0105 -0.2887  0.0465
    1MOL   H282  282   1.160   0.933   2.604 -0.2581  1.9691  2.3566
    1MOL   H283  283   1.172   1.171   2.421  0.5686 -1.1440 -0.5443
    1MOL   H284  284   1.224   1.172   2.590  0.3224  0.9483 -0.8332
    1MOL   H285  285   1.350   0.981   2.390  3.4870  1.8738 -1.6301
    1MOL   H286  286   1.379   0.984   2.559  0.9777  0.1224 -1.1460
    1MOL   H287  287   1.469   1.220   2.516  0.7641  0.8445 -1.1445
    1MOL   H288  288   1.409   1.215   2.353 -0.8557 -0.6143 -0.8604
    1MOL   H289  289   1.587   1.001   2.419  2.3965  0.5473 -0.1326
    1MOL   C290  290   1.675   1.164   2.351 -0.8379 -0.2043  0.0049
    1MOL   O291  291   1.674   1.286   2.329 -0.8216  0.3569 -0.2759
    1MOL   C292  292   1.798   1.076   2.317 -0.1379 -0.5081 -0.2854
    1MOL   C293  293   1.926   1.151   2.354  0.5093  0.3659  0.0804
    1MOL   C294  294   1.988   1.240   2.233 -0.2120  0.5936  0.3689
    1MOL   C295  295   2.137   1.287   2.256  0.1258  0.5876 -0.6075
    1MOL   C296  296   2.242   1.180   2.237 -0.6726 -0.2849  0.4696
    1MOL   O297  297   2.214   1.061   2.208  0.3704  0.2640  0.4279
    1MOL   N298  298   2.364   1.218   2.276 -0.0036  0.2485  0.6649
    1MOL   C299  299   2.484   1.146   2.249 -0.2643  0.0017  0.0535
    1MOL   C300  300   2.515   1.161   2.101  0.0608 -0.3640  0.2235
    1MOL   C301  301   2.665   1.130   2.064 -0.3836  0.1925  0.0881
    1MOL   C302  302   2.693   1.106   1.913  0.3953  0.0224  0.4842
    1MOL   N303  303   2.674   1.234   1.841 -0.4842 -0.3850  0.0395
    1MOL   H304  304   1.779   0.978   2.358 -1.1537  0.0475  0.6007
    1MOL   H305  305   1.788   1.056   2.210  1.9150 -2.4435 -0.1346
    1MOL   H306  306   1.910   1.208   2.446 -1.1798 -1.7024  1.1305
    1MOL   H307  307   2.006   1.081   2.379  0.4025 -0.6574 -2.3047
    1MOL   H308  308   1.930   1.331   2.218 -0.6263  0.0691 -1.3116
    1MOL   H309  309   1.987   1.181   2.141  0.9976  0.3268  0.5201
    1MOL   H310  310   2.142   1.327   2.358  0.4196  2.3510 -1.2992
    1MOL   H311  311   2.159   1.374   2.193  0.1617  0.7921 -0.3167
    1MOL   H312  312   2.372   1.311   2.314 -1.6919  0.1102  1.4164
    1MOL   H313  313   2.477   1.040   2.271 -0.9259  0.4657  2.1868
    1MOL   H314  314   2.565   1.181   2.312 -1.3785  0.6702  1.1366
    1MOL   H315  315   2.452   1.096   2.041  2.1451 -2.5061  0.2358
    1MOL   H316  316   2.480   1.253   2.055  1.8365  0.1752 -0.0803
    1MOL   H317  317   2.682   1.035   2.115 -1.1763 -0.7062 -1.2764
    1MOL   H318  318   2.723   1.213   2.105 -1.7752  1.3028 -0.1633
    1MOL   H319  319   2.621   1.029   1.885  0.3310  0.0947  0.4544
    1MOL   H320  320   2.794   1.066   1.901  0.5746  0.4008  0.7329
    1MOL   H321  321   2.580   1.258   1.813 -0.1226  1.4593  0.3723
    1MOL   C322  322   2.768   1.323   1.808 -0.2767 -0.1913  0.4394
    1MOL   O323  323   2.887   1.309   1.828 -0.4466 -0.9030  0.0594
    1MOL   C324  324   2.716   1.456   1.749  0.6431 -0.4273 -0.0918
    1MOL   C325  325   2.773   1.471   1.603 -0.2769 -0.8779  0.1170
    1MOL   C326  326   2.729   1.607   1.527  0.2208  0.2082 -0.4162
    1MOL   C327  327   2.764   1.602   1.376 -0.3424  0.3426  0.3904
    1MOL   C328  328   2.722   1.729   1.304 -0.0085  0.0529  0.3056
    1MOL   O329  329   2.606   1.775   1.326  0.6489  0.0203 -0.6126
    1MOL   N330  330   2.804   1.788   1.218 -0.1137  0.1526 -0.9200
    1MOL   C331  331   2.767   1.907   1.140  0.2887  0.5582  0.2635
    1MOL   C332  332   2.887   1.968   1.068  0.4201 -0.2888  0.3549
    1MOL   C333  333   2.977   2.043   1.160 -0.2193 -0.3238  0.3496
    1MOL   C334  334   3.058   1.960   1.261 -0.1515  0.2770  0.0824
    1MOL   N335  335   3.176   2.043   1.297 -0.4548 -0.1477  0.6484
    1MOL   H336  336   2.607   1.455   1.745  0.6754 -0.1351 -1.2383
    1MOL   H337  337   2.750   1.538   1.813 -0.2899 -1.6074  1.9562
    1MOL   H338  338   2.882   1.472   1.599 -0.3307  0.2131 -1.7611
    1MOL   H339  339   2.746   1.384   1.542 -0.1305  0.3616 -1.7706
    1MOL   H340  340   2.777   1.691   1.577 -1.8346  1.2506 -0.1273
    1MOL   H341  341   2.624   1.630   1.543  0.1415  0.1318 -0.8030
    1MOL   H342  342   2.699   1.530   1.325  0.1208 -1.3678  2.1319
    1MOL   H343  343   2.869   1.575   1.361 -0.2984  0.5092  0.4051
    1MOL   H344  344   2.896   1.750   1.205 -0.7552 -1.2374 -1.4298
    1MOL   H345  345   2.719   1.983   1.202  2.2121  0.5811  1.7589
    1MOL   H346  346   2.704   1.864   1.063  0.3681  1.1746 -0.1512
    1MOL   H347  347   2.942   1.888   1.019 -0.5716 -0.8247  0.1016
    1MOL   H348  348   2.856   2.040   0.992  1.9612  3.5342  3.1755
    1MOL   H349  349   2.926   2.118   1.220  0.2836 -0.5097  1.0183
    1MOL   H350  350   3.048   2.108   1.108 -1.0509 -0.3065 -0.7651
    1MOL   H351  351   3.099   1.864   1.229 -2.0976 -1.0100  1.3468
    1MOL   H352  352   2.998   1.930   1.346 -1.3040  0.7762 -0.5527
    1MOL   H353  353   3.224   2.088   1.221  2.5503 -2.2801  1.2096
    1MOL   C354  354   3.190   2.105   1.413 -0.9406  0.6916 -0.0159
    1MOL   O355  355   3.135   2.058   1.511 -0.3490 -0.0301 -0.0812
    1MOL   C356  356   3.276   2.234   1.416  0.3565 -0.0793  0.2889
    1MOL   C357  357   3.255   2.304   1.552 -0.5975  0.0750 -0.6157
    1MOL   C358  358   3.279   2.461   1.549 -0.3394 -0.1295 -0.2920
    1MOL   C359  359   3.310   2.520   1.687  0.1749  0.5186 -0.6392
    1MOL   C360  360   3.196   2.493   1.788  0.2016 -0.2993 -0.0118
    1MOL   O361  361   3.079   2.518   1.749 -0.6270  0.7940 -0.1420
    1MOL   N362  362   3.218   2.463   1.915 -0.1540 -0.7963 -0.0688
    1MOL   C363  363   3.112   2.416   2.007  0.4311 -0.3706 -0.0630
    1MOL   C364  364   3.064   2.273   1.983 -0.6628 -0.3171 -0.1649
    1MOL   C365  365   3.174   2.174   1.947  0.1687 -0.1131  0.1893
    1MOL   C366  366   3.121   2.031   1.903 -0.5966 -0.0769  0.1518
    1MOL   N367  367   3.038   2.040   1.787 -0.0838 -0.6729  0.5742
    1MOL   H368  368   3.378   2.205   1.393  0.1822  0.7641 -1.6726
    1MOL   H369  369   3.235   2.303   1.343 -0.9973 -1.4842 -0.3284
    1MOL   H370  370   3.163   2.280   1.606  0.0369 -1.9126 -0.3881
    1MOL   H371  371   3.322   2.254   1.623 -2.2772 -2.7595 -0.9535
    1MOL   H372  372   3.195   2.509   1.498 -2.4717 -2.3162  1.0811
    1MOL   H373  373   3.366   2.484   1.488  0.7993 -2.1907  0.5182
    1MOL   H374  374   3.344   2.623   1.688 -0.2584  0.6742 -1.5641
    1MOL   H375  375   3.395   2.465   1.727 -0.5994 -0.2339  0.0134
    1MOL   H376  376   3.313   2.444   1.943 -0.7975 -3.9890  0.1054
    1MOL   H377  377   3.027   2.484   2.016 -0.8720 -2.4348  5.0899
    1MOL   H378  378   3.151   2.429   2.108  2.6184  0.9479 -1.0496
    1MOL   H379  379   3.013   2.233   2.071  0.2163 -1.4444 -0.1520
    1MOL   H380  380   2.984   2.273   1.908 -1.9361  1.7143  1.1683
    1MOL   H381  381   3.229   2.161   2.040  0.2550  0.0194  0.1572
    1MOL   H382  382   3.249   2.200   1.873 -0.1932  0.1387 -0.0943
    1MOL   H383  383   3.066   1.989   1.987  1.0840  0.7788  1.7395
    1MOL   H384  384   3.194   1.954   1.880 -0.0038  1.0700 -2.0141
    1MOL   H385  385   3.084   2.074   1.704 -0.9125  1.1871  0.8454
    1MOL   C386  386   2.915   1.988   1.768  0.1737 -0.0562 -0.2786
    1MOL   O387  387   2.856   1.920   1.852  0.0261 -0.4609 -0.6716
    1MOL   C388  388   2.850   1.996   1.626  0.1143  0.3673 -0.7209
    1MOL   C389  389   2.696   1.981   1.627 -0.2675 -0.0581 -0.0989
    1MOL   C390  390   2.641   2.060   1.508  0.0928 -0.0427  0.7132
    1MOL   C391  391   2.491   2.049   1.498 -0.1967  0.5611 -0.3713
    1MOL   C392  392   2.401   2.049   1.624 -0.6206  0.7462 -0.8903
    1MOL   O393  393   2.352   1.938   1.658 -0.3134  0.2568 -0.1112
    1MOL   N394  394   2.377   2.158   1.695  0.6610 -0.3916 -0.1072
    1MOL   C395  395   2.313   2.157   1.827 -0.1762 -0.5087  0.5969
    1MOL   C396  396   2.218   2.278   1.859 -0.2776 -0.4451 -0.1345
    1MOL   C397  397   2.120   2.242   1.966 -1.1224 -0.4553  0.1115
    1MOL   C398  398   2.169   2.174   2.093 -0.2134 -0.6781  0.0469
    1MOL   N399  399   2.280   2.235   2.165 -0.2174 -0.0857 -0.0837
    1MOL   H400  400   2.879   2.096   1.594 -0.8207  0.8222 -0.1854
    1MOL   H401  401   2.888   1.935   1.543 -3.8434 -0.6304 -1.9446
    1MOL   H402  402   2.660   1.878   1.626 -2.0456  0.5535 -0.1648
    1MOL   H403  403   2.662   2.027   1.719  0.3499 -0.8493  0.5348
    1MOL   H404  404   2.695   2.031   1.418 -0.9557  2.1108 -0.6591
    1MOL   H405  405   2.654   2.168   1.517  1.3533 -0.1215 -0.0895
    1MOL   H406  406   2.469   1.960   1.438 -2.1224  0.8586 -0.1548
    1MOL   H407  407   2.457   2.122   1.424 -0.0640  1.0816  0.0810
    1MOL   H408  408   2.428   2.239   1.663  0.5556 -0.4820 -0.5203
    1MOL   H409  409   2.402   2.174   1.888  1.3516 -1.6900 -1.2380
    1MOL   H410  410   2.279   2.058   1.858 -0.1056 -0.3009  1.3413
    1MOL   H411  411   2.273   2.366   1.891  1.7366 -1.1371 -1.5541
    1MOL   H412  412   2.156   2.308   1.774 -2.6778  1.4379  2.2291
    1MOL   H413  413   2.041   2.175   1.932 -1.6407  0.6114 -0.8345
    1MOL   H414  414   2.067   2.328   2.007 -1.2314 -1.0154  1.1786
    1MOL   H415  415   2.200   2.071   2.073 -0.0924 -0.7749  0.7362
    1MOL   H416  416   2.082   2.177   2.158  0.4938  0.8519  0.9341
    1MOL   H417  417   2.362   2.176   2.166 -0.7342 -0.8054 -0.1869
    1MOL   C418  418   2.276   2.347   2.237 -0.5737  0.6156 -0.1131
    1MOL   O419  419   2.174   2.411   2.249 -0.4832 -0.1757  0.0069
    1MOL   C420  420   2.412   2.395   2.284  1.0544 -1.0581  0.0692
    1MOL   C421  421   2.419   2.535   2.340  0.2395 -0.1028 -0.4741
    1MOL   C422  422   2.409   2.649   2.229  0.2525  0.8783 -0.2599
    1MOL   C423  423   2.358   2.779   2.298 -0.2142  0.7552  0.0212
    1MOL   C424  424   2.340   2.899   2.211 -0.2526 -0.3263 -0.1414
    1MOL   O425  425   2.345   2.883   2.089 -0.2175 -0.5891 -0.2778
    1MOL   N426  426   2.319   3.015   2.275 -0.4532 -0.1875  0.1549
    1MOL   C427  427   2.311   3.143   2.217 -0.0617 -0.5130 -0.4195
    1MOL   C428  428   2.431   3.228   2.259 -0.0188  0.2920 -0.0223
    1MOL   C429  429   2.416   3.358   2.177 -0.2285 -0.2557  0.9358
    1MOL   C430  430   2.517   3.461   2.221  0.5546 -0.8114 -0.2254
    1MOL   N431  431   2.653   3.406   2.206 -0.2625 -0.1203 -0.3196
    1MOL   H432  432   2.443   2.326   2.363  0.4020 -0.0649  1.2172
    1MOL   H433  433   2.486   2.395   2.204  2.9554  0.8764  1.7159
    1MOL   H434  434   2.343   2.560   2.414  1.1822  1.7477 -0.0875
    1MOL   H435  435   2.512   2.547   2.396 -0.3643 -1.6273  0.8773
    1MOL   H436  436   2.353   2.622   2.139 -1.0360  2.1863  0.1309
    1MOL   H437  437   2.513   2.653   2.198  0.5747  0.8310  0.7991
    1MOL   H438  438   2.428   2.797   2.379  1.3820  1.8149 -1.5535
    1MOL   H439  439   2.260   2.762   2.343 -2.9693  3.9842 -4.2256
    1MOL   H440  440   2.292   3.005   2.372  0.4520 -1.1382  0.3261
    1MOL   H441  441   2.215   3.184   2.247  0.5722  1.8050 -1.4384
    1MOL   H442  442   2.315   3.135   2.108  1.4565  1.2543 -0.5294
    1MOL   H443  443   2.443   3.234   2.367 -2.5290  0.2038  0.2927
    1MOL   H444  444   2.520   3.182   2.217  0.4627  2.4743 -1.5135
    1MOL   H445  445   2.315   3.388   2.206 -0.6411 -0.7746  0.0721
    1MOL   H446  446   2.422   3.344   2.069  0.9862 -0.8543  1.0720
    1MOL   H447  447   2.505   3.480   2.328  0.2905  2.1590 -0.7616
    1MOL   H448  448   2.502   3.555   2.169 -0.1299 -1.2789 -0.8825
    1MOL   H449  449   2.672   3.316   2.248 -1.0951  1.3209  3.2740
    1MOL   C450  450   2.754   3.465   2.133  0.2019 -0.1939 -0.2524
    1MOL   O451  451   2.743   3.565   2.063 -0.2093 -0.4199 -0.5265
    1MOL   C452  452   2.885   3.397   2.143 -1.0103  0.3736 -0.4506
    1MOL   C453  453   2.886   3.268   2.060 -0.2597  0.7061 -0.5177
    1MOL   C454  454   2.851   3.288   1.906  0.2068  0.0951  0.0440
    1MOL   C455  455   2.964   3.246   1.819  0.1309 -0.3229 -0.0484
    1MOL   C456  456   2.996   3.096   1.803  0.3614  0.1539 -0.0585
    1MOL   O457  457   2.976   3.011   1.890 -0.8202 -0.6022 -0.7480
    1MOL   N458  458   3.052   3.064   1.686 -0.1385  0.2084  0.5192
    1MOL   C459  459   3.102   2.927   1.654 -0.2757 -0.2705 -0.3306
    1MOL   C460  460   3.141   2.939   1.507  0.3211  0.3133 -0.5007
    1MOL   C461  461   3.178   2.808   1.435  0.2643 -0.1960 -0.1270
    1MOL   C462  462   3.224   2.828   1.288 -0.3833  0.6920 -0.2714
    1MOL   N463  463   3.275   2.699   1.241 -0.3170 -0.7481  0.5032
    1MOL   H464  464   2.969   3.458   2.110 -1.6642 -0.3622 -3.6931
    1MOL   H465  465   2.898   3.364   2.246  1.4698  0.1875 -0.7791
    1MOL   H466  466   2.983   3.220   2.071 -0.8593 -0.5928 -0.7757
    1MOL   H467  467   2.813   3.199   2.103  0.5066  0.9365  1.1568
    1MOL   H468  468   2.846   3.395   1.889  0.9492  0.5023  2.2174
    1MOL   H469  469   2.752   3.246   1.887  0.6824 -0.4122 -1.3880
    1MOL   H470  470   3.061   3.289   1.840  1.3865 -3.3092  0.5904
    1MOL   H471  471   2.941   3.273   1.716 -0.1345 -0.2499  0.0285
    1MOL   H472  472   3.080   3.139   1.625  0.1010  1.6948  2.4208
    1MOL   H473  473   3.017   2.860   1.669  0.9361 -1.2519  2.3254
    1MOL   H474  474   3.187   2.908   1.719 -0.2162  0.3303 -0.2255
    1MOL   H475  475   3.064   2.994   1.454  0.5088 -0.7618 -1.9334
    1MOL   H476  476   3.228   3.003   1.522 -0.1147  1.3121 -2.1482
    1MOL   H477  477   3.091   2.743   1.431 -0.2855  0.5412 -0.4305
    1MOL   H478  478   3.249   2.751   1.494  0.1427  0.0109  0.2205
    1MOL   H479  479   3.297   2.908   1.278 -1.6508  1.6966 -1.7448
    1MOL   H480  480   3.142   2.865   1.227 -0.2141  2.1424  0.3680
    1MOL   H481  481   3.339   2.644   1.296  2.3079  0.4387 -1.2750
    1MOL   C482  482   3.264   2.655   1.113  0.7318 -0.2274 -0.2596
    1MOL   O483  483   3.237   2.736   1.023 -0.7297 -1.0365  0.0636
    1MOL   C484  484   3.299   2.504   1.092  0.1451  0.6591 -0.6987
    1MOL   C485  485   3.183   2.439   1.009  0.4359 -0.2367 -0.8585
    1MOL   C486  486   3.053   2.401   1.085  0.0473  0.6467  0.1369
    1MOL   C487  487   2.945   2.330   0.994  0.1095 -0.7974 -0.4877
    1MOL   C488  488   2.895   2.417   0.879  0.0577  0.0328 -0.0497
    1MOL   O489  489   2.942   2.408   0.768  0.0028  0.3803  0.1950
    1MOL   N490  490   2.795   2.493   0.913  0.0593  0.0146  0.0069
    1MOL   C491  491   2.734   2.601   0.837  0.3161 -0.4413 -0.2504
    1MOL   C492  492   2.728   2.732   0.915  0.2919 -0.0250 -0.4382
    1MOL   C493  493   2.860   2.793   0.941  0.0935 -0.0954  0.5102
    1MOL   C494  494   2.916   2.866   0.819 -0.2358 -0.0374  0.3656
    1MOL   N495  495   3.040   2.928   0.867  0.0528  0.4243  0.5831
    1MOL   H496  496   3.397   2.504   1.044  0.3090 -1.7312 -0.4265
    1MOL   H497  497   3.321   2.450   1.184  0.2870 -1.6713 -2.0893
    1MOL   H498  498   3.163   2.499   0.920 -2.7352  0.7402  0.4147
    1MOL   H499  499   3.216   2.346   0.963 -0.5928 -1.9183  1.6849
    1MOL   H500  500   3.007   2.492   1.124 -0.5876 -0.2719  1.5575
    1MOL   H501  501   3.080   2.339   1.170 -0.6425 -0.2573 -0.2951
    1MOL   H502  502   2.861   2.297   1.055  0.0816  1.4979  0.7346
    1MOL   H503  503   2.969   2.237   0.942 -2.0969 -0.7435 -1.7120
    1MOL   H504  504   2.772   2.482   1.011 -0.1844 -0.1640 -0.0695
    1MOL   H505  505   2.636   2.556   0.824  0.7462 -1.8256  1.1476
    1MOL   H506  506   2.785   2.609   0.741  2.8088 -0.6188  1.0048
    1MOL   H507  507   2.672   2.801   0.853  0.0953 -0.1777 -0.4334
    1MOL   H508  508   2.681   2.711   1.011  0.8794 -0.5980 -0.2741
    1MOL   H509  509   2.936   2.722   0.973 -0.7862 -1.9660 -1.4383
    1MOL   H510  510   2.846   2.862   1.024 -0.0553 -0.9715  1.2149
    1MOL   H511  511   2.852   2.934   0.762  0.3461 -0.1917 -0.4923
    1MOL   H512  512   2.953   2.795   0.745  1.0039  0.4130  0.5428
    1MOL   H513  513   3.088   2.874   0.937 -1.6531 -3.2791 -0.9576
    1MOL   C514  514   3.096   3.043   0.828 -0.1726 -0.4934 -0.1397
    1MOL   O515  515   3.059   3.122   0.743  0.0139  0.2426  0.2202
    1MOL   C516  516   3.217   3.095   0.913 -0.3959  0.0137 -0.4617
    1MOL   C517  517   3.185   3.218   1.003 -0.1404 -0.4765  0.1084
    1MOL   C518  518   3.071   3.184   1.108  0.1099  0.0343  0.4905
    1MOL   C519  519   3.059   3.302   1.209  0.1189  0.5819 -0.1939
    1MOL   C520  520   3.157   3.287   1.334 -0.1431 -0.0784 -0.4062
    1MOL   O521  521   3.117   3.232   1.440 -0.1237  0.0848  0.0357
    1MOL   N522  522   3.281   3.337   1.326 -0.3912  0.1646  0.2504
    1MOL   C523  523   3.387   3.302   1.418 -0.2995  0.3715 -0.0825
    1MOL   C524  524   3.474   3.195   1.342 -0.0200 -0.4342 -0.0341
    1MOL   C525  525   3.586   3.140   1.428 -0.6732  0.4456 -0.2455
    1MOL   C526  526   3.542   3.030   1.524  0.3273  0.3523 -0.3931
    1MOL   N527  527   3.650   2.978   1.607  0.8162  0.5912 -0.2460
    1MOL   H528  528   3.248   3.012   0.976  0.3804  0.5790 -0.0981
    1MOL   H529  529   3.291   3.112   0.835 -1.2710  0.2969 -1.2410
    1MOL   H530  530   3.275   3.263   1.045 -0.1877 -0.3835  0.1113
    1MOL   H531  531   3.154   3.293   0.930 -1.5023 -0.5768  0.5772
    1MOL   H532  532   3.107   3.095   1.159  1.1253  0.5889  0.7538
    1MOL   H533  533   2.977   3.143   1.070  0.4887  1.3166 -1.9818
    1MOL   H534  534   2.954   3.302   1.238  0.6316  0.7403  1.6871
    1MOL   H535  535   3.072   3.400   1.164  0.0928  1.5181  1.8064
    1MOL   H536  536   3.308   3.393   1.247 -0.5578  0.3675  0.3359
    1MOL   H537  537   3.343   3.270   1.513 -0.7512  2.5237  0.4637
    1MOL   H538  538   3.448   3.387   1.449 -0.3049  0.1987  0.4058
    1MOL   H539  539   3.413   3.107   1.324 -3.0789  1.8462 -1.1451
    1MOL   H540  540   3.517   3.234   1.250  1.3786 -1.5199  0.1378
    1MOL   H541  541   3.635   3.220   1.484 -0.1096  1.6809 -2.4420
    1MOL   H542  542   3.662   3.090   1.368  0.0759  1.8384 -0.5001
    1MOL   H543  543   3.508   2.945   1.464 -1.2912  1.1988 -0.7101
    1MOL   H544  544   3.462   3.050   1.595  0.2507 -2.7223  0.4801
    1MOL   H545  545   3.747   2.984   1.580  0.8637  2.9286  0.3518
    1MOL   C546  546   3.627   2.902   1.720 -0.4465 -1.3212  0.5364
    1MOL   O547  547   3.514   2.872   1.762  0.2088  0.2294 -0.2080
    1MOL   C548  548   3.758   2.863   1.788  0.3020 -0.3265 -0.4217
    1MOL   C549  549   3.734   2.814   1.933  1.0958 -0.2011 -0.4942
    1MOL   C550  550   3.689   2.667   1.960  0.1384  0.1482 -0.2630
    1MOL   C551  551   3.546   2.620   1.923  0.1607  0.2258 -0.0214
    1MOL   C552  552   3.433   2.655   2.028  0.1510  0.3303 -0.3715
    1MOL   O553  553   3.388   2.583   2.109 -0.0352 -0.1030 -0.1999
    1MOL   N554  554   3.388   2.781   2.013  0.2431 -0.4299  0.0655
    1MOL   C555  555   3.308   2.854   2.110 -0.3859  0.0552  0.4415
    1MOL   C556  556   3.165   2.812   2.122 -0.4948 -0.2329 -0.2833
    1MOL   C557  557   3.083   2.918   2.189 -0.1199 -0.2967 -0.2876
    1MOL   C558  558   2.940   2.864   2.217  0.3989 -0.3691 -0.1810
    1MOL   N559  559   2.870   2.845   2.089  0.5179 -0.0721  0.2761
    1MOL   H560  560   3.804   2.775   1.743 -0.1086 -0.3836 -0.7354
    1MOL   H561  561   3.828   2.946   1.785  0.0102 -0.1264 -1.6613
    1MOL   H562  562   3.831   2.832   1.978  0.6877  0.8652 -0.0254
    1MOL   H563  563   3.661   2.874   1.986  1.8826 -0.1836  0.5845
    1MOL   H564  564   3.691   2.650   2.068 -0.3073  2.0964  0.0699
    1MOL   H565  565   3.768   2.602   1.922 -0.0647 -0.7508  0.7932
    1MOL   H566  566   3.536   2.512   1.911  0.8488  0.3232 -1.6012
    1MOL   H567  567   3.507   2.641   1.823 -0.1251 -1.5976 -0.3034
    1MOL   H568  568   3.410   2.835   1.930  2.9084  0.1755  1.1021
    1MOL   H569  569   3.322   2.957   2.076 -1.9744  0.2800  0.4101
    1MOL   H570  570   3.350   2.846   2.211 -0.3279 -1.6741  0.2963
    1MOL   H571  571   3.117   2.783   2.028  0.5563  0.0497 -0.9204
    1MOL   H572  572   3.172   2.727   2.191 -2.0082  0.3721  0.6155
    1MOL   H573  573   3.080   3.011   2.131 -1.0427  0.7807  1.4500
    1MOL   H574  574   3.130   2.926   2.287 -1.4729  1.0864  0.2708
    1MOL   H575  575   2.883   2.928   2.284  0.6440  0.8816 -1.1626
    1MOL   H576  576   2.956   2.769   2.269 -2.7576 -0.2608  1.1164
    1MOL   H577  577   2.882   2.918   2.020 -0.5451 -2.1772 -2.2051
    1MOL   C578  578   2.803   2.736   2.055  0.9550  0.4484  0.5173
    1MOL   O579  579   2.774   2.643   2.133  0.1068 -0.0734 -0.2821
    1MOL   C580  580   2.769   2.727   1.905 -0.1339  0.1754 -0.9441
    1MOL   C581  581   2.632   2.667   1.877  0.1056 -0.0632 -0.5425
    1MOL   C582  582   2.596   2.530   1.933  0.4145  0.2380  0.1674
    1MOL   C583  583   2.694   2.413   1.897 -1.4799 -0.3414 -0.3173
    1MOL   C584  584   2.700   2.393   1.743  0.0700 -0.0294  0.2531
    1MOL   O585  585   2.596   2.369   1.687  0.2745  0.3723 -0.4572
    1MOL   N586  586   2.817   2.423   1.681  0.5211  0.1974 -0.0297
    1MOL   C587  587   2.841   2.417   1.535  0.0891 -0.3998 -0.2106
    1MOL   C588  588   2.874   2.550   1.470 -0.5398 -0.3952 -0.6256
    1MOL   C589  589   2.762   2.657   1.453 -0.2428 -0.1456  0.2028
    1MOL   C590  590   2.805   2.795   1.403  0.9896 -0.0186  0.8475
    1MOL   N591  591   2.698   2.896   1.382  0.3011  0.0639  0.1585
    1MOL   H592  592   2.772   2.819   1.846 -0.0739  0.6992 -0.1350
    1MOL   H593  593   2.846   2.660   1.867  0.9647  0.8503  0.0485
    1MOL   H594  594   2.548   2.730   1.907 -1.9403 -1.9852 -2.0539
    1MOL   H595  595   2.627   2.654   1.769  1.7074 -0.0845 -0.6206
    1MOL   H596  596   2.499   2.495   1.899  0.6240  0.7740 -0.9787
    1MOL   H597  597   2.570   2.526   2.039 -1.9634 -1.2531 -0.4404
    1MOL   H598  598   2.664   2.320   1.945  0.8273 -0.3302  1.2465
    1MOL   H599  599   2.794   2.426   1.939 -1.3261 -1.9292 -0.1767
    1MOL   H600  600   2.902   2.438   1.734  1.2536  0.4104 -1.2313
    1MOL   H601  601   2.761   2.360   1.488 -0.7499  1.1126 -0.6427
    1MOL   H602  602   2.927   2.350   1.525  1.2222  0.8120  1.1921
    1MOL   H603  603   2.949   2.591   1.538 -1.8718  0.4871  0.3371
    1MOL   H604  604   2.926   2.541   1.375 -1.2565  0.6690 -1.1261
    1MOL   H605  605   2.700   2.657   1.542 -1.2187 -1.7623 -0.4394
    1MOL   H606  606   2.693   2.610   1.382 -0.5634  0.8471 -0.1444
    1MOL   H607  607   2.864   2.782   1.312 -0.1483 -1.1351  0.2584
    1MOL   H608  608   2.871   2.828   1.483  0.3965 -0.7695  1.6537
    1MOL   H609  609   2.607   2.884   1.423  0.5383  3.0592  1.6895
    1MOL   C610  610   2.729   3.019   1.347  0.0718 -1.0885 -0.9456
    1MOL   O611  611   2.837   3.046   1.294  0.0480  0.1286 -0.5847
    1MOL   C612  612   2.628   3.126   1.362 -0.0174 -0.5369  0.6402
    1MOL   C613  613   2.651   3.203   1.487  0.6345  0.1299 -0.2305
    1MOL   C614  614   2.560   3.331   1.484  0.1808 -0.1841 -0.1602
    1MOL   C615  615   2.571   3.404   1.615  0.2358  0.6953 -0.1237
    1MOL   C616  616   2.472   3.518   1.625 -0.2810 -1.0096  0.3157
    1MOL   O617  617   2.359   3.506   1.571 -0.1935 -0.7803 -0.6438
    1MOL   N618  618   2.505   3.626   1.711 -0.6008  0.0456 -0.2406
    1MOL   C619  619   2.434   3.751   1.721 -0.1713 -0.0361  0.9047
    1MOL   C620  620   2.457   3.829   1.848 -0.2428  0.3372  0.1398
    1MOL   C621  621   2.603   3.841   1.884 -0.2201 -0.0519 -0.5331
    1MOL   C622  622   2.619   3.902   2.022  0.0071  0.4844 -1.1542
    1MOL   N623  623   2.605   4.044   2.008 -0.5173  0.2440 -0.1877
    1MOL   H624  624   2.630   3.186   1.271  0.7903 -0.4916  0.6881
    1MOL   H625  625   2.532   3.073   1.366  0.2714 -1.2114 -0.8752
    1MOL   H626  626   2.634   3.138   1.572 -4.0305  1.2189 -0.2023
    1MOL   H627  627   2.756   3.234   1.494  1.0485 -1.1503 -0.6795
    1MOL   H628  628   2.462   3.287   1.463  0.4888  0.1084 -2.3260
    1MOL   H629  629   2.593   3.393   1.401 -0.0361 -0.4748 -0.4649
    1MOL   H630  630   2.672   3.441   1.632  1.0861 -1.7908  0.5574
    1MOL   H631  631   2.562   3.336   1.700  2.3442  0.1954 -0.2635
    1MOL   H632  632   2.600   3.636   1.744 -1.2792  2.9109  1.0122
    1MOL   H633  633   2.326   3.740   1.736 -0.3385 -0.5387 -0.6101
    1MOL   H634  634   2.453   3.823   1.641 -0.7781 -1.3943 -0.5016
    1MOL   H635  635   2.414   3.929   1.838  0.6027  0.6424 -0.4827
    1MOL   H636  636   2.396   3.787   1.928 -0.9938 -0.7176 -0.9779
    1MOL   H637  637   2.650   3.905   1.810  0.2476 -1.6810 -1.6612
    1MOL   H638  638   2.659   3.748   1.878  0.8144  0.5210  0.1895
    1MOL   H639  639   2.716   3.891   2.070 -0.3408  0.1342 -0.5172
    1MOL   H640  640   2.555   3.869   2.104  1.4377 -2.3605 -1.1343
    1MOL   H641  641   2.511   4.064   1.979  0.1121  0.8758 -1.8606
    1MOL   H642  642   2.607   4.084   2.100 -1.9685  2.6542 -1.1417
    2MOL     C1  643   0.267   4.607   7.556  0.2624 -0.2230  0.3772
    2MOL     O2  644   0.223   4.642   7.446  0.0580  0.0399  0.5267
    2MOL     C3  645   0.416   4.603   7.594 -0.0013  0.7348  0.2374
    2MOL     C4  646   0.513   4.665   7.493 -0.4387 -0.2380  0.4229
    2MOL     C5  647   0.502   4.821   7.476  0.4272 -0.1528 -0.5338
    2MOL     C6  648   0.500   4.904   7.603  0.1082  1.0709  0.3598
    2MOL     C7  649   0.504   5.053   7.577  0.0782 -0.3378 -0.4786
    2MOL     O8  650   0.479   5.095   7.468  0.9931 -0.2551 -0.3555
    2MOL     N9  651   0.549   5.133   7.674 -0.4360 -0.0447 -0.5225
    2MOL    C10  652   0.581   5.273   7.659  0.1497 -0.2897  0.3523
    2MOL    C11  653   0.727   5.302   7.608 -0.0205 -0.1710 -0.2951
    2MOL    C12  654   0.765   5.454   7.600 -0.8711  0.1524  0.7987
    2MOL    C13  655   0.889   5.481   7.517 -0.2361 -0.4030  0.1148
    2MOL    N14  656   0.936   5.614   7.536 -0.4591 -0.3018 -0.1484
    2MOL    H15  657   0.425   4.657   7.688 -0.4672  2.4347 -0.6675
    2MOL    H16  658   0.442   4.498   7.606  1.5378  1.2150  1.2130
    2MOL    H17  659   0.616   4.635   7.506 -0.1930  0.1075 -0.6992
    2MOL    H18  660   0.501   4.619   7.395  2.6204 -1.6072  0.6541
    2MOL    H19  661   0.412   4.839   7.416  0.0641 -0.4982 -0.0939
    2MOL    H20  662   0.585   4.858   7.416 -0.0136 -0.1221 -1.1317
    2MOL    H21  663   0.595   4.881   7.650  1.1555  1.7315 -1.3712
    2MOL    H22  664   0.426   4.887   7.681 -2.0991 -0.5738 -1.9779
    2MOL    H23  665   0.578   5.090   0.059  0.0075  1.0382 -0.1158
    2MOL    H24  666   0.565   5.316   0.057  0.6895  1.1759 -0.1692
    2MOL    H25  667   0.512   5.326   7.593 -1.3891 -0.0253  2.1431
    2MOL    H26  668   0.803   5.254   7.670 -1.3465 -0.1726  1.3666
    2MOL    H27  669   0.749   5.265   7.508 -0.7294 -0.8280 -0.2172
    2MOL    H28  670   0.780   5.488   0.001 -0.0910 -1.4279  1.2306
    2MOL    H29  671   0.673   5.502   7.565 -1.5983 -0.5739  1.6512
    2MOL    H30  672   0.859   5.463   7.414  0.6633 -0.6262 -0.1089
    2MOL    H31  673   0.969   5.411   7.538  1.2196  0.7096 -1.5845
    2MOL    H32  674   1.027   5.627   7.578 -0.2923  2.0913 -1.1727
    2MOL    H33  675   0.204   4.572   7.637 -2.1973 -0.2790 -1.5106
    2MOL    C34  676   0.872   5.723   7.493  0.3520 -0.4484  0.2711
    2MOL    O35  677   0.754   5.728   7.460  0.4913  0.3664  0.4221
    2MOL    C36  678   0.954   5.851   7.507 -0.1531 -0.0525  0.7894
    2MOL    C37  679   0.889   5.932   7.624  0.5311  0.6999  0.2168
    2MOL    C38  680   0.987   6.028   7.688 -0.0582  0.2496  0.4988
    2MOL    C39  681   0.926   6.132   0.081  0.7266  0.1711 -0.0998
    2MOL    C40  682   0.890   6.077   0.217  0.1252 -0.0506 -0.0669
    2MOL    O41  683   0.972   6.016   0.287  0.3146 -0.8556  0.6479
    2MOL    N42  684   0.759   6.083   0.246  0.8513  0.4535  0.0406
    2MOL    C43  685   0.699   6.039   0.372 -0.6359 -0.0406 -0.9590
    2MOL    C44  686   0.652   5.897   0.364  0.4474  0.1833 -0.0302
    2MOL    C45  687   0.766   5.793   0.332 -0.4079  0.1660  0.1450
    2MOL    C46  688   0.719   5.653   0.307  0.2578 -0.4791  0.0183
    2MOL    N47  689   0.685   5.595   0.439  0.0910  0.4598 -0.1048
    2MOL    H48  690   1.055   5.820   7.537 -0.4385 -1.8241 -0.0111
    2MOL    H49  691   0.965   5.911   7.417 -4.4252  0.2921  0.4132
    2MOL    H50  692   0.806   5.986   7.578  1.0785  0.9582 -0.4665
    2MOL    H51  693   0.844   5.868   7.700 -1.7697 -0.4607 -2.0601
    2MOL    H52  694   1.049   6.077   7.614 -1.3669  0.7963 -0.2540
    2MOL    H53  695   1.066   5.970   0.036  0.7287  1.0090  0.1405
    2MOL    H54  696   0.839   6.179   0.036 -0.9018 -1.8655  0.8207
    2MOL    H55  697   1.000   6.211   0.098 -0.9365  1.6744  0.2902
    2MOL    H56  698   0.703   6.119   0.170  1.7127 -0.1137 -0.8908
    2MOL    H57  699   0.606   6.096   0.377  0.4620  2.0589 -3.2614
    2MOL    H58  700   0.768   6.060   0.453  1.5762  0.1253 -2.8190
    2MOL    H59  701   0.607   5.865   0.459  1.7318 -1.8949 -0.0888
    2MOL    H60  702   0.567   5.889   0.295  1.3110  1.1462 -1.2188
    2MOL    H61  703   0.839   5.788   0.413 -0.7621 -0.7912  0.4082
    2MOL    H62  704   0.813   5.815   0.236 -1.2299 -2.9573 -1.0228
    2MOL    H63  705   0.801   5.598   0.262 -0.4144 -2.5485  1.2489
    2MOL    H64  706   0.636   5.661   0.236 -0.1331  1.2839  0.6352
    2MOL    H65  707   0.760   5.583   0.505  1.2689 -0.5263 -1.6069
    2MOL    C66  708   0.575   5.520   0.465  0.4564  0.6846  0.0134
    2MOL    O67  709   0.477   5.510   0.396 -0.5351 -0.3110  0.0297
    2MOL    C68  710   0.581   5.434   0.592 -0.6439 -0.3946 -0.0568
    2MOL    C69  711   0.660   5.301   0.571  0.0093  1.2985  1.1465
    2MOL    C70  712   0.561   5.209   0.494  0.0959 -0.4907  0.6726
    2MOL    C71  713   0.645   5.091   0.433  0.0699 -0.3621 -0.5850
    2MOL    C72  714   0.562   4.995   0.341 -0.1487 -0.9310 -0.3134
    2MOL    O73  715   0.557   5.004   0.218 -0.1025 -0.2120  0.2982
    2MOL    N74  716   0.489   4.906   0.409 -0.5913  0.1676 -0.3652
    2MOL    C75  717   0.437   4.785   0.356 -0.0495 -0.3208  0.0030
    2MOL    C76  718   0.521   4.665   0.401 -0.9517  0.2834 -0.1005
    2MOL    C77  719   0.443   4.535   0.421  0.8018  0.1736  0.3405
    2MOL    C78  720   0.358   4.484   0.295 -0.3789 -0.0143 -0.3734
    2MOL    N79  721   0.239   4.560   0.269  0.6695 -0.2777  0.1008
    2MOL    H80  722   0.653   5.483   0.658 -0.2122 -0.0053 -0.8078
    2MOL    H81  723   0.480   5.422   0.630 -0.4611  0.3953  0.6962
    2MOL    H82  724   0.762   5.311   0.535 -0.4786  1.6909 -0.1283
    2MOL    H83  725   0.676   5.263   0.672  0.4722 -1.5919  0.0253
    2MOL    H84  726   0.528   5.270   0.409 -1.7341 -2.4581 -0.0891
    2MOL    H85  727   0.476   5.183   0.557 -1.1849  1.7693 -0.0606
    2MOL    H86  728   0.681   5.030   0.516 -0.6478 -0.9911 -0.7280
    2MOL    H87  729   0.721   5.128   0.365 -0.4328  1.9627  0.0706
    2MOL    H88  730   0.489   4.917   0.509 -0.8786  1.9097 -0.5395
    2MOL    H89  731   0.424   4.795   0.249  0.5924 -0.9456 -0.1413
    2MOL    H90  732   0.331   4.776   0.380 -0.0688  0.3097  0.1558
    2MOL    H91  733   0.607   4.648   0.336 -1.0483 -0.9266  0.0753
    2MOL    H92  734   0.562   4.682   0.501  1.4205  1.3907 -1.2264
    2MOL    H93  735   0.379   4.538   0.509  2.4518 -0.6914  1.6024
    2MOL    H94  736   0.520   4.457   0.425 -1.1398 -1.9127 -1.1453
    2MOL    H95  737   0.336   4.380   0.320  1.7809  0.0257  1.8127
    2MOL    H96  738   0.411   4.486   0.200 -1.9422 -1.3153 -1.2954
    2MOL    H97  739   0.223   4.621   0.191  1.4647  1.4213  1.2296
    2MOL    C98  740   0.126   4.542   0.345  1.8021 -0.1136 -0.1384
    2MOL    O99  741   0.111   4.459   0.429 -0.1859 -0.2638  0.0632
    2MOL   C100  742   0.011   4.627   0.307 -0.0199 -0.2312 -0.4175
    2MOL   C101  743   7.700   4.746   0.405 -0.6671  0.6306 -0.3888
    2MOL   C102  744   7.570   4.830   0.392 -0.4814 -0.1168  0.2255
    2MOL   C103  745   7.441   4.746   0.385  0.2494  0.8798  0.2171
    2MOL   C104  746   7.339   4.824   0.461  0.3938  0.0001 -0.2968
    2MOL   O105  747   7.301   4.932   0.417 -0.2012  0.6783 -0.1441
    2MOL   N106  748   7.292   4.769   0.570 -0.0826  0.0730 -0.1604
    2MOL   C107  749   7.171   4.810   0.640 -1.0235 -0.3236  0.0153
    2MOL   C108  750   7.079   4.687   0.657  0.0133  0.4769 -0.6580
    2MOL   C109  751   6.957   4.737   0.734  0.3724 -0.3343 -0.4087
    2MOL   C110  752   6.858   4.629   0.784 -0.4544  0.3815 -0.5250
    2MOL   N111  753   6.768   4.701   0.874 -0.4217  0.4601 -0.5629
    2MOL   H112  754   0.010   4.660   0.203 -0.4933 -0.0338 -0.3513
    2MOL   H113  755   7.620   4.570   0.307 -0.4389  0.4024 -2.4368
    2MOL   H114  756   0.015   4.709   0.506 -0.8317  1.0701 -0.2030
    2MOL   H115  757   0.076   4.822   0.387 -1.4199  1.5153  0.0951
    2MOL   H116  758   7.574   4.881   0.296 -1.0329 -2.0230 -0.8269
    2MOL   H117  759   7.572   4.910   0.466 -0.0086 -0.3197  0.4326
    2MOL   H118  760   7.457   4.649   0.433 -0.4806 -0.3240 -1.8998
    2MOL   H119  761   7.413   4.728   0.281  1.3481  0.6165 -0.0381
    2MOL   H120  762   7.320   4.675   0.593 -3.0752 -0.1006  3.2354
    2MOL   H121  763   7.120   4.897   0.601  0.3641  0.0650 -0.9782
    2MOL   H122  764   7.194   4.842   0.742  0.1449 -3.4163  0.7896
    2MOL   H123  765   7.033   4.656   0.563 -1.5091 -0.4474  0.3710
    2MOL   H124  766   7.133   4.606   0.706  0.1187  0.1779 -1.2615
    2MOL   H125  767   6.918   4.815   0.668  3.1631  1.5786  0.1257
    2MOL   H126  768   6.997   4.791   0.819 -0.2291 -1.9572  0.9182
    2MOL   H127  769   6.914   4.552   0.838 -1.9516 -0.4640 -0.1379
    2MOL   H128  770   6.801   4.578   0.707 -0.1749 -2.1284  0.8768
    2MOL   H129  771   6.792   4.796   0.900  0.8336 -0.3206  1.2667
    2MOL   C130  772   6.649   4.653   0.908 -0.5804  0.4429  0.5797
    2MOL   O131  773   6.607   4.553   0.851  0.1103  0.0567 -0.3655
    2MOL   C132  774   6.568   4.727   1.015 -0.7334  0.7612  0.4405
    2MOL   C133  775   6.491   4.629   1.102 -0.2251 -0.5795  0.7989
    2MOL   C134  776   6.447   4.684   1.234 -0.5947  0.7949  0.7713
    2MOL   C135  777   6.556   4.696   1.344 -0.1579  0.2530 -0.1257
    2MOL   C136  778   6.612   4.572   1.407 -0.2195  0.0523  0.0397
    2MOL   O137  779   6.546   4.473   1.423 -0.1750 -0.0332  0.1401
    2MOL   N138  780   6.738   4.578   1.446  0.0738 -0.0032 -0.6620
    2MOL   C139  781   6.820   4.482   1.502  0.7153  0.3248  0.5476
    2MOL   C140  782   6.807   4.489   1.655  0.4560 -0.1779 -0.9439
    2MOL   C141  783   6.919   4.415   1.723 -0.1890  0.1621 -0.1387
    2MOL   C142  784   6.894   4.412   1.877 -0.5691  0.2622 -0.6344
    2MOL   N143  785   6.997   4.322   1.927  0.4104 -0.1678  0.2165
    2MOL   H144  786   6.641   4.790   1.066  1.6023 -0.8910 -0.7728
    2MOL   H145  787   6.498   4.789   0.960 -0.9959 -0.4879 -0.6478
    2MOL   H146  788   6.403   4.594   1.048 -0.7303 -2.1961  2.6343
    2MOL   H147  789   6.550   4.540   1.123  0.2970 -0.5313 -0.4102
    2MOL   H148  790   6.362   4.623   1.264 -0.2608  0.3714  0.8750
    2MOL   H149  791   6.411   4.785   1.218 -2.4373  0.0593  0.1201
    2MOL   H150  792   6.508   4.758   1.421  2.3747  1.7329  0.3311
    2MOL   H151  793   6.633   4.768   1.316 -0.2358  0.3732 -0.0348
    2MOL   H152  794   6.784   4.668   1.436 -0.6007  0.5572  0.9685
    2MOL   H153  795   6.920   4.507   1.469  0.2425  0.8733 -0.4922
    2MOL   H154  796   6.803   4.382   1.460  1.1250  0.8813 -0.9658
    2MOL   H155  797   6.819   4.594   1.682  0.6729 -0.1212 -1.2626
    2MOL   H156  798   6.703   4.458   1.672  0.3205  0.2819 -0.9408
    2MOL   H157  799   7.010   4.472   1.702  0.1689  0.2329  1.5319
    2MOL   H158  800   6.919   4.321   1.668  1.2818  0.6048 -0.9496
    2MOL   H159  801   6.794   4.387   1.912 -1.3164  2.8160 -0.8552
    2MOL   H160  802   6.917   4.507   1.926  2.5928 -1.4933  1.3924
    2MOL   H161  803   7.015   4.249   1.860  1.0027 -1.3056  1.6126
    2MOL   C162  804   7.066   4.331   2.040 -0.1805 -0.0456 -0.9098
    2MOL   O163  805   7.032   4.406   2.135 -0.4589  0.6444 -0.0824
    2MOL   C164  806   7.197   4.251   2.032 -0.0019 -0.3051  0.5584
    2MOL   C165  807   7.263   4.251   2.172 -0.2916  0.5484 -0.9293
    2MOL   C166  808   7.181   4.156   2.269 -0.0312  0.2709  0.6812
    2MOL   C167  809   7.222   4.005   2.258 -0.1063 -0.4278  0.4002
    2MOL   C168  810   7.154   3.922   2.366 -0.8048  0.1956 -0.3687
    2MOL   O169  811   7.140   3.962   2.482  0.2958  0.3159 -0.3923
    2MOL   N170  812   7.131   3.798   2.325  0.0467 -0.2623  0.8111
    2MOL   C171  813   7.065   3.699   2.401  0.4332  0.5744 -0.1210
    2MOL   C172  814   7.163   3.628   2.497  0.0804 -0.3541  0.3033
    2MOL   C173  815   7.096   3.527   2.587 -0.2393  0.1629 -0.2313
    2MOL   C174  816   7.182   3.428   2.660  0.0524  0.0217  0.3855
    2MOL   N175  817   7.103   3.348   2.754 -0.2591  0.5031 -0.2007
    2MOL   H176  818   7.184   4.152   1.990  0.6566 -0.5691  0.9746
    2MOL   H177  819   7.257   4.313   1.965  0.1122 -0.0828  0.8681
    2MOL   H178  820   7.364   4.212   2.161  0.3209  1.6411  0.4729
    2MOL   H179  821   7.277   4.357   2.194 -0.8584  0.9629 -2.5395
    2MOL   H180  822   7.074   4.173   2.266 -0.2234 -1.1650 -1.3873
    2MOL   H181  823   7.217   4.180   2.369 -1.3267  0.1274  1.1932
    2MOL   H182  824   7.328   3.996   2.283 -0.6228 -3.8887  1.5061
    2MOL   H183  825   7.223   3.966   2.156 -0.9898 -0.3671  0.3644
    2MOL   H184  826   7.143   3.778   2.227  0.5055 -1.0733  1.0268
    2MOL   H185  827   7.020   3.627   2.334 -0.7666 -1.1001  2.4059
    2MOL   H186  828   6.977   3.731   2.457 -0.2194 -0.8171 -0.3392
    2MOL   H187  829   7.240   3.581   2.436 -0.3120 -1.1020  0.3808
    2MOL   H188  830   7.213   3.704   2.557  1.0274  0.4628 -1.4570
    2MOL   H189  831   7.030   3.467   2.524  1.3393 -2.2673  0.3439
    2MOL   H190  832   7.034   3.578   2.661 -0.0371  0.4874 -0.2887
    2MOL   H191  833   7.253   3.486   2.718 -0.2013  0.2794  0.4385
    2MOL   H192  834   7.235   3.364   2.589 -1.8483  1.5306 -2.4987
    2MOL   H193  835   7.015   3.312   2.719  0.0478 -1.6705  1.1684
    2MOL   C194  836   7.135   3.313   2.877  0.4241  0.3311 -0.1869
    2MOL   O195  837   7.245   3.338   2.918  0.1265  0.2166  0.0782
    2MOL   C196  838   7.026   3.246   2.963 -0.2943 -0.6409 -0.1922
    2MOL   C197  839   7.046   3.100   2.992 -0.2788  0.1405 -0.3579
    2MOL   C198  840   7.044   3.012   2.865 -0.3864  0.6805 -0.1173
    2MOL   C199  841   7.117   2.875   2.876  0.0587 -0.3687  0.5049
    2MOL   C200  842   7.125   2.792   2.751 -0.1980  0.1403 -0.4832
    2MOL   O201  843   7.083   2.837   2.646 -0.1753  0.3802  0.5827
    2MOL   N202  844   7.180   2.674   2.769 -0.0020 -0.2200  0.8625
    2MOL   C203  845   7.182   2.567   2.667  0.1795 -0.0098 -0.0075
    2MOL   C204  846   7.188   2.431   2.731  0.0248  0.7332 -0.0071
    2MOL   C205  847   7.207   2.320   2.624 -0.2677 -0.2192  0.1766
    2MOL   C206  848   7.350   2.314   2.570  0.3092  0.5656 -0.5019
    2MOL   N207  849   7.363   2.226   2.460 -0.2245 -0.1303  0.2445
    2MOL   H208  850   7.014   3.299   3.057  1.3064  0.9708 -0.8669
    2MOL   H209  851   6.927   3.263   2.921 -0.6118  0.5238  1.0369
    2MOL   H210  852   7.146   3.097   3.035 -0.0640  0.3609 -0.8498
    2MOL   H211  853   6.964   3.067   3.057 -1.1828  0.7175 -1.1900
    2MOL   H212  854   7.093   3.070   2.787 -0.6628  2.3564  0.9289
    2MOL   H213  855   6.943   2.994   2.828 -0.2496 -2.6262  0.9484
    2MOL   H214  856   7.070   2.813   2.952  1.6765 -2.9492 -0.5579
    2MOL   H215  857   7.214   2.910   2.911  0.0814 -0.4004  0.4749
    2MOL   H216  858   7.216   2.636   2.855  0.7217 -1.6878 -0.0606
    2MOL   H217  859   7.269   2.588   2.605 -1.1167  5.4125 -0.2993
    2MOL   H218  860   7.095   2.581   2.602  1.2992  1.3014 -1.2572
    2MOL   H219  861   7.253   2.425   2.818  1.5841  1.3981 -1.1023
    2MOL   H220  862   7.090   2.412   2.773  0.7366  0.8701  1.7393
    2MOL   H221  863   7.139   2.342   2.542  1.6728  1.0099 -1.1648
    2MOL   H222  864   7.177   2.225   2.668  1.5895 -0.5402  0.8151
    2MOL   H223  865   7.418   2.301   2.655  1.0284 -1.2494 -1.3401
    2MOL   H224  866   7.371   2.411   2.524 -1.5353 -0.1509 -2.9347
    2MOL   H225  867   7.284   2.229   2.397 -0.2411  0.6461  0.3004
    2MOL   C226  868   7.465   2.137   2.438  0.3642 -0.3241  0.2970
    2MOL   O227  869   7.548   2.126   2.525 -0.3176  0.2953 -0.3741
    2MOL   C228  870   7.469   2.051   2.305 -0.0561 -0.1350 -0.9446
    2MOL   C229  871   7.561   2.107   2.204 -0.9528  0.4828 -0.8365
    2MOL   C230  872   7.497   2.176   2.086 -0.3394 -0.1139  0.2219
    2MOL   C231  873   7.413   2.305   2.110  0.1413  1.1525  0.1588
    2MOL   C232  874   7.478   2.426   2.168 -0.9551  0.2693 -0.2972
    2MOL   O233  875   7.542   2.426   2.272 -0.2564  0.1861 -0.9769
    2MOL   N234  876   7.468   2.537   2.095  0.2902  0.1097  0.0036
    2MOL   C235  877   7.514   2.660   2.149  0.3898 -0.8664  0.1186
    2MOL   C236  878   7.660   2.684   2.118  0.2843  0.0278 -0.6147
    2MOL   C237  879   0.017   2.814   2.168 -0.1438 -0.5258 -0.0716
    2MOL   C238  880   0.175   2.818   2.162  0.4528  0.0577  0.4175
    2MOL   N239  881   0.216   2.847   2.031 -0.0867  0.1749 -0.0605
    2MOL   H240  882   7.499   1.948   2.325  0.8005  0.5986  1.8377
    2MOL   H241  883   7.366   2.051   2.270 -0.2461 -3.1883 -0.5247
    2MOL   H242  884   7.630   2.175   2.255 -0.0998 -1.9378  1.3115
    2MOL   H243  885   7.622   2.024   2.166 -1.2124  0.5489 -1.4105
    2MOL   H244  886   7.434   2.103   2.034 -1.9342  0.8377  0.7648
    2MOL   H245  887   7.573   2.205   2.013 -0.2520  1.6644  0.9931
    2MOL   H246  888   7.337   2.271   2.181 -0.7181 -0.7741 -1.6161
    2MOL   H247  889   7.350   2.329   2.024 -1.1028 -2.0665  0.1155
    2MOL   H248  890   7.421   2.530   2.006  1.3905 -0.4475 -0.5556
    2MOL   H249  891   7.491   2.658   2.256  0.1857 -0.9569  0.0732
    2MOL   H250  892   7.459   2.742   2.104  3.9223  1.2919 -0.4187
    2MOL   H251  893   0.009   2.595   2.154  1.6396  0.6211 -1.0064
    2MOL   H252  894   7.676   2.684   2.010  0.9802  1.5303 -0.5189
    2MOL   H253  895   7.676   2.834   2.266 -3.2092  3.3859 -2.0638
    2MOL   H254  896   7.681   2.895   2.106 -0.1602 -0.6011 -0.1604
    2MOL   H255  897   0.216   2.722   2.191 -1.9419 -0.9328  0.6945
    2MOL   H256  898   0.205   2.893   2.236 -0.5593  0.0667  0.8286
    2MOL   H257  899   0.215   2.944   2.005  0.4127  0.0344 -0.6171
    2MOL   C258  900   0.266   2.759   1.946  0.2340 -0.3037 -0.2165
    2MOL   O259  901   0.265   2.639   1.969 -0.0456  0.4202  0.5210
    2MOL   C260  902   0.322   2.808   1.808  0.3058  0.5335 -0.1460
    2MOL   C261  903   0.457   2.742   1.775  0.5343 -0.3916  0.3987
    2MOL   C262  904   0.574   2.790   1.864  0.0995 -0.3372  0.4306
    2MOL   C263  905   0.710   2.747   1.812 -0.0838 -0.1020 -0.4383
    2MOL   C264  906   0.770   2.809   1.688 -0.0274  0.3695 -0.6358
    2MOL   O265  907   0.713   2.903   1.630  0.5639  0.1964  0.1182
    2MOL   N266  908   0.882   2.748   1.638  0.5840  0.3514  0.8067
    2MOL   C267  909   0.954   2.791   1.524 -0.0573 -0.5716  0.9518
    2MOL   C268  910   1.029   2.675   1.454 -0.3776  0.2408  0.1723
    2MOL   C269  911   1.107   2.733   1.332  0.8173 -0.2836  0.2478
    2MOL   C270  912   1.153   2.636   1.218 -0.0822 -0.5003 -0.3209
    2MOL   N271  913   1.240   2.529   1.275 -0.2909 -0.3618 -0.0381
    2MOL   H272  914   0.245   2.781   1.736 -1.2399  0.0205  1.6759
    2MOL   H273  915   0.330   2.915   1.793  1.7014  0.4796  0.1454
    2MOL   H274  916   0.442   2.635   1.786 -1.7868 -0.4835 -3.0266
    2MOL   H275  917   0.487   2.750   1.671 -3.3807 -0.6749 -0.8183
    2MOL   H276  918   0.576   2.754   1.967  2.2658 -1.3476  0.0729
    2MOL   H277  919   0.565   2.899   1.869 -1.9850 -0.4436 -0.7247
    2MOL   H278  920   0.702   2.645   1.774 -1.2432 -0.3107  0.3395
    2MOL   H279  921   0.773   2.755   1.901  1.0814 -0.4975 -1.2138
    2MOL   H280  922   0.926   2.669   1.685  1.9174  1.2100  1.0453
    2MOL   H281  923   1.005   2.883   1.552 -1.5196  1.5191 -2.7738
    2MOL   H282  924   0.884   2.825   1.447  0.1955 -1.8111  0.1724
    2MOL   H283  925   1.094   2.630   1.529 -1.8435  1.5966  2.3415
    2MOL   H284  926   0.958   2.596   1.431 -0.5908  0.3127  0.5789
    2MOL   H285  927   1.193   2.787   1.372  1.2532 -0.3589 -0.5641
    2MOL   H286  928   1.026   2.796   1.295  0.2734 -0.8552  0.4512
    2MOL   H287  929   1.190   2.705   1.143  0.8145  0.2413  0.7741
    2MOL   H288  930   1.071   2.576   1.180 -1.8496  0.8750  1.2546
    2MOL   H289  931   1.202   2.489   1.359 -0.5757  0.6088  0.2997
    2MOL   C290  932   1.352   2.480   1.235  0.1348  0.4402 -0.4968
    2MOL   O291  933   1.405   2.512   1.132 -0.0395 -0.1656  0.3576
    2MOL   C292  934   1.411   2.377   1.327 -0.1074  0.0399 -0.0729
    2MOL   C293  935   1.419   2.232   1.271 -0.1041 -0.0198  0.0577
    2MOL   C294  936   1.508   2.133   1.337  0.4212  0.3281 -0.7752
    2MOL   C295  937   1.502   1.997   1.277 -0.2017 -0.1676 -0.2882
    2MOL   C296  938   1.365   1.920   1.316  0.2361 -0.3460  0.6867
    2MOL   O297  939   1.308   1.951   1.421 -0.4314  0.0163  0.1011
    2MOL   N298  940   1.320   1.826   1.240  0.3782  0.0009 -0.1226
    2MOL   C299  941   1.201   1.737   1.274 -0.1069 -0.3411  0.0805
    2MOL   C300  942   1.232   1.622   1.374 -0.1697  0.0781 -0.9203
    2MOL   C301  943   1.118   1.513   1.387 -0.3231  0.1715  0.8545
    2MOL   C302  944   1.159   1.401   1.478  0.5872  0.0503  1.2477
    2MOL   N303  945   1.208   1.441   1.607 -0.2325 -0.3580  0.4580
    2MOL   H304  946   1.511   2.415   1.345  1.2627 -3.2893 -0.5039
    2MOL   H305  947   1.359   2.377   1.423 -1.2069 -2.0042 -0.6345
    2MOL   H306  948   1.320   2.189   1.254  0.7606 -2.0848  0.1119
    2MOL   H307  949   1.457   2.237   1.169 -0.1243  1.9621  0.1245
    2MOL   H308  950   1.475   2.116   1.440 -0.2434 -0.0675 -1.0495
    2MOL   H309  951   1.612   2.163   1.351  0.4330 -0.0615  0.0442
    2MOL   H310  952   1.586   1.943   1.321 -0.9073 -0.3652  0.8281
    2MOL   H311  953   1.518   2.008   1.170  1.4660  0.0603 -0.0216
    2MOL   H312  954   1.355   1.797   1.150 -1.0265 -0.7482 -0.4488
    2MOL   H313  955   1.156   1.707   1.179 -0.2017  0.9247 -0.2865
    2MOL   H314  956   1.130   1.803   1.325 -0.4299 -0.9283  0.3887
    2MOL   H315  957   1.318   1.569   1.332  0.2878  1.3017 -1.5393
    2MOL   H316  958   1.263   1.651   1.474  0.3241  0.8431 -1.2884
    2MOL   H317  959   1.079   1.467   1.297  0.1942  0.7935  0.2971
    2MOL   H318  960   1.028   1.558   1.429  1.0201  1.4674  2.4240
    2MOL   H319  961   1.227   1.333   1.426 -0.7024 -0.8210  0.6740
    2MOL   H320  962   1.074   1.336   1.498 -0.9730  1.6693 -0.0465
    2MOL   H321  963   1.305   1.466   1.618  0.0625 -0.3565 -1.7817
    2MOL   C322  964   1.129   1.466   1.714 -0.4124 -0.3351 -0.0199
    2MOL   O323  965   1.012   1.428   1.712  0.0461  0.1366 -0.2924
    2MOL   C324  966   1.197   1.527   1.835  0.1280 -0.2461  0.7906
    2MOL   C325  967   1.215   1.679   1.819 -0.0849 -0.1492 -0.4421
    2MOL   C326  968   1.093   1.758   1.774  1.0416 -0.3827 -0.7016
    2MOL   C327  969   1.124   1.905   1.749 -0.6503 -0.9911 -0.1884
    2MOL   C328  970   1.012   1.983   1.687 -0.2999  0.6406 -0.3888
    2MOL   O329  971   0.899   1.972   1.737  0.1064  0.5445  0.4690
    2MOL   N330  972   1.033   2.067   1.582 -0.2566  0.4150  0.3606
    2MOL   C331  973   0.918   2.139   1.515 -0.0935 -1.3054 -0.6709
    2MOL   C332  974   0.969   2.223   1.401 -0.6032 -0.1940  0.0746
    2MOL   C333  975   1.009   2.133   1.277  0.0069  0.0780 -0.5973
    2MOL   C334  976   1.058   2.206   1.154 -0.0652  0.1885 -0.3611
    2MOL   N335  977   0.942   2.262   1.071  0.1653  0.4225 -0.3636
    2MOL   H336  978   1.139   1.510   1.926  1.2989  0.4685  1.6881
    2MOL   H337  979   1.296   1.484   1.852  0.3220  0.4774  1.5561
    2MOL   H338  980   1.240   1.713   1.919 -0.4876  1.1484 -0.7774
    2MOL   H339  981   1.291   1.697   1.742 -0.5218  0.3663 -0.7553
    2MOL   H340  982   1.007   1.746   1.839 -0.5988  1.1898 -2.5266
    2MOL   H341  983   1.064   1.724   1.675  0.8954  0.7122 -1.0466
    2MOL   H342  984   1.203   1.895   1.674  0.6149 -0.3616  1.0465
    2MOL   H343  985   1.158   1.962   1.835  1.1873  1.4742 -2.4618
    2MOL   H344  986   1.122   2.091   1.541  0.0423  0.6360  1.1313
    2MOL   H345  987   0.864   2.197   1.590  1.4413 -0.4129 -0.2264
    2MOL   H346  988   0.843   2.065   1.486 -2.7063  0.3471  1.6539
    2MOL   H347  989   0.881   2.279   1.367  0.5880  2.1970  0.8612
    2MOL   H348  990   1.041   2.299   1.432 -1.4418  1.3871 -1.7119
    2MOL   H349  991   0.930   2.062   1.255 -0.1959  0.5704 -1.5125
    2MOL   H350  992   1.082   2.065   1.322  0.7259  1.2475  0.0389
    2MOL   H351  993   1.124   2.152   1.086  0.4994 -0.0093  0.3414
    2MOL   H352  994   1.121   2.287   1.189  2.3321 -2.2432  1.2107
    2MOL   H353  995   0.884   2.319   1.131 -2.7155 -2.3303 -0.4077
    2MOL   C354  996   0.914   2.235   0.944  0.1158 -0.1009 -0.4913
    2MOL   O355  997   0.992   2.173   0.872 -0.7513 -0.2924  0.5424
    2MOL   C356  998   0.780   2.288   0.886 -0.5918  0.2909  0.2672
    2MOL   C357  999   0.800   2.378   0.767 -0.5884  0.4021 -0.6387
    2MOL   C358 1000   0.831   2.314   0.639 -0.9643  0.5139  0.1748
    2MOL   C359 1001   0.828   2.418   0.527  0.6176  0.4171 -0.4988
    2MOL   C360 1002   0.895   2.384   0.394 -0.1109 -0.2646 -0.1475
    2MOL   O361 1003   0.973   2.286   0.382  0.5402 -0.0616 -0.4015
    2MOL   N362 1004   0.867   2.469   0.292  0.4855 -0.8922  0.1912
    2MOL   C363 1005   0.913   2.460   0.156 -0.0003 -0.0332  0.1021
    2MOL   C364 1006   0.878   2.328   0.097  0.4189  0.4333  0.9615
    2MOL   C365 1007   0.736   2.309   0.097  0.1124  0.8401 -0.0528
    2MOL   C366 1008   0.692   2.161   0.077  0.1936 -0.5190  0.3852
    2MOL   N367 1009   0.724   2.081   0.194  0.0894 -0.0467  0.6281
    2MOL   H368 1010   0.707   2.214   0.854 -1.0398  0.1027  1.6750
    2MOL   H369 1011   0.722   2.346   0.958  0.7303  0.8529  0.9021
    2MOL   H370 1012   0.701   2.420   0.750 -1.0241  0.2288  1.3834
    2MOL   H371 1013   0.867   2.459   0.795 -1.0909  0.3580  0.7464
    2MOL   H372 1014   0.746   2.247   0.620 -0.7888  0.3466 -0.0231
    2MOL   H373 1015   0.918   2.248   0.637 -0.7907  0.7427  0.2002
    2MOL   H374 1016   0.877   2.509   0.560  2.1125 -1.5957  3.1417
    2MOL   H375 1017   0.722   2.436   0.510 -0.0328 -0.6412  2.2381
    2MOL   H376 1018   0.807   2.541   0.330  1.4615 -0.5592  1.1246
    2MOL   H377 1019   1.021   2.473   0.149 -0.0527  0.5098  0.2783
    2MOL   H378 1020   0.857   2.531   0.095  0.1082 -1.1562 -1.3140
    2MOL   H379 1021   0.901   2.328   7.692  0.7994 -1.7093  1.0249
    2MOL   H380 1022   0.930   2.240   0.135  0.2124  0.4429  1.2730
    2MOL   H381 1023   0.700   2.364   0.009  0.7043  0.3676 -0.5980
    2MOL   H382 1024   0.677   2.351   0.178  1.6959 -0.1605  1.6535
    2MOL   H383 1025   0.752   2.119   7.697  0.1919 -0.6963  0.4765
    2MOL   H384 1026   0.586   2.149   0.054  0.4877 -0.8385 -0.8479
    2MOL   H385 1027   0.822   2.070   0.216 -0.3042 -2.3561  1.3404
    2MOL   C386 1028   0.647   2.052   0.298 -0.3251  0.5494 -0.0046
    2MOL   O387 1029   0.524   2.070   0.294  0.3637  0.6096 -0.3332
    2MOL   C388 1030   0.712   2.009   0.427  0.7786  0.1889 -0.3162
    2MOL   C389 1031   0.759   1.861   0.416  0.2152  0.4857 -0.7537
    2MOL   C390 1032   0.649   1.760   0.380  0.8617  0.4662 -0.6712
    2MOL   C391 1033   0.682   1.610   0.403 -0.2578  0.3789  0.6698
    2MOL   C392 1034   0.801   1.568   0.308 -0.1220 -1.1141  0.1843
    2MOL   O393 1035   0.835   1.633   0.208  0.4919  0.5353  0.3050
    2MOL   N394 1036   0.861   1.457   0.348 -0.4291 -0.0594 -0.2688
    2MOL   C395 1037   0.986   1.403   0.301  0.2667 -0.6426  0.2545
    2MOL   C396 1038   1.110   1.484   0.341  0.4981  0.9601 -0.4449
    2MOL   C397 1039   1.244   1.412   0.329 -0.5120 -0.8515 -0.1251
    2MOL   C398 1040   1.360   1.498   0.375  0.6800  0.2617  0.8099
    2MOL   N399 1041   1.492   1.429   0.348  0.3580 -0.4752  0.3788
    2MOL   H400 1042   0.793   2.077   0.452  0.5972 -0.2729  1.6271
    2MOL   H401 1043   0.636   2.021   0.505  2.4875  1.5522  1.1819
    2MOL   H402 1044   0.844   1.859   0.348  1.1304  2.5929  0.2937
    2MOL   H403 1045   0.796   1.833   0.515 -0.3523  0.3363 -0.5850
    2MOL   H404 1046   0.632   1.778   0.274  0.8006  0.2923 -0.6923
    2MOL   H405 1047   0.556   1.783   0.432  0.8414 -0.6315 -0.2093
    2MOL   H406 1048   0.600   1.544   0.372  0.7145 -0.5300 -0.0226
    2MOL   H407 1049   0.715   1.592   0.505  0.3880  1.2235  0.6118
    2MOL   H408 1050   0.821   1.415   0.431  1.3387 -1.0835  0.0880
    2MOL   H409 1051   0.978   1.402   0.193  3.9813  0.5795 -0.0942
    2MOL   H410 1052   0.984   1.298   0.329 -1.4350 -1.2430 -2.0448
    2MOL   H411 1053   1.126   1.574   0.281  1.0932  1.1740  0.0296
    2MOL   H412 1054   1.094   1.502   0.447 -0.4024 -1.5637 -0.1224
    2MOL   H413 1055   1.252   1.365   0.230 -0.6079  0.1042 -0.5907
    2MOL   H414 1056   1.237   1.332   0.403  0.1485  1.1054  2.0942
    2MOL   H415 1057   1.342   1.517   0.481 -1.3727 -0.7514  0.6575
    2MOL   H416 1058   1.369   1.589   0.315 -1.5251  1.2542  1.9243
    2MOL   H417 1059   1.558   1.472   0.284  0.3620 -0.8235  0.1469
    2MOL   C418 1060   1.534   1.317   0.398  0.1994  0.8878  0.0950
    2MOL   O419 1061   1.469   1.266   0.492 -0.0841 -0.5809  0.5689
    2MOL   C420 1062   1.664   1.254   0.345  0.8275  0.2659 -0.4534
    2MOL   C421 1063   1.643   1.116   0.284  0.3122 -0.0892  0.1499
    2MOL   C422 1064   1.567   1.113   0.151  0.3018  0.7144  0.0921
    2MOL   C423 1065   1.569   0.974   0.077 -0.1043 -0.3814 -0.3029
    2MOL   C424 1066   1.484   0.870   0.146 -0.4995  0.2185 -0.2307
    2MOL   O425 1067   1.479   0.863   0.271 -0.0250 -0.2652  0.5732
    2MOL   N426 1068   1.436   0.776   0.064 -0.7884  0.7591  0.3643
    2MOL   C427 1069   1.321   0.684   0.100  0.0621 -0.5719  0.0092
    2MOL   C428 1070   1.340   0.539   0.055  0.7997 -0.6997  0.9053
    2MOL   C429 1071   1.214   0.447   0.068 -0.7778 -0.1679  0.7274
    2MOL   C430 1072   1.255   0.295   0.057 -0.2144 -0.4092 -0.7877
    2MOL   N431 1073   1.270   0.254   7.620 -0.5906 -0.4236 -0.6655
    2MOL   H432 1074   1.720   1.319   0.278  1.9499  0.5031  0.7080
    2MOL   H433 1075   1.727   1.241   0.433 -2.1200 -0.7837  1.5728
    2MOL   H434 1076   1.740   1.067   0.270  1.1140  2.2534 -2.8396
    2MOL   H435 1077   1.597   1.057   0.364  0.0521  0.2195  0.2257
    2MOL   H436 1078   1.620   1.185   0.089 -0.1023  0.5284 -0.4653
    2MOL   H437 1079   1.462   1.139   0.161 -0.8775 -2.5398 -2.9560
    2MOL   H438 1080   1.668   0.939   0.048  0.3178 -0.7074  1.4329
    2MOL   H439 1081   1.518   0.987   7.684 -1.1788 -0.4751  0.2589
    2MOL   H440 1082   1.459   0.785   7.668 -1.0027 -2.4404 -0.0610
    2MOL   H441 1083   1.221   0.718   0.074  0.0054 -0.8302 -0.1183
    2MOL   H442 1084   1.304   0.693   0.207 -4.3550 -2.6805 -0.3978
    2MOL   H443 1085   1.367   0.531   7.651  0.8872 -2.0200  1.0156
    2MOL   H444 1086   1.411   0.498   0.127  0.8334 -1.7632  0.2832
    2MOL   H445 1087   1.134   0.468   7.699  0.1546 -2.0540 -0.9484
    2MOL   H446 1088   1.182   0.471   0.170  1.2186  0.4401  1.2418
    2MOL   H447 1089   1.176   0.228   0.091 -0.1932 -0.3187 -0.5645
    2MOL   H448 1090   1.351   0.287   0.106 -0.6201  0.9690  0.2625
    2MOL   H449 1091   1.202   0.287   7.553  0.6990 -0.7747 -2.1891
    2MOL   C450 1092   1.361   0.177   7.567  0.4112  0.0518 -0.0666
    2MOL   O451 1093   1.446   0.127   7.638  0.2048  0.4522  0.0235
    2MOL   C452 1094   1.342   0.134   7.423  0.0383  0.1133 -0.4975
    2MOL   C453 1095   1.445   0.027   7.373  0.1614 -0.0117  0.6339
    2MOL   C454 1096   1.417   7.672   7.226  0.3400  0.0805  0.0778
    2MOL   C455 1097   1.395   0.082   7.118 -0.3782 -0.5819 -0.6586
    2MOL   C456 1098   1.343   0.041   6.980 -0.1557  0.3902  0.4419
    2MOL   O457 1099   1.313   7.621   6.962  0.7670 -0.1018 -0.0737
    2MOL   N458 1100   1.335   0.132   6.879  0.3227  0.4532 -0.1813
    2MOL   C459 1101   1.312   0.103   6.735 -0.3191 -0.2260 -1.0769
    2MOL   C460 1102   1.384   0.218   6.662 -0.4279 -0.7247 -0.2571
    2MOL   C461 1103   1.390   0.214   6.510  0.3899 -0.0743  0.6912
    2MOL   C462 1104   1.476   0.314   6.448  0.0665 -0.0407  0.3534
    2MOL   N463 1105   1.436   0.451   6.473 -0.2826 -0.4082 -0.6354
    2MOL   H464 1106   1.243   0.088   7.420 -0.1957  0.5376  0.6415
    2MOL   H465 1107   1.351   0.227   7.366  0.4751  0.3274 -0.0793
    2MOL   H466 1108   1.543   0.073   7.372 -0.0016  0.3445  0.8280
    2MOL   H467 1109   1.466   7.650   7.446  0.6568 -1.3937 -0.9634
    2MOL   H468 1110   1.330   7.608   7.234 -0.0231  0.7927  2.1665
    2MOL   H469 1111   1.501   7.609   7.197 -1.1874 -1.1571 -1.7562
    2MOL   H470 1112   1.490   0.131   7.096 -0.2447 -0.0276  1.0364
    2MOL   H471 1113   1.338   0.168   7.153 -0.6617 -0.9246 -0.2777
    2MOL   H472 1114   1.341   0.229   6.906 -0.2363  0.4999 -0.2032
    2MOL   H473 1115   1.207   0.103   6.707 -0.5512  1.7571 -0.3219
    2MOL   H474 1116   1.342   0.001   6.714  1.5417  0.0919 -0.0776
    2MOL   H475 1117   1.332   0.310   6.690 -1.6053 -1.3590 -0.2897
    2MOL   H476 1118   1.487   0.244   6.684 -0.0893 -0.9998 -1.4809
    2MOL   H477 1119   1.290   0.214   6.466  1.0837 -2.2886 -0.9838
    2MOL   H478 1120   1.433   0.122   6.470  0.0489  1.1799 -2.7281
    2MOL   H479 1121   1.465   0.302   6.340 -1.0515  0.0393  0.4576
    2MOL   H480 1122   1.580   0.299   6.477  0.5204 -1.0339 -1.6676
    2MOL   H481 1123   1.342   0.470   6.443 -0.4908  2.3606  1.5735
    2MOL   C482 1124   1.519   0.542   6.514 -0.2050 -0.2724  0.0285
    2MOL   O483 1125   1.643   0.509   6.531  0.4315 -0.5468 -0.0782
    2MOL   C484 1126   1.463   0.685   6.533 -0.5702 -0.1133  0.7643
    2MOL   C485 1127   1.512   0.805   6.441  0.1470  0.9737 -0.4087
    2MOL   C486 1128   1.660   0.821   6.420  0.1687 -0.4286 -0.3163
    2MOL   C487 1129   1.708   0.961   6.386 -0.5678  0.2833 -0.5165
    2MOL   C488 1130   1.692   1.052   6.498  0.5796  0.5226  0.2330
    2MOL   O489 1131   1.749   1.035   6.605 -1.0470 -0.0517 -0.0310
    2MOL   N490 1132   1.613   1.157   6.476 -0.1316 -0.8006 -0.3140
    2MOL   C491 1133   1.584   1.261   6.576 -0.2509 -0.0022  0.0825
    2MOL   C492 1134   1.452   1.216   6.658 -0.0672 -0.2410 -0.3064
    2MOL   C493 1135   1.405   1.305   6.774 -0.6079  0.8619  0.2869
    2MOL   C494 1136   1.388   1.453   6.731 -0.3971  0.0624  0.2678
    2MOL   N495 1137   1.331   1.531   6.842 -0.2229 -0.5943  0.2943
    2MOL   H496 1138   1.354   0.671   6.531 -0.3675 -1.8564 -0.5904
    2MOL   H497 1139   1.477   0.726   6.632 -0.6072 -0.1909  0.8023
    2MOL   H498 1140   1.466   0.777   6.346 -1.6375  0.8624  0.4626
    2MOL   H499 1141   1.467   0.896   6.483  0.1934  0.3175  1.0903
    2MOL   H500 1142   1.682   0.746   6.343  0.1010 -1.7576  0.9394
    2MOL   H501 1143   1.718   0.784   6.505  0.8024 -0.9219 -0.9557
    2MOL   H502 1144   1.659   0.998   6.295 -1.0891  1.6908  0.3164
    2MOL   H503 1145   1.814   0.958   6.363 -0.7714 -1.1239 -1.3686
    2MOL   H504 1146   1.563   1.163   6.388 -2.0270 -3.8878  0.4919
    2MOL   H505 1147   1.564   1.357   6.527 -1.5836  0.1821  0.9600
    2MOL   H506 1148   1.662   1.265   6.652  0.2801 -0.7908 -0.4149
    2MOL   H507 1149   1.373   1.201   6.584  0.1597  0.4068 -0.6887
    2MOL   H508 1150   1.477   1.119   6.700 -0.7786 -0.2471  0.1112
    2MOL   H509 1151   1.468   1.293   6.862  1.1362  0.2659 -1.0185
    2MOL   H510 1152   1.308   1.258   6.793 -0.4051  0.0690 -0.5702
    2MOL   H511 1153   1.327   1.468   6.642  1.6528 -2.3329 -1.6511
    2MOL   H512 1154   1.483   1.501   6.707  1.0053 -2.0247  1.5150
    2MOL   H513 1155   1.369   1.518   6.934 -0.3585 -3.4370 -0.0135
    2MOL   C514 1156   1.233   1.619   6.836 -0.1717  0.1089  0.1728
    2MOL   O515 1157   1.172   1.650   6.732 -0.1770  0.4110 -1.0785
    2MOL   C516 1158   1.201   1.701   6.965  0.4618 -0.4712 -0.5009
    2MOL   C517 1159   1.052   1.697   7.001 -0.3649 -0.0021 -0.5812
    2MOL   C518 1160   1.028   1.774   7.136 -0.3610  0.7103  1.1995
    2MOL   C519 1161   0.887   1.777   7.201  0.5806 -0.6189  0.2760
    2MOL   C520 1162   0.791   1.879   7.143  0.8073 -0.9532 -0.5308
    2MOL   O521 1163   0.731   1.851   7.039  0.1000 -0.0547  0.5102
    2MOL   N522 1164   0.758   1.986   7.219 -0.1518 -0.0284 -0.1117
    2MOL   C523 1165   0.633   2.069   7.207  0.4969 -0.4628  0.0570
    2MOL   C524 1166   0.650   2.181   7.100  0.2557 -0.3755  0.6457
    2MOL   C525 1167   0.773   2.276   7.120  0.6996 -0.1899  0.6604
    2MOL   C526 1168   0.789   2.362   6.998  0.1153 -0.2407  0.6538
    2MOL   N527 1169   0.886   2.471   7.021 -0.1936  0.2720 -0.0417
    2MOL   H528 1170   1.249   1.658   7.053  0.3057  1.3203  0.5049
    2MOL   H529 1171   1.235   1.804   6.952  1.6348 -0.9478 -1.2714
    2MOL   H530 1172   0.995   1.708   6.909 -0.2880  1.0021 -0.5158
    2MOL   H531 1173   1.030   1.592   7.017  0.3313 -0.0356  0.1905
    2MOL   H532 1174   1.084   1.867   7.138  2.8280 -1.1337  0.4073
    2MOL   H533 1175   1.078   1.716   7.214  0.5813  1.0002  0.8194
    2MOL   H534 1176   0.892   1.784   7.309 -0.6171 -2.7152  0.4902
    2MOL   H535 1177   0.823   1.690   7.189  1.2473 -1.1317  0.3981
    2MOL   H536 1178   0.782   1.989   7.317 -2.7684 -1.5581  0.6317
    2MOL   H537 1179   0.591   2.101   7.302 -0.6705 -2.0097  0.0932
    2MOL   H538 1180   0.566   1.993   7.166  1.1538 -0.8240 -0.3553
    2MOL   H539 1181   0.649   2.129   7.005  2.5184 -0.2794  0.5414
    2MOL   H540 1182   0.561   2.243   7.095 -0.1326 -1.0030 -0.1901
    2MOL   H541 1183   0.852   2.202   7.138 -1.7168 -3.5544 -1.8702
    2MOL   H542 1184   0.743   2.341   7.202  0.9718  2.3966 -1.2481
    2MOL   H543 1185   0.696   2.408   6.964  0.8178 -0.5172 -1.7351
    2MOL   H544 1186   0.823   2.300   6.915  0.6748 -0.1548  0.8178
    2MOL   H545 1187   0.926   2.476   7.113 -0.1027 -3.3884  0.2235
    2MOL   C546 1188   0.945   2.519   6.917 -0.0893 -0.2783  1.3055
    2MOL   O547 1189   0.899   2.502   6.799 -0.4889 -0.3532  0.3873
    2MOL   C548 1190   1.071   2.588   6.951 -0.1382  0.1285  0.0163
    2MOL   C549 1191   1.193   2.494   6.981  0.1600  0.4471 -0.1321
    2MOL   C550 1192   1.243   2.415   6.855  0.2281 -0.2307  0.7331
    2MOL   C551 1193   1.303   2.281   6.892 -0.0852 -0.2895 -0.2992
    2MOL   C552 1194   1.194   2.171   6.924 -0.5859  0.4051 -0.0098
    2MOL   O553 1195   1.202   2.119   7.035  0.4488  0.0547  0.1431
    2MOL   N554 1196   1.097   2.140   6.840 -0.4899 -0.3537 -0.8115
    2MOL   C555 1197   0.980   2.058   6.863 -0.6383  0.3441  0.5080
    2MOL   C556 1198   0.931   1.983   6.734 -0.1194  0.4475 -0.0937
    2MOL   C557 1199   0.868   2.081   6.634 -0.3355  0.0110 -0.1221
    2MOL   C558 1200   0.725   2.129   6.677  0.2169 -0.1589  0.4464
    2MOL   N559 1201   0.660   2.213   6.574  0.2936 -0.4383 -1.1279
    2MOL   H560 1202   1.096   2.651   6.865  2.3079  0.4639  0.9277
    2MOL   H561 1203   1.049   2.661   7.028  1.3442 -0.3849  0.9447
    2MOL   H562 1204   1.283   2.540   7.023  0.5285 -1.1237  0.8503
    2MOL   H563 1205   1.154   2.427   7.058 -0.8823 -1.8642 -2.5785
    2MOL   H564 1206   1.328   2.467   6.812  1.0431  0.9167  3.6096
    2MOL   H565 1207   1.171   2.400   6.774  1.0280  0.3462 -0.0970
    2MOL   H566 1208   1.371   2.298   6.976  0.9369  2.2322 -1.6107
    2MOL   H567 1209   1.372   2.246   6.816 -1.0384 -0.1865 -1.2176
    2MOL   H568 1210   1.102   2.184   6.749  1.4835 -0.2820 -0.6915
    2MOL   H569 1211   0.900   2.121   6.904  1.8618  4.7140 -0.9763
    2MOL   H570 1212   0.996   1.979   6.937  2.3105  0.0459 -0.4035
    2MOL   H571 1213   1.014   1.937   6.680  0.5173  0.6724  0.6879
    2MOL   H572 1214   0.858   1.909   6.766  0.1771 -0.5129 -1.5839
    2MOL   H573 1215   0.861   2.033   6.536  4.6614 -0.7309 -0.2622
    2MOL   H574 1216   0.938   2.161   6.610  0.1571 -0.4505 -0.2386
    2MOL   H575 1217   0.739   2.191   6.766  1.0202 -1.5831  1.3380
    2MOL   H576 1218   0.674   2.036   6.703  0.7488 -0.2374  1.2524
    2MOL   H577 1219   0.668   2.174   6.481 -0.9039  0.5646 -1.6592
    2MOL   C578 1220   0.594   2.328   6.592 -0.9970  0.0155  0.0101
    2MOL   O579 1221   0.562   2.373   6.702 -0.1798  1.2733 -0.2017
    2MOL   C580 1222   0.551   2.392   6.456 -0.1811 -0.0754 -0.6715
    2MOL   C581 1223   0.424   2.477   6.471 -0.3517 -0.6276 -0.4221
    2MOL   C582 1224   0.295   2.393   6.480 -1.6667 -0.1080  0.0906
    2MOL   C583 1225   0.168   2.453   6.548  0.5338 -0.8407  0.4095
    2MOL   C584 1226   0.050   2.347   6.552 -0.2844 -0.3582 -0.6674
    2MOL   O585 1227   0.017   2.283   6.457  0.3486  0.2842  0.2772
    2MOL   N586 1228   7.685   2.333   6.675 -0.2625  0.1424  0.0470
    2MOL   C587 1229   7.574   2.241   6.684  0.1703  0.4941  0.6093
    2MOL   C588 1230   7.618   2.091   6.697  0.1285 -0.0201  0.5796
    2MOL   C589 1231   7.524   1.986   6.642 -0.1879  0.1781 -0.5254
    2MOL   C590 1232   7.500   1.991   6.492 -0.4300 -0.8137  0.0739
    2MOL   N591 1233   7.623   2.024   6.421 -0.2072  0.1960 -0.1784
    2MOL   H592 1234   0.640   2.450   6.431 -1.4393  1.2351 -2.2438
    2MOL   H593 1235   0.531   2.319   6.378  1.7522 -1.8921  0.4942
    2MOL   H594 1236   0.418   2.556   6.546 -1.7286  0.2072 -1.3858
    2MOL   H595 1237   0.414   2.542   6.384  0.1291  0.1893  0.1201
    2MOL   H596 1238   0.325   2.308   6.540 -0.1841 -0.2430 -0.8413
    2MOL   H597 1239   0.280   2.351   6.381 -3.8262  0.9961 -0.0857
    2MOL   H598 1240   0.135   2.522   6.470  2.0537 -2.1698 -1.4472
    2MOL   H599 1241   0.180   2.494   6.649 -1.3935 -2.5490  1.3830
    2MOL   H600 1242   0.019   2.384   6.754 -0.9493  1.4441 -0.4836
    2MOL   H601 1243   7.498   2.254   6.607  0.3812 -0.9101  0.1397
    2MOL   H602 1244   7.525   2.271   6.776  1.7191 -0.9456  1.9555
    2MOL   H603 1245   0.015   2.073   6.654 -0.2330 -1.0791  0.1636
    2MOL   H604 1246   7.645   2.081   6.802 -0.3811 -0.0559  0.7084
    2MOL   H605 1247   7.428   2.003   6.691  1.2654 -1.2263  3.0072
    2MOL   H606 1248   7.567   1.888   6.659  0.5873  0.6409  0.2347
    2MOL   H607 1249   7.434   2.077   6.477  2.5574  1.4363 -0.6886
    2MOL   H608 1250   7.454   1.899   6.457  2.7280 -2.2213 -0.5580
    2MOL   H609 1251   7.667   2.112   6.441 -0.2539  0.2670 -0.3807
    2MOL   C610 1252   7.695   1.944   6.346  1.0338 -0.1709 -0.5662
    2MOL   O611 1253   7.650   1.830   6.309 -0.1099  0.0078 -0.1859
    2MOL   C612 1254   0.128   2.003   6.301  0.3532  0.1008 -0.0557
    2MOL   C613 1255   0.244   1.962   6.397 -0.0553  0.5270 -0.1938
    2MOL   C614 1256   0.386   1.970   6.336 -0.2605 -0.2212 -0.1263
    2MOL   C615 1257   0.469   1.845   6.364  0.5341  0.2948  0.7334
    2MOL   C616 1258   0.621   1.882   6.356 -0.2648  0.1795 -0.9580
    2MOL   O617 1259   0.660   1.997   6.353  1.4502 -0.1854  0.1138
    2MOL   N618 1260   0.700   1.777   6.360  0.3378 -0.0049  0.8807
    2MOL   C619 1261   0.844   1.777   6.351  0.3396  0.4197  0.1156
    2MOL   C620 1262   0.894   1.653   6.278  0.6261 -0.0736 -0.5090
    2MOL   C621 1263   1.054   1.664   6.251  0.4671  0.3731  0.0792
    2MOL   C622 1264   1.139   1.685   6.386 -0.2091 -0.4763 -0.1987
    2MOL   N623 1265   1.134   1.551   6.460 -0.1651 -0.1514  0.0742
    2MOL   H624 1266   0.145   1.961   6.201 -1.2815 -0.5881 -0.0445
    2MOL   H625 1267   0.118   2.112   6.295 -2.0235 -0.1609 -1.1139
    2MOL   H626 1268   0.241   2.025   6.486 -1.3142 -0.5207  0.5274
    2MOL   H627 1269   0.231   1.866   6.447 -1.3211 -0.0422 -1.6007
    2MOL   H628 1270   0.436   2.054   6.383  2.8607 -2.4714  0.7618
    2MOL   H629 1271   0.375   1.996   6.231 -3.5777  3.6608  1.0669
    2MOL   H630 1272   0.441   1.762   6.299 -0.7895  2.5364 -1.6501
    2MOL   H631 1273   0.456   1.823   6.470  0.1172 -0.1481  0.5902
    2MOL   H632 1274   0.661   1.685   6.376 -2.2456  0.9005  0.0455
    2MOL   H633 1275   0.877   1.784   6.455 -1.4695 -1.2286  0.8135
    2MOL   H634 1276   0.876   1.858   6.285  0.5179  0.7383  0.5856
    2MOL   H635 1277   0.867   1.561   6.330  0.6902  0.1155 -0.1402
    2MOL   H636 1278   0.847   1.628   6.183 -0.5960  1.1624 -0.2373
    2MOL   H637 1279   1.070   1.757   6.196  0.6872 -0.0070 -0.5029
    2MOL   H638 1280   1.086   1.574   6.199 -0.3894  0.9937 -1.5403
    2MOL   H639 1281   1.102   1.766   6.449  0.3747  0.7944 -1.4731
    2MOL   H640 1282   1.241   1.699   6.350  0.0804  0.3637  0.9178
    2MOL   H641 1283   1.137   1.586   6.555 -0.3188 -0.9195  0.3645
    2MOL   H642 1284   1.039   1.517   6.457 -0.5434  0.9837 -1.1040
    3MOL     C1 1285   5.560   6.736   7.469  0.4512  0.2057  0.4469
    3MOL     O2 1286   5.471   6.677   7.415 -0.2460  0.6178 -0.6294
    3MOL     C3 1287   5.693   6.764   7.398  0.6665  0.2785 -0.1889
    3MOL     C4 1288   5.697   6.805   7.253 -0.5613 -0.6959  0.5353
    3MOL     C5 1289   5.690   6.694   7.143 -0.1242 -0.6899  0.1714
    3MOL     C6 1290   5.733   6.739   7.002  0.3509 -0.0050 -0.1704
    3MOL     C7 1291   5.647   6.849   6.938 -0.1072 -0.4043 -0.6955
    3MOL     O8 1292   5.555   6.911   6.982  0.0004 -0.0497 -0.4143
    3MOL     N9 1293   5.697   6.872   6.819  0.2938 -0.3693 -0.3804
    3MOL    C10 1294   5.625   6.965   6.726 -0.4008 -0.4126  0.4378
    3MOL    C11 1295   5.681   6.946   6.580  0.6439 -0.3925 -0.1376
    3MOL    C12 1296   5.606   7.030   6.472 -0.0765  0.3222  0.3867
    3MOL    C13 1297   5.630   7.186   6.498 -0.1218  0.4095 -0.3508
    3MOL    N14 1298   5.551   7.261   6.405 -0.4016 -0.2411  0.1993
    3MOL    H15 1299   5.744   6.840   7.456  1.0062 -0.7692  0.8923
    3MOL    H16 1300   5.748   6.672   7.420 -1.4134 -1.3991 -1.7143
    3MOL    H17 1301   5.610   6.870   7.246  1.0294  1.5816  1.3460
    3MOL    H18 1302   5.791   6.858   7.235 -0.6025 -1.2846 -1.4781
    3MOL    H19 1303   5.596   6.639   7.131 -1.3327  0.9550  1.7575
    3MOL    H20 1304   5.759   6.617   7.178 -0.0406  0.1930  2.0492
    3MOL    H21 1305   5.755   6.650   6.944  1.3576 -0.6944  1.2407
    3MOL    H22 1306   5.833   6.783   7.012 -0.1746  1.1751  0.0309
    3MOL    H23 1307   5.773   6.815   6.785 -0.6134 -1.9020  0.1190
    3MOL    H24 1308   5.642   7.069   6.755 -0.8560 -0.0909 -0.4508
    3MOL    H25 1309   5.516   6.959   6.721 -0.2230 -1.8364 -2.6333
    3MOL    H26 1310   5.781   6.985   6.596  1.0349 -1.8686  1.1397
    3MOL    H27 1311   5.691   6.840   6.557  1.4767  0.0164 -1.7501
    3MOL    H28 1312   5.502   7.006   6.452 -0.6744  1.4584  2.0631
    3MOL    H29 1313   5.651   7.000   6.377 -1.1738 -0.2743  0.0517
    3MOL    H30 1314   5.733   7.216   6.483 -0.0751  1.4194  1.8917
    3MOL    H31 1315   5.626   7.209   6.604  0.9637 -1.4303  0.1129
    3MOL    H32 1316   5.487   7.214   6.342 -1.7409 -0.0382  1.3858
    3MOL    H33 1317   5.551   6.766   7.573  0.1109  1.0640  0.1731
    3MOL    C34 1318   5.558   7.390   6.388 -0.0048  0.3349 -0.2639
    3MOL    O35 1319   5.645   7.454   6.442  0.6927 -0.2009 -0.0176
    3MOL    C36 1320   5.452   7.452   6.297  0.0132  0.5014  0.2937
    3MOL    C37 1321   5.368   7.549   6.378  0.6402 -0.4631  0.3838
    3MOL    C38 1322   5.266   7.491   6.482  1.0227  0.0219 -0.1907
    3MOL    C39 1323   5.230   7.592   6.590  0.1414 -0.6705 -0.5606
    3MOL    C40 1324   5.183   0.032   6.548 -0.0838  0.3476  0.4155
    3MOL    O41 1325   5.257   0.128   6.547 -0.0438 -0.2279  0.1113
    3MOL    N42 1326   5.054   0.048   6.510 -0.1224 -0.4092 -0.7611
    3MOL    C43 1327   4.981   0.165   6.471 -0.4023  0.1787  0.5218
    3MOL    C44 1328   5.015   0.193   6.324 -0.1624 -0.2586 -0.3658
    3MOL    C45 1329   4.967   0.085   6.227  0.1135  0.2844  0.0466
    3MOL    C46 1330   5.004   0.106   6.075  0.5530 -0.1099  0.2925
    3MOL    N47 1331   5.139   0.146   6.055 -0.2604 -0.5289  0.4159
    3MOL    H48 1332   5.506   7.497   6.214  0.3932  0.2096  0.3763
    3MOL    H49 1333   5.383   7.378   6.256  0.6178 -1.0382  1.9552
    3MOL    H50 1334   5.428   7.617   6.437 -0.6496  0.1742  0.9802
    3MOL    H51 1335   5.303   7.605   6.310  0.2061 -0.8284  0.4903
    3MOL    H52 1336   5.314   7.400   6.517  0.5599 -0.3920 -0.6325
    3MOL    H53 1337   5.180   7.457   6.425  0.8422  1.4497 -0.7961
    3MOL    H54 1338   5.326   7.601   6.642  1.0345 -0.4377 -2.2306
    3MOL    H55 1339   5.173   7.540   6.667  1.0518 -0.5169  0.2372
    3MOL    H56 1340   4.994   7.668   6.510 -2.1860  1.0708  0.0824
    3MOL    H57 1341   4.988   0.248   6.541 -2.2290 -0.5079  1.5500
    3MOL    H58 1342   4.873   0.147   6.468 -0.3439 -0.1521  0.3649
    3MOL    H59 1343   4.964   0.282   6.287  2.4996  0.6031 -2.1680
    3MOL    H60 1344   5.122   0.215   6.318 -0.1122 -0.4120 -0.0531
    3MOL    H61 1345   4.858   0.087   6.232  0.1909  1.2354  1.7436
    3MOL    H62 1346   4.996   7.686   6.259 -1.6477 -0.1129  0.4416
    3MOL    H63 1347   4.940   0.185   6.036  1.1432 -0.7491 -2.0543
    3MOL    H64 1348   4.971   0.024   6.010 -1.2903 -0.8181  2.0586
    3MOL    H65 1349   5.149   0.245   6.069 -1.9242 -0.2967  0.0900
    3MOL    C66 1350   5.250   0.069   6.062  0.5138  0.3713 -0.0970
    3MOL    O67 1351   5.244   7.648   6.084  0.1123 -0.7829 -0.6714
    3MOL    C68 1352   5.385   0.144   6.045  0.5864 -0.6326  0.3367
    3MOL    C69 1353   5.445   0.178   6.178 -1.1496  0.0627 -0.6569
    3MOL    C70 1354   5.593   0.131   6.190 -0.3042  0.3910  0.8140
    3MOL    C71 1355   5.666   0.103   6.323  0.5272 -0.1106 -0.2850
    3MOL    C72 1356   5.662   0.235   6.400  0.4380  0.1678  0.0219
    3MOL    O73 1357   5.756   0.312   6.391 -0.5687 -0.9692 -0.1259
    3MOL    N74 1358   5.563   0.261   6.487 -0.7148 -0.0421  0.1426
    3MOL    C75 1359   5.550   0.381   6.569  0.1783 -0.8181  0.3297
    3MOL    C76 1360   5.409   0.439   6.566 -0.2521 -0.4533  0.0379
    3MOL    C77 1361   5.349   0.480   6.430  0.5352  0.7716 -0.2303
    3MOL    C78 1362   5.204   0.521   6.427  0.0819  0.0064 -0.7546
    3MOL    N79 1363   5.147   0.589   6.305 -0.3122 -0.0248 -0.1100
    3MOL    H80 1364   5.450   0.074   5.993  0.0626 -1.3951  0.7002
    3MOL    H81 1365   5.365   0.238   5.994  0.5094  0.9522  3.1809
    3MOL    H82 1366   5.440   0.285   6.196 -0.9966 -0.2145  1.1293
    3MOL    H83 1367   5.382   0.146   6.261  1.4103 -0.3293  1.1677
    3MOL    H84 1368   5.649   0.206   6.135 -0.8747  0.0666 -0.2229
    3MOL    H85 1369   5.607   0.034   6.141  1.0927  1.0701 -0.1406
    3MOL    H86 1370   5.770   0.076   6.305  0.8669  1.0904 -0.1655
    3MOL    H87 1371   5.620   0.022   6.380 -0.0191 -0.6712 -1.4745
    3MOL    H88 1372   5.492   0.191   6.501 -1.5563  1.3693  3.3664
    3MOL    H89 1373   5.616   0.463   6.539 -0.9684  0.0196  0.0700
    3MOL    H90 1374   5.583   0.356   6.670 -0.9677 -2.0809  0.4046
    3MOL    H91 1375   5.337   0.362   6.594 -0.7843 -0.2847 -0.8618
    3MOL    H92 1376   5.406   0.523   6.634  0.3264 -0.2713 -0.1560
    3MOL    H93 1377   5.374   0.412   6.348 -0.2817  1.9294 -1.4575
    3MOL    H94 1378   5.404   0.573   6.413  0.0241  1.5937  2.4436
    3MOL    H95 1379   5.187   0.592   6.508 -0.5460 -1.0389  0.0292
    3MOL    H96 1380   5.144   0.433   6.446  1.1272 -0.4026  0.7279
    3MOL    H97 1381   5.132   0.689   6.304  0.7370  0.1524 -1.8876
    3MOL    C98 1382   5.119   0.530   6.188  0.0099  0.4535  0.1839
    3MOL    O99 1383   5.147   0.411   6.164  0.5816 -0.0817  0.2821
    3MOL   C100 1384   5.051   0.624   6.094 -0.6669 -0.0381  0.2331
    3MOL   C101 1385   5.038   0.570   5.950 -0.2144 -0.0502  0.6239
    3MOL   C102 1386   4.984   0.668   5.845 -0.5998 -0.6430  0.2219
    3MOL   C103 1387   4.908   0.595   5.731  0.2164  0.5422  0.7539
    3MOL   C104 1388   4.764   0.563   5.759 -1.1316 -0.7640 -0.0210
    3MOL   O105 1389   4.680   0.646   5.722 -0.6594 -0.6413 -0.0923
    3MOL   N106 1390   4.727   0.450   5.825  0.1332 -0.0984 -0.3598
    3MOL   C107 1391   4.592   0.411   5.866 -0.3705  0.5628 -0.2654
    3MOL   C108 1392   4.590   0.303   5.974  0.8588  0.0221 -0.0972
    3MOL   C109 1393   4.667   0.335   6.105  0.4484  0.4456 -0.5647
    3MOL   C110 1394   4.573   0.391   6.213  0.2252  1.1171  0.0849
    3MOL   N111 1395   4.656   0.423   6.329 -0.7917 -0.4701 -0.3333
    3MOL   H112 1396   4.953   0.649   6.136 -1.6525 -0.0546 -1.9579
    3MOL   H113 1397   5.098   0.722   6.083  2.0545 -1.3434  0.0113
    3MOL   H114 1398   5.125   0.517   5.909 -0.2393 -0.0339  0.5506
    3MOL   H115 1399   4.949   0.507   5.954 -0.6023  0.5231  1.0916
    3MOL   H116 1400   5.071   0.723   5.810 -0.7748  0.4742  1.4782
    3MOL   H117 1401   4.921   0.742   5.894 -0.1575 -0.0550 -0.0986
    3MOL   H118 1402   4.960   0.501   5.710 -0.9189  0.6050 -2.6033
    3MOL   H119 1403   4.919   0.658   5.643  0.4434 -1.9671 -1.0824
    3MOL   H120 1404   4.797   0.379   5.844  0.2619  0.4655  1.3728
    3MOL   H121 1405   4.542   0.384   5.774  0.9257 -0.6855 -0.6075
    3MOL   H122 1406   4.543   0.506   5.887  0.8155  1.0653  0.3374
    3MOL   H123 1407   4.487   0.275   5.994  1.3962 -3.1460 -1.4788
    3MOL   H124 1408   4.634   0.211   5.937 -2.0290 -0.4453 -2.5416
    3MOL   H125 1409   4.744   0.408   6.079 -0.2176  0.6073 -2.1093
    3MOL   H126 1410   4.717   0.245   6.141 -0.5345 -0.2276 -0.8782
    3MOL   H127 1411   4.498   0.315   6.237 -0.7247  2.3102  0.9894
    3MOL   H128 1412   4.500   0.466   6.181  2.3002  1.5954 -3.8224
    3MOL   H129 1413   4.685   0.338   6.376  1.0638  0.2782 -0.0696
    3MOL   C130 1414   4.686   0.549   6.368 -0.3141 -0.6735 -0.0449
    3MOL   O131 1415   4.648   0.646   6.309  0.1058  0.2642 -0.0654
    3MOL   C132 1416   4.789   0.571   6.487  0.6449 -0.5074 -0.0152
    3MOL   C133 1417   4.716   0.639   6.604  0.1743 -0.2993 -0.0930
    3MOL   C134 1418   4.796   0.702   6.714 -0.1325  0.1285 -0.6352
    3MOL   C135 1419   4.711   0.713   6.848 -0.1033  0.5473 -0.0893
    3MOL   C136 1420   4.648   0.592   6.903 -0.0198  0.1482 -0.1193
    3MOL   O137 1421   4.693   0.483   6.871 -0.3810 -0.2268  0.0904
    3MOL   N138 1422   4.563   0.607   7.005 -0.4696  1.0398 -0.2379
    3MOL   C139 1423   4.478   0.501   7.067 -0.8825 -0.2462  0.1797
    3MOL   C140 1424   4.551   0.429   7.184 -0.1643 -0.4936 -0.0793
    3MOL   C141 1425   4.626   0.515   7.285  0.1620  0.4983  0.4969
    3MOL   C142 1426   4.695   0.433   7.403  0.2401 -0.5338  0.0375
    3MOL   N143 1427   4.797   0.510   7.474 -0.1423  0.6043 -0.3325
    3MOL   H144 1428   4.839   0.479   6.516  0.5223  0.6163  4.0882
    3MOL   H145 1429   4.856   0.645   6.442 -0.0706 -0.6675 -1.3826
    3MOL   H146 1430   4.656   0.725   6.574 -0.4003  0.0225  1.9182
    3MOL   H147 1431   4.641   0.571   6.647 -1.1512  1.8755  1.1467
    3MOL   H148 1432   4.832   0.796   6.674 -1.8412  1.5595  1.1341
    3MOL   H149 1433   4.879   0.632   6.727  0.6425  0.9970 -0.8980
    3MOL   H150 1434   4.637   0.791   6.835 -1.8847 -1.0178  0.5065
    3MOL   H151 1435   4.769   0.747   6.934  0.4608  0.9250 -0.6091
    3MOL   H152 1436   4.536   0.703   7.018  0.5946  1.7655 -2.9080
    3MOL   H153 1437   4.446   0.427   6.993 -1.8695 -0.1053  0.4610
    3MOL   H154 1438   4.392   0.553   7.107  1.1365  4.2252 -0.9576
    3MOL   H155 1439   4.466   0.380   7.231 -1.2876  2.5975  1.2363
    3MOL   H156 1440   4.625   0.357   7.149  0.3448 -0.7953  1.5708
    3MOL   H157 1441   4.561   0.589   7.332  0.7688  0.5408  1.2750
    3MOL   H158 1442   4.703   0.573   7.235 -0.1721  2.2717  2.0108
    3MOL   H159 1443   4.742   0.344   7.361 -0.0924  0.2380 -2.0334
    3MOL   H160 1444   4.616   0.401   7.471  0.0463  0.7778  0.4507
    3MOL   H161 1445   4.887   0.520   7.429  0.2594 -3.4489 -0.6113
    3MOL   C162 1446   4.791   0.592   7.574  0.3389  0.8473  0.7107
    3MOL   O163 1447   4.693   0.611   7.646  0.2276  0.6324 -0.0083
    3MOL   C164 1448   4.915   0.677   7.586  0.9318 -0.3288  0.1501
    3MOL   C165 1449   5.017   0.628   7.698  0.4640  0.2411 -0.0723
    3MOL   C166 1450   5.116   0.516   7.647  0.5822  0.4910 -0.3418
    3MOL   C167 1451   5.237   0.569   7.563 -0.4516  1.3643 -0.0220
    3MOL   C168 1452   5.336   0.459   7.535 -0.3046 -0.3037  0.1052
    3MOL   O169 1453   5.450   0.466   7.579 -0.3946 -0.0817 -0.0666
    3MOL   N170 1454   5.301   0.361   7.448  0.0829  0.0330 -0.3374
    3MOL   C171 1455   5.402   0.259   7.410  0.2986  0.3492 -0.4145
    3MOL   C172 1456   5.373   0.175   7.279  0.0241  0.3137 -0.3042
    3MOL   C173 1457   5.461   0.053   7.283  0.0452 -0.5166  0.3511
    3MOL   C174 1458   5.447   7.666   7.157 -0.0950  0.6386  0.4321
    3MOL   N175 1459   5.544   0.006   7.054 -0.6735  0.7184  0.0481
    3MOL   H176 1460   4.954   0.683   7.485 -1.9247 -0.9357 -1.0405
    3MOL   H177 1461   4.896   0.778   7.622  0.4640 -0.4217  0.1676
    3MOL   H178 1462   5.070   0.713   0.040 -0.9100 -0.0677  2.3189
    3MOL   H179 1463   4.956   0.589   0.078  1.1150 -1.2928 -0.2948
    3MOL   H180 1464   5.054   0.447   7.590 -1.2591  2.1110 -0.3573
    3MOL   H181 1465   5.166   0.462   0.026  0.7702 -1.8250 -1.9540
    3MOL   H182 1466   5.293   0.656   7.600  1.6422 -0.5016  1.3145
    3MOL   H183 1467   5.196   0.600   7.467 -0.7570 -0.3170 -0.4416
    3MOL   H184 1468   5.211   0.359   7.404 -0.2046 -0.9898  0.2785
    3MOL   H185 1469   5.420   0.190   7.492  0.0059  2.2438  1.3042
    3MOL   H186 1470   5.499   0.308   7.401 -0.4092  2.0527  0.9765
    3MOL   H187 1471   5.268   0.143   7.282  0.2228 -0.2114  1.4976
    3MOL   H188 1472   5.387   0.222   7.182  1.0864 -1.1733 -0.8818
    3MOL   H189 1473   5.438   7.687   7.365 -1.2921  0.3002  0.6563
    3MOL   H190 1474   5.565   0.072   7.310  0.4003 -1.3868 -0.3670
    3MOL   H191 1475   5.344   7.677   7.123 -0.5086  0.0762  1.4747
    3MOL   H192 1476   5.468   7.562   7.183  1.7611  0.6077 -1.1095
    3MOL   H193 1477   5.642   0.024   7.070 -0.2038 -1.4327 -0.2920
    3MOL   C194 1478   5.507   0.045   6.934 -0.7044 -0.2973  0.3756
    3MOL   O195 1479   5.395   0.037   6.893  0.5408  1.0517 -0.3546
    3MOL   C196 1480   5.624   0.086   6.840 -0.4812  0.1990  0.5608
    3MOL   C197 1481   5.758   0.138   6.912 -0.2714  0.3121 -0.6493
    3MOL   C198 1482   5.730   0.269   6.995  0.4416 -1.0458  0.4831
    3MOL   C199 1483   5.846   0.313   7.092 -0.6280  0.6516 -0.0831
    3MOL   C200 1484   5.823   0.250   7.231 -0.4298  1.1675 -0.4147
    3MOL   O201 1485   5.751   0.304   7.309  1.2302 -0.4398  0.4875
    3MOL   N202 1486   5.891   0.133   7.257  0.3561  0.7405 -0.2441
    3MOL   C203 1487   5.910   0.060   7.384 -0.0934  0.5192 -0.4396
    3MOL   C204 1488   5.827   7.628   7.377 -0.1732 -0.5217 -0.7312
    3MOL   C205 1489   5.843   7.539   7.252  0.8069  0.5595  0.3078
    3MOL   C206 1490   5.758   7.404   7.261 -0.0537 -0.0975  0.4537
    3MOL   N207 1491   5.783   7.323   7.146 -0.9045  0.0627 -0.0096
    3MOL   H208 1492   5.646   0.002   6.774 -3.0352  1.8184 -2.5059
    3MOL   H209 1493   5.584   0.158   6.769 -0.8666  0.1763  0.7587
    3MOL   H210 1494   5.795   0.058   6.976 -0.1253  0.7924 -0.1289
    3MOL   H211 1495   5.830   0.168   6.835 -1.1646  1.6225 -0.9857
    3MOL   H212 1496   5.644   0.254   7.061 -0.5720 -1.0900 -0.8092
    3MOL   H213 1497   5.716   0.357   6.932  0.2824  0.2495  2.3233
    3MOL   H214 1498   5.841   0.422   7.103  2.3322  0.8166 -0.0054
    3MOL   H215 1499   5.943   0.292   7.045  0.2143  1.6631  1.1607
    3MOL   H216 1500   5.925   0.082   7.177  0.4497 -0.9251  0.8338
    3MOL   H217 1501   5.872   0.116   7.470 -0.2466  1.3615 -1.0421
    3MOL   H218 1502   6.011   0.022   7.397 -1.5431 -3.3534  0.0438
    3MOL   H219 1503   5.852   7.568   7.464  0.4682  2.1236  0.9708
    3MOL   H220 1504   5.720   7.645   7.395 -0.0640  0.1820 -0.7353
    3MOL   H221 1505   5.947   7.505   7.246  0.4944 -0.6218  1.3509
    3MOL   H222 1506   5.825   7.594   7.160 -0.4571  0.1725  0.3144
    3MOL   H223 1507   5.650   7.415   7.262 -0.1615 -1.2044  1.2649
    3MOL   H224 1508   5.785   7.352   7.353 -1.4894 -1.7868 -0.0740
    3MOL   H225 1509   5.759   7.367   7.059 -0.2554  0.5241  0.0397
    3MOL   C226 1510   5.845   7.207   7.133  0.0229 -0.3155  0.1572
    3MOL   O227 1511   5.877   7.142   7.236  0.1017  0.4899  0.0070
    3MOL   C228 1512   5.869   7.149   6.994 -0.4694  0.0362  0.1472
    3MOL   C229 1513   6.015   7.139   6.960  0.0564 -0.4598 -0.0827
    3MOL   C230 1514   6.040   7.087   6.810  0.1694  0.4366 -0.5179
    3MOL   C231 1515   6.186   7.047   6.778  0.1464 -0.4682 -0.2454
    3MOL   C232 1516   6.282   7.165   6.801  0.0095 -0.6510  0.0163
    3MOL   O233 1517   6.265   7.271   6.743 -0.3248 -0.2341 -0.2500
    3MOL   N234 1518   6.384   7.135   6.883 -0.3726 -0.0221 -0.0120
    3MOL   C235 1519   6.491   7.227   6.918 -0.1859 -0.2232 -0.2458
    3MOL   C236 1520   6.617   7.165   6.986  0.1581 -0.0610  0.3966
    3MOL   C237 1521   6.742   7.258   6.992  0.3340  0.1390 -0.5193
    3MOL   C238 1522   6.855   7.219   7.086  0.1726  0.5138  0.0362
    3MOL   N239 1523   6.963   7.316   7.068  0.6951 -0.6280  0.8350
    3MOL   H240 1524   5.817   7.053   6.985  0.6440 -0.8483  2.6886
    3MOL   H241 1525   5.834   7.208   6.909 -0.2034  0.8905  0.6309
    3MOL   H242 1526   6.066   7.234   6.966 -0.5075 -0.1634  0.0985
    3MOL   H243 1527   6.057   7.083   7.044  0.5567 -0.9018 -0.6311
    3MOL   H244 1528   6.003   7.165   6.744  2.0023  0.6593 -1.2935
    3MOL   H245 1529   5.978   7.000   6.785  0.1446  0.0899  0.6913
    3MOL   H246 1530   6.194   7.007   6.677 -1.4979 -0.0874 -0.5394
    3MOL   H247 1531   6.214   6.954   6.827  0.2140 -0.0192  0.5722
    3MOL   H248 1532   6.381   7.050   6.937  0.8852 -1.7293 -2.5455
    3MOL   H249 1533   6.440   7.301   6.979  1.0140  1.4647 -1.2450
    3MOL   H250 1534   6.521   7.274   6.824 -0.4029  4.0283  1.6807
    3MOL   H251 1535   6.600   7.127   7.086  0.8649 -0.8355  0.2231
    3MOL   H252 1536   6.646   7.079   6.925 -0.2972 -0.2709  0.4756
    3MOL   H253 1537   6.714   7.363   7.006  1.4324  0.1486  1.8925
    3MOL   H254 1538   6.785   7.274   6.893 -1.2790  0.1679 -1.2279
    3MOL   H255 1539   6.887   7.120   7.052 -2.9022 -0.2168 -0.9103
    3MOL   H256 1540   6.825   7.204   7.190 -0.6634 -1.5240 -0.4613
    3MOL   H257 1541   6.949   7.391   7.002  1.3878 -0.8687  0.4039
    3MOL   C258 1542   7.079   7.306   7.133 -0.0833  0.7345  0.2831
    3MOL   O259 1543   7.092   7.213   7.216 -0.6401  0.1329  0.2345
    3MOL   C260 1544   7.187   7.408   7.119 -0.2452 -0.0039  0.2792
    3MOL   C261 1545   7.220   7.479   7.256 -0.5116 -0.2079 -0.0225
    3MOL   C262 1546   7.107   7.559   7.313 -0.1096  0.1761 -0.1584
    3MOL   C263 1547   7.017   7.479   7.403  0.3005  0.3421  0.5938
    3MOL   C264 1548   7.081   7.448   7.539  0.7870 -0.0743 -0.4678
    3MOL   O265 1549   7.115   7.535   7.609  0.1479 -0.6315 -0.4211
    3MOL   N266 1550   7.090   7.321   7.569  0.2625  0.5105 -0.2510
    3MOL   C267 1551   7.191   7.273   7.668 -0.3272 -0.4261 -0.5047
    3MOL   C268 1552   7.168   7.118   7.673 -0.1722 -0.2468  0.3550
    3MOL   C269 1553   7.252   7.051   0.096 -0.8157 -0.5170 -0.0190
    3MOL   C270 1554   7.273   6.902   0.080 -0.0824 -0.6512  0.1418
    3MOL   N271 1555   7.143   6.838   0.063 -0.0626  0.2696 -0.6306
    3MOL   H272 1556   7.274   7.345   7.101 -2.3253 -2.1097 -3.0830
    3MOL   H273 1557   7.175   7.483   7.040 -1.8619 -0.3698  0.1690
    3MOL   H274 1558   7.254   7.403   7.327 -0.4163 -0.7711 -0.6729
    3MOL   H275 1559   7.305   7.546   7.250  0.3475 -1.1202  1.4288
    3MOL   H276 1560   7.058   7.607   7.228  1.0383 -1.3951 -1.7408
    3MOL   H277 1561   7.155   7.629   7.381  2.2210 -1.8214  0.3208
    3MOL   H278 1562   6.973   7.385   7.371  0.7824  0.0270  0.8346
    3MOL   H279 1563   6.933   7.537   7.440  0.6827  0.5421  1.1672
    3MOL   H280 1564   7.052   7.255   7.503  1.4828 -0.3586 -0.0900
    3MOL   H281 1565   7.191   7.316   0.067  0.2405  1.8572 -1.4587
    3MOL   H282 1566   7.293   7.286   7.634 -0.1650 -0.5981 -0.0961
    3MOL   H283 1567   7.063   7.095   7.662 -0.6590  1.4317  1.2431
    3MOL   H284 1568   7.215   7.074   7.585 -1.8590 -0.3340 -0.5177
    3MOL   H285 1569   7.201   7.062   0.192 -0.1526 -1.4827  0.4531
    3MOL   H286 1570   7.348   7.103   0.101 -0.9970  0.0969 -2.2597
    3MOL   H287 1571   7.334   6.868   0.164  0.4688  1.1539  0.4940
    3MOL   H288 1572   7.342   6.877   7.701  1.6026 -2.3289  2.0607
    3MOL   H289 1573   7.096   6.859   7.677  0.3533  0.5538 -0.7882
    3MOL   C290 1574   7.070   6.807   0.171 -0.5189 -0.4184  0.0505
    3MOL   O291 1575   6.946   6.807   0.165  0.1623 -0.2735  0.4995
    3MOL   C292 1576   7.140   6.753   0.301 -0.0673  0.3070  0.6364
    3MOL   C293 1577   7.047   6.665   0.389  0.3258  0.1364 -0.6500
    3MOL   C294 1578   7.122   6.604   0.507  0.0919  0.0827  0.0638
    3MOL   C295 1579   7.158   6.710   0.611 -0.0975 -0.3411  0.1321
    3MOL   C296 1580   7.189   6.645   0.744 -0.8273  0.5425 -0.2531
    3MOL   O297 1581   7.107   6.634   0.835 -0.0897  0.3063 -0.3754
    3MOL   N298 1582   7.318   6.617   0.763  0.0521 -0.0429 -0.2445
    3MOL   C299 1583   7.380   6.589   0.896 -0.0152 -0.1157 -0.0850
    3MOL   C300 1584   7.418   6.726   0.964 -0.0495 -0.0758 -0.2845
    3MOL   C301 1585   7.507   6.713   1.092 -0.1001 -0.7563  0.1597
    3MOL   C302 1586   7.588   6.832   1.121  0.3616 -0.0453  0.0836
    3MOL   N303 1587   7.699   6.802   1.205 -0.2837  0.3431 -0.0205
    3MOL   H304 1588   7.227   6.695   0.272 -0.3538  1.3368 -2.4972
    3MOL   H305 1589   7.163   6.843   0.359 -0.7867  1.0191 -0.1634
    3MOL   H306 1590   6.960   6.722   0.423 -0.3132 -1.3277  0.2029
    3MOL   H307 1591   7.009   6.586   0.324  1.6515 -0.2384 -0.9836
    3MOL   H308 1592   7.214   6.558   0.469 -1.0030 -0.5471 -1.8678
    3MOL   H309 1593   7.061   6.521   0.545 -1.3412  0.4483 -1.4147
    3MOL   H310 1594   7.079   6.783   0.632 -0.6133 -1.9024  4.1452
    3MOL   H311 1595   7.239   6.774   0.576  0.5009 -1.0099  0.3065
    3MOL   H312 1596   7.387   6.636   0.692  2.1083 -0.2655  1.6349
    3MOL   H313 1597   7.464   6.520   0.884  0.2655  0.6633 -2.8977
    3MOL   H314 1598   7.312   6.551   0.972  1.4235 -2.8752 -0.1315
    3MOL   H315 1599   7.469   6.788   0.890 -0.0480  1.4309  0.9457
    3MOL   H316 1600   7.325   6.776   0.992 -0.2652 -0.9096  0.4897
    3MOL   H317 1601   7.567   6.627   1.065  1.9806  0.8884 -0.5532
    3MOL   H318 1602   7.450   6.663   1.171  0.5696  0.4824  1.4658
    3MOL   H319 1603   7.528   6.910   1.168 -3.1634 -3.5581  1.6759
    3MOL   H320 1604   7.624   6.866   1.024 -1.0896  0.6291 -0.2302
    3MOL   H321 1605   0.085   6.775   1.163  0.1560  0.1531  1.0040
    3MOL   C322 1606   7.695   6.814   1.338  1.2227 -0.0928  0.0915
    3MOL   O323 1607   7.594   6.855   1.401  0.3373 -0.6681 -0.1915
    3MOL   C324 1608   0.110   6.768   1.422  0.3300 -0.4213 -0.0675
    3MOL   C325 1609   0.200   6.878   1.480  0.2108 -0.7297  1.0649
    3MOL   C326 1610   0.317   6.893   1.385 -0.2590 -0.4879 -0.2059
    3MOL   C327 1611   0.413   6.996   1.428  0.0276 -0.4244  0.0943
    3MOL   C328 1612   0.379   7.134   1.385 -0.4896 -0.3215  0.0924
    3MOL   O329 1613   0.307   7.163   1.289 -0.2241 -0.2298 -0.0410
    3MOL   N330 1614   0.442   7.228   1.456 -0.7230 -0.0904 -0.2144
    3MOL   C331 1615   0.422   7.371   1.442 -0.2133  0.2192  0.3175
    3MOL   C332 1616   0.512   7.431   1.322 -0.6055  0.1189  0.3795
    3MOL   C333 1617   0.665   7.431   1.348  0.1510 -0.2818  0.2832
    3MOL   C334 1618   0.755   7.444   1.222 -1.1642  0.4281 -0.1423
    3MOL   N335 1619   0.892   7.388   1.255 -0.3731 -0.1797 -0.2615
    3MOL   H336 1620   0.066   6.724   1.512 -3.1678  1.2814 -0.8809
    3MOL   H337 1621   0.159   6.683   1.374 -1.2287  0.3426 -3.0886
    3MOL   H338 1622   0.144   6.970   1.493  3.0719  1.3900 -0.8543
    3MOL   H339 1623   0.240   6.849   1.577  1.5087 -2.0627  0.1657
    3MOL   H340 1624   0.281   6.915   1.285 -2.1492 -0.1122  0.5234
    3MOL   H341 1625   0.374   6.802   1.369  2.6972  1.4330 -0.9186
    3MOL   H342 1626   0.510   6.973   1.383  0.3828 -0.4953  0.8884
    3MOL   H343 1627   0.438   6.987   1.534  1.5151 -4.4063 -0.5190
    3MOL   H344 1628   0.503   7.211   1.535 -0.4606  1.3592 -0.0862
    3MOL   H345 1629   0.457   7.414   1.536  1.0964 -0.3897  0.1255
    3MOL   H346 1630   0.315   7.386   1.435 -0.2056  0.2505  0.2684
    3MOL   H347 1631   0.486   7.373   1.233  0.3227 -1.9533  1.4260
    3MOL   H348 1632   0.480   7.535   1.317 -2.2827 -0.4503 -1.6482
    3MOL   H349 1633   0.687   7.336   1.398 -0.0383  0.0143  0.9351
    3MOL   H350 1634   0.689   7.517   1.411  3.4128  0.1212 -1.4123
    3MOL   H351 1635   0.750   7.547   1.186  0.0441  0.1510 -1.1527
    3MOL   H352 1636   0.716   7.378   1.145 -2.1214  1.4987 -0.5805
    3MOL   H353 1637   0.917   7.304   1.205  0.5805  0.4157 -0.8038
    3MOL   C354 1638   1.001   7.457   1.295  0.1024  0.7084  0.0329
    3MOL   O355 1639   0.992   7.575   1.340 -0.1095  0.0277  0.1639
    3MOL   C356 1640   1.136   7.396   1.266 -0.1865  0.3812 -0.1089
    3MOL   C357 1641   1.240   7.426   1.376 -0.2970  0.0540 -0.0106
    3MOL   C358 1642   1.202   7.336   1.503 -0.1539  0.5035 -0.4314
    3MOL   C359 1643   1.320   7.310   1.596 -0.4007 -0.2531 -0.0623
    3MOL   C360 1644   1.440   7.251   1.527  0.7823  0.0140 -0.1926
    3MOL   O361 1645   1.416   7.160   1.442 -0.1080  0.1112  0.1017
    3MOL   N362 1646   1.561   7.292   1.566  0.0019 -0.2552 -0.3470
    3MOL   C363 1647   1.685   7.214   1.549 -0.2585  0.3720 -0.9452
    3MOL   C364 1648   1.665   7.074   1.602 -0.3333  0.0015  0.2074
    3MOL   C365 1649   1.615   7.041   1.741  0.1498  0.4347  0.6452
    3MOL   C366 1650   1.697   7.079   1.860 -0.1374  0.1327  0.6438
    3MOL   N367 1651   1.660   7.020   1.985 -0.5094  0.2140 -0.3720
    3MOL   H368 1652   1.141   7.288   1.247 -0.5597 -0.3073  3.3429
    3MOL   H369 1653   1.170   7.430   1.168 -0.0489  0.1847 -0.1307
    3MOL   H370 1654   1.339   7.399   1.340 -0.6682  0.4607 -1.3747
    3MOL   H371 1655   1.240   7.531   1.404  2.5066  0.0784 -0.0440
    3MOL   H372 1656   1.174   7.235   1.474 -2.9890  1.2208 -0.2771
    3MOL   H373 1657   1.118   7.381   1.555 -0.3706  1.1757 -1.3615
    3MOL   H374 1658   1.294   7.238   1.673 -0.4122 -0.6421 -0.4249
    3MOL   H375 1659   1.326   7.398   1.660 -0.2073  0.7228 -1.4017
    3MOL   H376 1660   1.558   7.381   1.613  0.3036  0.7945 -2.2719
    3MOL   H377 1661   1.767   7.254   1.607  0.5926  0.2594 -2.0563
    3MOL   H378 1662   1.712   7.218   1.443  0.7910  1.0013 -0.6586
    3MOL   H379 1663   1.597   7.022   1.534  1.0992 -2.9231  0.9301
    3MOL   H380 1664   1.761   7.022   1.590  0.3661  1.1168  0.9061
    3MOL   H381 1665   1.616   6.932   1.746 -1.2337  0.0471 -4.4396
    3MOL   H382 1666   1.507   7.051   1.750 -0.4499 -2.3913 -2.2899
    3MOL   H383 1667   1.694   7.187   1.870 -1.6654  0.1112  0.5867
    3MOL   H384 1668   1.801   7.054   1.843 -0.5735  0.3186 -2.6790
    3MOL   H385 1669   1.572   6.971   1.981 -0.7794  0.6769 -0.1686
    3MOL   C386 1670   1.738   7.003   2.093  0.1449 -0.2244 -0.2657
    3MOL   O387 1671   1.847   7.060   2.098  0.4945 -0.0387 -0.2629
    3MOL   C388 1672   1.674   6.927   2.211 -0.0497  0.6891  0.0214
    3MOL   C389 1673   1.709   6.980   2.354 -0.1539  0.0925 -0.4950
    3MOL   C390 1674   1.640   7.117   2.377  0.2681 -0.5221  0.0625
    3MOL   C391 1675   1.618   7.160   2.523 -0.3114  0.0973  0.3492
    3MOL   C392 1676   1.563   7.299   2.538  0.3790  0.3955 -0.4457
    3MOL   O393 1677   1.505   7.360   2.450  0.7791 -0.0150 -0.3420
    3MOL   N394 1678   1.575   7.361   2.660 -0.1294  0.6681 -0.3758
    3MOL   C395 1679   1.545   7.496   2.699  0.6593 -0.0015  0.0678
    3MOL   C396 1680   1.659   7.600   2.684 -0.2394  0.3810  0.0333
    3MOL   C397 1681   1.631   0.035   2.746 -0.8783  0.3295  0.2213
    3MOL   C398 1682   1.528   0.120   2.664 -0.3574 -0.6258  0.0355
    3MOL   N399 1683   1.482   0.238   2.737  0.3176 -0.7622 -0.0748
    3MOL   H400 1684   1.566   6.930   2.196 -0.0178 -0.8755 -0.6748
    3MOL   H401 1685   1.701   6.821   2.206 -2.0171  0.0320  2.3921
    3MOL   H402 1686   1.679   6.909   2.431 -0.5392 -0.0875 -0.8085
    3MOL   H403 1687   1.817   6.985   2.369 -0.3179 -1.5372  1.3837
    3MOL   H404 1688   1.543   7.122   2.328  0.7630 -0.6012 -0.9398
    3MOL   H405 1689   1.709   7.188   2.332  0.3889  0.6977  2.1303
    3MOL   H406 1690   1.707   7.147   2.585 -1.5522  0.7314  2.3045
    3MOL   H407 1691   1.549   7.091   2.572 -0.1178 -0.1423  0.2836
    3MOL   H408 1692   1.605   7.304   2.737 -0.4255  3.4992  1.9447
    3MOL   H409 1693   1.501   7.505   2.798 -2.9308 -0.6927 -1.3575
    3MOL   H410 1694   1.458   7.531   2.643  1.3352  0.0244 -0.9918
    3MOL   H411 1695   1.754   7.567   2.728  1.1336  2.1434 -1.5499
    3MOL   H412 1696   1.678   7.618   2.578 -1.8849  1.6077 -0.0774
    3MOL   H413 1697   1.718   0.098   2.764 -0.0833 -0.6323 -0.2490
    3MOL   H414 1698   1.584   0.011   2.841 -0.7534  1.5963  0.6209
    3MOL   H415 1699   1.445   0.050   2.656 -2.1268  1.2988  0.8397
    3MOL   H416 1700   1.568   0.141   2.565  0.8607  0.2738  0.7014
    3MOL   H417 1701   1.528   0.327   2.723 -2.9930  1.1216  0.2944
    3MOL   C418 1702   1.382   0.241   2.829  0.2180 -0.5114  0.1341
    3MOL   O419 1703   1.323   0.139   2.868  0.1628 -0.2170  0.1615
    3MOL   C420 1704   1.339   0.381   2.878  1.1776 -0.0782 -0.7401
    3MOL   C421 1705   1.204   0.391   2.954 -0.7098  0.9062 -1.3223
    3MOL   C422 1706   1.209   0.363   3.106  0.4571 -0.0103 -0.4603
    3MOL   C423 1707   1.071   0.380   3.164  0.3094  0.2568 -0.4662
    3MOL   C424 1708   1.061   0.318   3.301  0.1835  0.3382 -0.2338
    3MOL   O425 1709   0.977   0.231   3.314  0.2355 -0.0473 -0.6011
    3MOL   N426 1710   1.147   0.356   3.394 -0.0995  0.3100  0.5358
    3MOL   C427 1711   1.162   0.311   3.531  0.3414 -0.1311  0.9988
    3MOL   C428 1712   1.306   0.317   3.572 -0.0866 -0.1387 -0.1593
    3MOL   C429 1713   1.315   0.276   3.719 -0.1968  0.3461 -0.3775
    3MOL   C430 1714   1.426   0.347   3.805 -0.0337  0.2136 -0.2059
    3MOL   N431 1715   1.565   0.296   3.778  0.5771 -0.4892 -0.1892
    3MOL   H432 1716   1.424   0.413   2.939 -0.5965  1.0193  1.2413
    3MOL   H433 1717   1.340   0.451   2.795  0.6848 -0.2936 -0.9280
    3MOL   H434 1718   1.154   0.485   2.934 -0.7292  1.3336  0.6414
    3MOL   H435 1719   1.142   0.315   2.905 -4.0306  1.1791  2.2415
    3MOL   H436 1720   1.285   0.429   3.149 -0.1224  0.4451 -0.1302
    3MOL   H437 1721   1.245   0.261   3.117  0.4982  0.2462  1.9630
    3MOL   H438 1722   1.002   0.331   3.096 -0.6106  0.7385  0.1094
    3MOL   H439 1723   1.034   0.482   3.175  0.1230  0.3111 -1.6133
    3MOL   H440 1724   1.202   0.436   3.366  1.3544 -0.8920 -0.1140
    3MOL   H441 1725   1.133   0.206   3.538  0.0127 -0.1497 -0.3956
    3MOL   H442 1726   1.104   0.379   3.593  1.3397  0.9590  0.7588
    3MOL   H443 1727   1.378   0.256   3.517 -1.8861 -1.2047 -1.3970
    3MOL   H444 1728   1.344   0.419   3.564 -1.4962  0.4248  0.3132
    3MOL   H445 1729   1.293   0.172   3.745  0.0582  0.8368  1.9067
    3MOL   H446 1730   1.223   0.311   3.765  0.2634 -0.7015  1.3898
    3MOL   H447 1731   1.416   0.321   3.911 -0.9911  3.0262  0.4481
    3MOL   H448 1732   1.429   0.456   3.801 -1.8818  0.3038  0.3051
    3MOL   H449 1733   1.612   0.343   3.703  0.2801  0.1690  0.0321
    3MOL   C450 1734   1.616   0.187   3.826 -0.3884 -0.0495 -0.6885
    3MOL   O451 1735   1.548   0.098   3.884  0.2608  0.0740 -0.0784
    3MOL   C452 1736   1.768   0.169   3.778  0.2207 -0.0821 -0.5449
    3MOL   C453 1737   1.782   0.091   3.646 -0.3048 -0.2169  0.3752
    3MOL   C454 1738   1.759   7.643   3.672 -0.5428 -0.5227  0.3401
    3MOL   C455 1739   1.725   7.580   3.535  0.3283 -0.0127  0.4610
    3MOL   C456 1740   1.696   7.436   3.542 -0.0705  1.3945 -0.7072
    3MOL   O457 1741   1.729   7.368   3.641 -0.6606  0.0410 -0.5259
    3MOL   N458 1742   1.640   7.384   3.429 -0.0950  0.1414 -0.1892
    3MOL   C459 1743   1.610   7.238   3.407 -0.3183 -0.0927 -0.2889
    3MOL   C460 1744   1.503   7.196   3.503 -0.0806 -0.3616  0.8423
    3MOL   C461 1745   1.370   7.253   3.454  0.2242 -0.0645 -1.0806
    3MOL   C462 1746   1.265   7.225   3.571 -0.2823  0.0249 -0.3384
    3MOL   N463 1747   1.133   7.248   3.519  0.1065 -0.6213  0.0681
    3MOL   H464 1748   1.808   0.268   3.756 -1.8888  0.1698 -3.6115
    3MOL   H465 1749   1.829   0.120   3.854  0.2712 -0.8253 -1.0575
    3MOL   H466 1750   1.713   0.142   3.579 -0.2379  0.1813  0.6053
    3MOL   H467 1751   1.880   0.091   3.598  0.4387  0.6945  1.8562
    3MOL   H468 1752   1.672   7.630   3.736  0.3553 -0.9416  1.4851
    3MOL   H469 1753   1.843   7.600   3.725 -0.0725  2.4435  2.0702
    3MOL   H470 1754   1.804   7.595   3.460  0.0985  0.6586  0.3514
    3MOL   H471 1755   1.634   7.631   3.505  1.6132  1.4731 -1.0572
    3MOL   H472 1756   1.622   7.443   3.349  1.2599  0.8598  0.0377
    3MOL   H473 1757   1.699   7.177   3.417 -0.8484 -0.8807 -0.3637
    3MOL   H474 1758   1.575   7.224   3.304  3.0400  1.0938 -1.6761
    3MOL   H475 1759   1.494   7.087   3.502 -1.1499 -0.2817 -2.1357
    3MOL   H476 1760   1.519   7.214   3.609  3.4656  1.6207  0.0475
    3MOL   H477 1761   1.348   7.205   3.359 -2.8138  1.1039 -1.0305
    3MOL   H478 1762   1.366   7.361   3.440  0.2306  0.0773 -0.0745
    3MOL   H479 1763   1.283   7.294   3.653 -1.6622  0.3536 -0.3016
    3MOL   H480 1764   1.276   7.122   3.605  0.9828  0.2091 -0.1697
    3MOL   H481 1765   1.093   7.332   3.558  0.8056  0.1421 -0.8406
    3MOL   C482 1766   1.074   7.178   3.422 -0.0772 -0.8205  0.4723
    3MOL   O483 1767   1.134   7.074   3.375  0.5802 -0.0492  0.1607
    3MOL   C484 1768   0.937   7.233   3.370  0.9619  0.3738 -0.3772
    3MOL   C485 1769   0.916   7.242   3.212  0.0907  0.0977 -0.1244
    3MOL   C486 1770   0.831   7.367   3.171 -0.8096 -1.2896  0.6526
    3MOL   C487 1771   0.812   7.369   3.012  0.2063 -0.5325 -0.0528
    3MOL   C488 1772   0.743   7.497   2.952  0.0243 -0.0657  0.1885
    3MOL   O489 1773   0.652   7.546   3.013 -0.3635 -0.4528 -0.1442
    3MOL   N490 1774   0.796   7.554   2.847  0.1781 -0.8694  0.4825
    3MOL   C491 1775   0.737   7.672   2.781  0.5433 -0.4604  0.0477
    3MOL   C492 1776   0.653   7.624   2.658 -0.1386  0.4115  0.8349
    3MOL   C493 1777   0.735   7.583   2.532 -0.4737 -0.1065  0.3559
    3MOL   C494 1778   0.648   7.584   2.406 -0.0162 -0.4251 -0.2174
    3MOL   N495 1779   0.729   7.568   2.287  0.8103 -0.3956  0.5974
    3MOL   H496 1780   0.850   7.177   3.404  1.6892 -0.9902 -0.6918
    3MOL   H497 1781   0.912   7.329   3.414  1.1629  0.0766  0.4082
    3MOL   H498 1782   1.008   7.226   3.157  0.9207 -0.0675  1.2674
    3MOL   H499 1783   0.862   7.151   3.187  0.4289  0.0974 -0.8479
    3MOL   H500 1784   0.881   7.458   3.203 -0.5788 -1.1967  0.0321
    3MOL   H501 1785   0.734   7.373   3.220 -1.2420  0.8516 -0.4389
    3MOL   H502 1786   0.758   7.283   2.972  0.6666 -0.9799  0.2756
    3MOL   H503 1787   0.911   7.380   2.966 -0.2613  2.1361 -0.4674
    3MOL   H504 1788   0.881   7.510   2.814  0.1107 -0.2859 -0.4799
    3MOL   H505 1789   0.820   0.029   2.741  0.6806 -0.3844  0.4501
    3MOL   H506 1790   0.680   0.027   2.855  1.5313  0.2729  0.2535
    3MOL   H507 1791   0.579   7.550   2.687 -1.3442  1.6712  1.0123
    3MOL   H508 1792   0.589   0.007   2.633  0.8273  0.3204 -2.1277
    3MOL   H509 1793   0.794   7.492   2.549 -1.2114 -0.7175 -0.3258
    3MOL   H510 1794   0.820   7.652   2.531  1.1885 -2.0859 -0.0513
    3MOL   H511 1795   0.589   7.674   2.387  0.8944  0.4016  0.7153
    3MOL   H512 1796   0.582   7.498   2.412 -2.2009  0.9841 -2.9345
    3MOL   H513 1797   0.824   7.601   2.293  0.9452 -0.8911  1.2459
    3MOL   C514 1798   0.693   7.514   2.171  0.3170 -0.0624 -0.1327
    3MOL   O515 1799   0.578   7.468   2.153  0.1084  0.4466  0.0889
    3MOL   C516 1800   0.797   7.511   2.064  0.1210 -0.2812  0.2277
    3MOL   C517 1801   0.733   7.556   1.929 -1.0748  0.3329  0.6509
    3MOL   C518 1802   0.837   7.535   1.814 -0.3712 -0.8078 -0.4416
    3MOL   C519 1803   0.768   7.554   1.682 -0.1202 -0.2344 -0.6423
    3MOL   C520 1804   0.778   7.697   1.635  0.3241 -0.2090 -0.3272
    3MOL   O521 1805   0.758   0.088   1.711 -0.3520  0.0850 -0.3080
    3MOL   N522 1806   0.801   0.023   1.509  0.0304  0.0268  0.7876
    3MOL   C523 1807   0.812   0.152   1.445  0.6415  0.0704  0.6497
    3MOL   C524 1808   0.682   0.199   1.390 -0.7435  0.8270 -0.4873
    3MOL   C525 1809   0.691   0.330   1.316  0.1230 -0.6724 -0.4114
    3MOL   C526 1810   0.559   0.391   1.259 -0.4479 -0.1010  1.0606
    3MOL   N527 1811   0.491   0.290   1.182  0.3516 -0.9528  0.2928
    3MOL   H528 1812   0.872   7.584   2.096 -2.0802  2.2209 -0.2352
    3MOL   H529 1813   0.844   7.412   2.067  0.3048 -0.2990 -2.4382
    3MOL   H530 1814   0.651   7.485   1.921  0.8899 -1.7429 -2.6585
    3MOL   H531 1815   0.701   7.660   1.934 -3.1275 -0.3782  3.6330
    3MOL   H532 1816   0.887   7.438   1.810  0.8843 -0.2104  0.5260
    3MOL   H533 1817   0.913   7.613   1.818  2.7777 -3.4826 -4.2344
    3MOL   H534 1818   0.668   7.510   1.683 -0.5958  0.8498  1.4005
    3MOL   H535 1819   0.820   7.498   1.605  0.9146 -0.3244  0.1126
    3MOL   H536 1820   0.835   7.652   1.447  1.4007  1.5879 -0.3577
    3MOL   H537 1821   0.895   0.159   1.374  0.0287  1.0645  0.0138
    3MOL   H538 1822   0.840   0.225   1.522  0.5282 -0.1556  0.9051
    3MOL   H539 1823   0.621   0.125   1.339  0.5627 -0.7286  0.1315
    3MOL   H540 1824   0.632   0.228   1.482 -0.9029 -0.2121 -0.2391
    3MOL   H541 1825   0.763   0.323   1.234  0.2434  0.5549 -0.4248
    3MOL   H542 1826   0.724   0.406   1.387 -0.0303  1.6644 -2.7565
    3MOL   H543 1827   0.575   0.487   1.210  0.4013 -0.8436 -0.1823
    3MOL   H544 1828   0.506   0.436   1.342  0.1708 -1.6369  2.3042
    3MOL   H545 1829   0.419   0.242   1.234 -2.8053  0.9980 -2.0935
    3MOL   C546 1830   0.509   0.259   1.052 -0.8504  0.3185  0.5173
    3MOL   O547 1831   0.585   0.324   0.986  0.0266 -0.0159 -0.1924
    3MOL   C548 1832   0.417   0.146   0.992  0.1117 -0.0897  0.0269
    3MOL   C549 1833   0.366   0.173   0.853 -0.0128 -0.1335  1.3005
    3MOL   C550 1834   0.273   0.292   0.834 -0.1705 -0.0278  0.1504
    3MOL   C551 1835   0.160   0.276   0.726  0.6113 -0.2375 -0.2177
    3MOL   C552 1836   0.043   0.378   0.747  0.2551  0.1977  0.1131
    3MOL   O553 1837   7.687   0.387   0.854  0.2816 -0.8530  0.0543
    3MOL   N554 1838   0.015   0.454   0.640  0.1227  0.2440  0.0800
    3MOL   C555 1839   7.613   0.554   0.642 -0.1609  0.9448 -0.1867
    3MOL   C556 1840   7.659   0.703   0.659  0.3623  0.1310 -0.1466
    3MOL   C557 1841   0.112   0.720   0.628 -0.2664 -0.1889 -0.3622
    3MOL   C558 1842   0.161   0.862   0.606 -0.2657 -0.3118  0.9211
    3MOL   N559 1843   0.305   0.871   0.566 -0.1795 -0.6063 -0.5865
    3MOL   H560 1844   0.460   0.047   1.003  0.9634  0.5128  2.5526
    3MOL   H561 1845   0.331   0.137   1.057 -1.0040 -1.6759 -1.6269
    3MOL   H562 1846   0.455   0.176   0.789 -1.3183 -0.5706 -0.6009
    3MOL   H563 1847   0.315   0.083   0.820  0.0619  1.4288 -3.5609
    3MOL   H564 1848   0.323   0.388   0.827 -0.1217 -0.1249 -0.9157
    3MOL   H565 1849   0.239   0.297   0.937  0.0554 -0.3028  0.2378
    3MOL   H566 1850   0.138   0.169   0.732  1.9157 -0.6184 -1.7356
    3MOL   H567 1851   0.201   0.282   0.625  0.1493  1.1644 -0.3285
    3MOL   H568 1852   0.051   0.420   0.552 -0.2389  0.4069 -0.1329
    3MOL   H569 1853   7.532   0.535   0.712  0.8025 -1.4081  0.3315
    3MOL   H570 1854   7.572   0.535   0.542  0.2167  2.9309 -0.7444
    3MOL   H571 1855   7.599   0.776   0.606  0.9267 -0.2839 -1.3878
    3MOL   H572 1856   7.637   0.730   0.763 -3.9520 -0.8702 -0.7054
    3MOL   H573 1857   0.137   0.668   0.536 -0.1434 -1.5496  0.4255
    3MOL   H574 1858   0.174   0.674   0.705  3.4398  2.5195 -1.5929
    3MOL   H575 1859   0.154   0.910   0.704 -1.3652  0.7105  0.3562
    3MOL   H576 1860   0.091   0.916   0.543 -1.3230 -2.2396  0.4036
    3MOL   H577 1861   0.365   0.807   0.617 -0.5036  1.5717  2.6763
    3MOL   C578 1862   0.343   0.933   0.452 -0.0712 -0.4895 -0.2564
    3MOL   O579 1863   0.267   0.996   0.380  0.6868  0.1073  0.8743
    3MOL   C580 1864   0.492   0.917   0.421  0.0061 -0.8419 -0.0025
    3MOL   C581 1865   0.561   1.040   0.372 -0.2878 -0.1703 -0.4987
    3MOL   C582 1866   0.718   1.029   0.359  0.2019 -0.4818  0.5868
    3MOL   C583 1867   0.806   1.039   0.480  0.5508 -0.2214  0.0754
    3MOL   C584 1868   0.778   1.156   0.576  0.6403  0.0678  0.0241
    3MOL   O585 1869   0.793   1.271   0.530  0.2381 -0.0316  0.3753
    3MOL   N586 1870   0.728   1.136   0.700 -0.1434 -0.1291  0.1212
    3MOL   C587 1871   0.703   1.011   0.766 -0.7461  0.2913 -0.1441
    3MOL   C588 1872   0.827   0.967   0.852 -0.1998  0.0616  0.3864
    3MOL   C589 1873   0.824   0.829   0.919 -0.1765  0.2546 -0.3555
    3MOL   C590 1874   0.843   0.715   0.817  0.2034  0.0515  0.1367
    3MOL   N591 1875   0.985   0.684   0.802  0.6366 -0.3544 -0.2931
    3MOL   H592 1876   0.542   0.878   0.510 -0.7552  1.3035  1.4059
    3MOL   H593 1877   0.500   0.844   0.340  2.2112 -0.5168 -0.1241
    3MOL   H594 1878   0.529   1.077   0.274 -0.9975  0.6414  0.0310
    3MOL   H595 1879   0.540   1.130   0.429  1.1185 -0.2160  0.1121
    3MOL   H596 1880   0.746   1.110   0.292  1.1362  0.3978  2.0148
    3MOL   H597 1881   0.740   0.936   0.306  1.5043 -2.4386  4.3791
    3MOL   H598 1882   0.911   1.049   0.452  0.4921 -1.0743 -0.4717
    3MOL   H599 1883   0.801   0.945   0.536 -1.2929  0.2527  0.7343
    3MOL   H600 1884   0.726   1.215   0.762 -0.8345  1.3363 -1.7137
    3MOL   H601 1885   0.684   0.934   0.691  1.6637 -0.4990  0.0202
    3MOL   H602 1886   0.617   1.018   0.833 -1.8341 -1.0166 -1.3476
    3MOL   H603 1887   0.915   0.966   0.789 -1.1143 -0.8937 -0.9124
    3MOL   H604 1888   0.858   1.039   0.928  0.5928  0.0016  0.1199
    3MOL   H605 1889   0.731   0.808   0.971  0.4435 -0.9777  0.2689
    3MOL   H606 1890   0.894   0.832   1.003  0.8005  0.0883 -1.1480
    3MOL   H607 1891   0.794   0.742   0.724 -1.0039  0.2726  0.8292
    3MOL   H608 1892   0.810   0.616   0.849 -1.0780  0.7482  0.9861
    3MOL   H609 1893   1.057   0.755   0.799  0.2163  0.1506  1.0505
    3MOL   C610 1894   1.022   0.577   0.730  0.2466 -0.0025  0.6700
    3MOL   O611 1895   0.955   0.482   0.701  0.0414 -0.7024 -0.2892
    3MOL   C612 1896   1.155   0.599   0.655  0.6184 -0.0774 -0.0094
    3MOL   C613 1897   1.222   0.468   0.621  0.3024  0.8257  0.3715
    3MOL   C614 1898   1.372   0.488   0.583 -0.0374 -0.5434  0.1300
    3MOL   C615 1899   1.405   0.571   0.463 -0.0799 -0.3762  0.3276
    3MOL   C616 1900   1.540   0.534   0.406 -0.5733  0.0156 -0.1379
    3MOL   O617 1901   1.568   0.415   0.385  0.1982  0.0287 -0.2934
    3MOL   N618 1902   1.620   0.628   0.360 -0.3560 -0.4799  0.4741
    3MOL   C619 1903   1.754   0.601   0.315  0.4813  0.6661 -0.4372
    3MOL   C620 1904   1.838   0.536   0.423 -0.3445 -0.6759  0.2504
    3MOL   C621 1905   1.860   0.621   0.548  0.1627 -0.1062  0.4703
    3MOL   C622 1906   1.952   0.552   0.649 -0.5512 -0.1120 -0.3376
    3MOL   N623 1907   1.967   0.634   0.770  0.3872  0.0021  0.2695
    3MOL   H624 1908   1.145   0.656   0.563 -1.1183 -1.4064 -0.6605
    3MOL   H625 1909   1.212   0.660   0.726 -2.6846  0.0047  2.7004
    3MOL   H626 1910   1.211   0.395   0.701 -0.7535 -0.2965 -0.7745
    3MOL   H627 1911   1.149   0.438   0.545  0.3303  1.8857 -0.0779
    3MOL   H628 1912   1.398   0.383   0.579  0.9610 -0.3665  1.4438
    3MOL   H629 1913   1.417   0.540   0.668 -2.3914  1.0324  0.4724
    3MOL   H630 1914   1.391   0.677   0.484  1.3537 -0.3551  1.1908
    3MOL   H631 1915   1.342   0.535   0.381 -0.1028 -2.2223  1.1190
    3MOL   H632 1916   1.593   0.726   0.366 -1.3886 -0.6419 -1.3562
    3MOL   H633 1917   1.791   0.702   0.297  2.2490 -0.0126 -0.7292
    3MOL   H634 1918   1.740   0.544   0.223 -0.9748  1.8147 -0.9359
    3MOL   H635 1919   1.804   0.436   0.451 -0.4812 -0.5948  0.3760
    3MOL   H636 1920   1.932   0.519   0.370 -0.0301 -1.7243  1.1277
    3MOL   H637 1921   1.767   0.648   0.596  0.5167  0.4607  0.8458
    3MOL   H638 1922   1.911   0.711   0.513  1.2937 -0.4658  1.1661
    3MOL   H639 1923   2.050   0.538   0.603 -1.8972 -0.1732 -3.3225
    3MOL   H640 1924   1.923   0.451   0.677  0.1344  0.3023  2.0043
    3MOL   H641 1925   1.999   0.727   0.747 -2.2452 -0.2060 -5.0886
    3MOL   H642 1926   1.877   0.657   0.810  0.6041  0.0974  0.7018
    4MOL     C1 1927   7.559   1.360   2.786  0.9793  0.7620 -0.1411
    4MOL     O2 1928   7.540   1.281   2.882 -0.4628  0.1578 -0.0804
    4MOL     C3 1929   7.699   1.399   2.729 -0.7530  0.0565 -0.3918
    4MOL     C4 1930   0.110   1.403   2.837  0.1735  0.0462  0.2679
    4MOL     C5 1931   0.087   1.486   2.958 -0.4506  0.8828  0.0702
    4MOL     C6 1932   0.093   1.635   2.932 -0.7911  0.0101  0.8151
    4MOL     C7 1933   0.089   1.711   3.066  0.6572  0.2737  0.1649
    4MOL     O8 1934   0.037   1.663   3.167  0.3360 -0.0689 -0.3400
    4MOL     N9 1935   0.157   1.825   3.064  0.3334 -0.4456  0.6798
    4MOL    C10 1936   0.188   1.890   3.186  0.0076  0.3407 -0.2939
    4MOL    C11 1937   0.338   1.870   3.236  0.5430  0.2384 -0.1258
    4MOL    C12 1938   0.343   1.923   3.374 -0.0983  0.0273  0.0734
    4MOL    C13 1939   0.481   1.926   3.437  0.0083 -0.2206  0.2118
    4MOL    N14 1940   0.464   1.967   3.574  0.3942 -0.6010 -0.0094
    4MOL    H15 1941   0.023   1.330   2.648  0.0755  0.0333 -0.1222
    4MOL    H16 1942   7.692   1.497   2.683 -1.4167  0.4629  0.5709
    4MOL    H17 1943   0.130   1.307   2.885 -0.6948 -1.0581 -1.5088
    4MOL    H18 1944   0.203   1.434   2.789  1.9310 -2.1775  2.0811
    4MOL    H19 1945   0.141   1.460   3.050  3.7428 -0.9361 -2.7360
    4MOL    H20 1946   7.692   1.460   3.001 -0.4325  0.2348 -0.2845
    4MOL    H21 1947   0.008   1.657   2.868  1.0211 -1.2088 -2.1209
    4MOL    H22 1948   0.183   1.664   2.878 -1.4382 -1.1835 -0.9396
    4MOL    H23 1949   0.201   1.846   2.976 -0.3074 -1.0047  0.2238
    4MOL    H24 1950   0.135   1.857   3.276  0.3354  0.7758  0.0650
    4MOL    H25 1951   0.152   1.992   3.196 -1.0045  0.0000 -0.4090
    4MOL    H26 1952   0.366   1.765   3.243  0.1881  0.3006  2.8385
    4MOL    H27 1953   0.410   1.925   3.176  1.9242  0.0322  1.2951
    4MOL    H28 1954   0.284   1.853   3.434 -1.5524  1.2889  0.1605
    4MOL    H29 1955   0.296   2.021   3.386 -2.9314 -1.4208  1.2987
    4MOL    H30 1956   0.538   2.006   3.390 -0.1084 -0.0387  0.3798
    4MOL    H31 1957   0.537   1.833   3.430 -0.1665 -0.2767 -0.4657
    4MOL    H32 1958   0.376   1.952   3.622  0.0454 -0.3350 -0.5660
    4MOL    H33 1959   7.485   1.416   2.728  2.7510  2.5396 -0.7671
    4MOL    C34 1960   0.553   2.038   3.646  0.4661  0.0412  0.6255
    4MOL    O35 1961   0.662   2.076   3.600 -0.3705  0.0721  0.3979
    4MOL    C36 1962   0.514   2.069   3.791  0.4542 -0.4997  0.3017
    4MOL    C37 1963   0.626   2.073   3.893  0.2427  0.1395  0.0690
    4MOL    C38 1964   0.694   1.943   3.905  0.0619 -0.5167  0.2710
    4MOL    C39 1965   0.633   1.864   4.020  1.1627 -0.0626  0.0560
    4MOL    C40 1966   0.648   1.706   4.006  0.6901  0.1256  0.2955
    4MOL    O41 1967   0.718   1.656   3.921 -0.0988 -0.3042  0.0205
    4MOL    N42 1968   0.579   1.635   4.098  0.1931 -0.3579 -0.2561
    4MOL    C43 1969   0.636   1.517   4.168 -0.7508  0.3274  0.2800
    4MOL    C44 1970   0.530   1.406   4.195  0.6238  0.2079  0.4180
    4MOL    C45 1971   0.588   1.268   4.235  0.2415 -0.3701 -0.0165
    4MOL    C46 1972   0.486   1.171   4.290 -0.3678 -0.2387  0.5256
    4MOL    N47 1973   0.417   1.101   4.182 -0.2126  0.0187  0.0410
    4MOL    H48 1974   0.455   2.160   3.793 -0.3648 -0.9559 -1.7203
    4MOL    H49 1975   0.447   1.986   3.814  0.8494 -0.0105  3.3696
    4MOL    H50 1976   0.701   2.145   3.862  0.6238  0.0077  0.6806
    4MOL    H51 1977   0.585   2.108   3.988 -1.0377  1.0520 -0.8090
    4MOL    H52 1978   0.799   1.966   3.927 -0.2563  0.1720  1.0705
    4MOL    H53 1979   0.696   1.885   3.813  1.9896  0.7531 -0.5358
    4MOL    H54 1980   0.524   1.871   4.026  1.0362 -3.1388  3.3804
    4MOL    H55 1981   0.657   1.898   4.121 -1.1140  0.1771  0.5582
    4MOL    H56 1982   0.523   1.698   4.153  1.8036  1.6707 -0.8573
    4MOL    H57 1983   0.687   1.544   4.260 -2.0296 -0.2483  1.1625
    4MOL    H58 1984   0.708   1.474   4.098 -2.7160 -1.7804 -0.5075
    4MOL    H59 1985   0.465   1.443   4.274 -0.7025 -0.5983 -0.2683
    4MOL    H60 1986   0.482   1.385   4.099  0.7446 -2.8145  0.9876
    4MOL    H61 1987   0.646   1.294   4.325 -1.2101 -0.3841  0.9300
    4MOL    H62 1988   0.653   1.226   4.159  0.3175  0.9403 -0.6977
    4MOL    H63 1989   0.416   1.225   4.354 -0.7900 -0.4674  0.2565
    4MOL    H64 1990   0.530   1.093   4.352  0.9434 -0.8719 -1.1662
    4MOL    H65 1991   0.472   1.097   4.097  0.5186  2.6403  0.3439
    4MOL    C66 1992   0.303   1.031   4.191 -0.7630  0.5788  0.4490
    4MOL    O67 1993   0.232   1.027   4.292 -0.5547 -0.0839 -0.0838
    4MOL    C68 1994   0.258   0.955   4.060 -0.3252  0.7445  0.3174
    4MOL    C69 1995   0.108   0.952   4.046  0.4781  0.6308  0.3045
    4MOL    C70 1996   0.045   1.059   3.955 -0.3847  0.4595  0.2789
    4MOL    C71 1997   0.043   1.193   4.013  0.4557 -0.7064 -0.0834
    4MOL    C72 1998   7.656   1.206   4.134  0.4705  0.3508 -0.2541
    4MOL    O73 1999   7.534   1.222   4.110 -0.5786 -0.2157  0.1587
    4MOL    N74 2000   0.006   1.186   4.256  0.3752  0.1432  0.5992
    4MOL    C75 2001   7.634   1.192   4.379 -1.0037  0.1519  0.3177
    4MOL    C76 2002   0.019   1.173   4.506  0.3710 -0.0324  0.6695
    4MOL    C77 2003   7.650   1.182   4.645  0.0187 -0.3024  0.5078
    4MOL    C78 2004   0.047   1.158   4.763  0.0217  0.2834  0.4313
    4MOL    N79 2005   7.691   1.197   4.891  0.2044 -0.5104 -0.6569
    4MOL    H80 2006   0.299   1.003   3.972 -2.1644  1.1614 -0.3235
    4MOL    H81 2007   0.297   0.853   4.068 -2.7304 -0.5232 -2.8909
    4MOL    H82 2008   0.079   0.852   4.014 -1.2715  1.7142 -1.6648
    4MOL    H83 2009   0.058   0.950   4.143  2.2534 -1.0623  1.1908
    4MOL    H84 2010   7.651   1.013   3.931  0.2031 -0.8506  0.3748
    4MOL    H85 2011   0.091   1.080   3.859 -0.2780 -3.9153 -0.7072
    4MOL    H86 2012   0.016   1.261   3.932  0.1465  1.9805  2.2131
    4MOL    H87 2013   0.139   1.227   4.051  0.0905 -0.1744  0.3703
    4MOL    H88 2014   0.104   1.167   4.266  0.9732  2.7000  0.0879
    4MOL    H89 2015   7.547   1.128   4.387 -0.7623 -0.2846 -0.5028
    4MOL    H90 2016   7.594   1.293   4.380 -2.1331 -0.2881 -0.5159
    4MOL    H91 2017   0.076   1.081   4.509 -0.6586 -0.6791  0.7901
    4MOL    H92 2018   0.098   1.247   4.500  1.8218 -1.5631  0.6391
    4MOL    H93 2019   7.570   1.109   4.658  0.1569 -0.7788 -1.1961
    4MOL    H94 2020   7.613   1.284   4.651  2.6473  0.6632  1.0671
    4MOL    H95 2021   0.129   1.229   4.750 -0.7864  1.1635  0.0172
    4MOL    H96 2022   0.100   1.063   4.767  0.9823  0.8161  0.6067
    4MOL    H97 2023   7.608   1.146   4.917  1.6098 -1.6989  1.5815
    4MOL    C98 2024   0.046   1.263   4.990 -0.1884 -0.9550 -0.1067
    4MOL    O99 2025   0.169   1.283   4.994 -0.1720  0.1053  0.4487
    4MOL   C100 2026   7.661   1.307   5.104 -0.4105  0.6403 -0.3809
    4MOL   C101 2027   0.036   1.332   5.235 -0.0136 -0.0148  0.4407
    4MOL   C102 2028   7.647   1.391   5.344  0.0191 -0.3215  0.3238
    4MOL   C103 2029   0.022   1.452   5.467 -0.2889 -0.8964 -0.3057
    4MOL   C104 2030   7.623   1.483   5.585 -0.1351  0.1160  0.2742
    4MOL   O105 2031   7.505   1.487   5.565 -0.4900  0.0014  0.3498
    4MOL   N106 2032   7.670   1.494   5.707 -0.4094  0.0321  0.0397
    4MOL   C107 2033   7.586   1.512   5.828 -0.7414 -0.1443  0.6683
    4MOL   C108 2034   7.561   1.664   5.873 -0.0542  0.1246  0.1214
    4MOL   C109 2035   7.680   1.764   5.871  0.0923 -0.1643  0.3085
    4MOL   C110 2036   0.078   1.719   5.988 -0.5016 -0.2240 -0.1646
    4MOL   N111 2037   0.198   1.782   5.966  0.4222  0.8034  0.2124
    4MOL   H112 2038   7.621   1.406   5.081 -0.5453  0.2002 -2.1327
    4MOL   H113 2039   7.581   1.234   5.114 -0.4447  0.8095  0.5999
    4MOL   H114 2040   0.080   1.240   5.274 -1.1611 -0.1514  1.4661
    4MOL   H115 2041   0.124   1.394   5.220 -1.7475  2.1552 -1.2243
    4MOL   H116 2042   7.589   1.303   5.374 -0.9563  0.1719 -0.0992
    4MOL   H117 2043   7.578   1.461   5.297  1.1681 -0.3784 -1.4965
    4MOL   H118 2044   0.056   1.551   5.438  0.6272 -0.0698  3.3354
    4MOL   H119 2045   0.110   1.392   5.489 -0.3602 -1.0038 -0.3117
    4MOL   H120 2046   0.062   1.460   5.725 -0.4377  0.0816  0.2868
    4MOL   H121 2047   7.643   1.467   5.909  0.8193  0.6947  0.0665
    4MOL   H122 2048   7.492   1.460   5.810 -0.6266 -0.3702  0.7131
    4MOL   H123 2049   7.479   1.708   5.815 -0.5491 -0.1964  0.5741
    4MOL   H124 2050   7.520   1.666   5.974  1.6902 -1.3815  0.8912
    4MOL   H125 2051   7.639   1.863   5.887 -0.2762 -0.1307 -0.7992
    4MOL   H126 2052   0.027   1.747   5.775  0.6380 -1.1887  0.7515
    4MOL   H127 2053   0.084   1.610   5.999 -0.1711 -0.0308  1.9623
    4MOL   H128 2054   0.046   1.761   6.083  1.6181 -0.6199  0.7605
    4MOL   H129 2055   0.188   1.882   5.955  1.2947  0.8379 -0.3482
    4MOL   C130 2056   0.315   1.734   5.992  0.4269 -0.4537 -0.6643
    4MOL   O131 2057   0.337   1.628   6.039  0.2018 -0.6097  0.1077
    4MOL   C132 2058   0.439   1.823   5.985  0.6887 -0.1395 -0.1228
    4MOL   C133 2059   0.573   1.748   5.984  0.2356  0.0646 -0.3252
    4MOL   C134 2060   0.700   1.837   5.970  0.4207  0.6953  0.0879
    4MOL   C135 2061   0.822   1.761   5.926  0.8050  0.1395 -0.0860
    4MOL   C136 2062   0.959   1.827   5.938  0.1696 -0.0958  0.0056
    4MOL   O137 2063   0.962   1.946   5.969  0.2751  0.3154 -0.2555
    4MOL   N138 2064   1.063   1.750   5.924  0.0756  0.3912  0.3311
    4MOL   C139 2065   1.193   1.803   5.937 -1.0893 -0.3793 -0.0709
    4MOL   C140 2066   1.304   1.694   5.920  0.1070 -0.0067 -0.1477
    4MOL   C141 2067   1.436   1.757   5.870  0.4010 -0.3605 -0.0369
    4MOL   C142 2068   1.535   1.653   5.825  0.5569  0.9211 -0.2602
    4MOL   N143 2069   1.481   1.571   5.717  0.1570  0.0788  0.4442
    4MOL   H144 2070   0.442   1.883   5.895  2.4229  0.1079  0.0825
    4MOL   H145 2071   0.435   1.883   6.076 -1.3436 -2.0299  1.1029
    4MOL   H146 2072   0.579   1.700   6.082  0.1143  1.0772  0.1873
    4MOL   H147 2073   0.570   1.666   5.913  0.9364  0.0498 -0.3476
    4MOL   H148 2074   0.714   1.890   6.064  0.3129  3.0380 -1.1544
    4MOL   H149 2075   0.686   1.917   5.896 -0.2599 -0.6136 -1.2237
    4MOL   H150 2076   0.799   1.742   5.821 -3.1535  1.1241  0.5190
    4MOL   H151 2077   0.827   1.661   5.969  1.7990 -0.8466 -2.4043
    4MOL   H152 2078   1.062   1.657   5.886 -0.2755  0.8719 -0.8615
    4MOL   H153 2079   1.203   1.856   6.032  3.2445 -1.8174  0.3908
    4MOL   H154 2080   1.204   1.880   5.861  0.0807 -0.7467 -0.2828
    4MOL   H155 2081   1.309   1.646   6.018  0.0357  1.0891  0.3980
    4MOL   H156 2082   1.270   1.610   5.860  0.0460  0.5065 -0.8447
    4MOL   H157 2083   1.467   1.822   5.952  1.1002 -2.3935  1.3455
    4MOL   H158 2084   1.415   1.825   5.788 -0.8701 -1.1975 -0.4088
    4MOL   H159 2085   1.557   1.590   5.911  2.5644  0.1138 -1.3240
    4MOL   H160 2086   1.632   1.694   5.798  1.0608  0.0913  0.2698
    4MOL   H161 2087   1.461   1.602   5.623  2.6448  0.6690  0.0660
    4MOL   C162 2088   1.454   1.439   5.746 -0.1665 -0.3885  1.2354
    4MOL   O163 2089   1.472   1.384   5.857  0.0394 -0.0857 -0.0722
    4MOL   C164 2090   1.405   1.351   5.638  0.4831  0.0988 -0.7981
    4MOL   C165 2091   1.283   1.266   5.678 -0.4544  0.4326 -0.3270
    4MOL   C166 2092   1.170   1.354   5.734  0.0887  1.2913 -0.3055
    4MOL   C167 2093   1.046   1.276   5.780  0.3801  0.2661 -0.0558
    4MOL   C168 2094   0.965   1.346   5.890 -0.3042  0.5039  0.0215
    4MOL   O169 2095   0.987   1.464   5.920 -0.3516 -0.6087 -0.3074
    4MOL   N170 2096   0.868   1.275   5.944 -0.6349  0.3173  0.4579
    4MOL   C171 2097   0.784   1.328   6.054 -0.7296 -0.6095  0.7016
    4MOL   C172 2098   0.674   1.227   6.080 -0.1830  0.9023 -0.2185
    4MOL   C173 2099   0.573   1.275   6.186 -0.5418  0.3117  0.2354
    4MOL   C174 2100   0.624   1.271   6.330 -0.2950 -0.0000 -0.0720
    4MOL   N175 2101   0.525   1.319   6.423 -0.2186 -0.4108  0.3641
    4MOL   H176 2102   1.374   1.413   5.555 -1.2087 -2.4506 -2.1459
    4MOL   H177 2103   1.489   1.291   5.603 -0.3395 -2.0147  0.7347
    4MOL   H178 2104   1.251   1.231   5.580  0.0696  1.4892 -0.8776
    4MOL   H179 2105   1.304   1.189   5.752 -1.9384  0.7839  0.4959
    4MOL   H180 2106   1.145   1.440   5.671 -2.5588 -0.6394 -1.9784
    4MOL   H181 2107   1.211   1.393   5.828 -0.8459  0.7782  0.3139
    4MOL   H182 2108   1.086   1.179   5.808  1.0870  0.7085  0.5108
    4MOL   H183 2109   0.984   1.263   5.692  0.0700  1.9484 -0.0994
    4MOL   H184 2110   0.860   1.180   5.911  0.5613 -0.1201  1.3857
    4MOL   H185 2111   0.742   1.423   6.021  1.1406  0.7676  2.1672
    4MOL   H186 2112   0.841   1.346   6.145 -2.7903  0.2569  1.8668
    4MOL   H187 2113   0.628   1.209   5.983  1.0028  1.3377 -0.8856
    4MOL   H188 2114   0.710   1.129   6.110  0.5142  2.0575  2.9567
    4MOL   H189 2115   0.481   1.217   6.191 -0.0134 -0.6627 -1.0052
    4MOL   H190 2116   0.541   1.373   6.151 -1.0635  0.6286  1.5991
    4MOL   H191 2117   0.724   1.313   6.328 -0.9784  1.6278 -0.8971
    4MOL   H192 2118   0.639   1.166   6.356  1.0784  0.8752  2.7965
    4MOL   H193 2119   0.457   1.255   6.461 -0.1627 -1.3232 -1.0464
    4MOL   C194 2120   0.500   1.446   6.449 -0.1204  0.0858 -0.1536
    4MOL   O195 2121   0.570   1.537   6.398 -0.3693  0.1530 -0.1358
    4MOL   C196 2122   0.387   1.476   6.549 -0.1390  0.0578  0.8417
    4MOL   C197 2123   0.261   1.519   6.480  0.2127 -0.1319 -0.2914
    4MOL   C198 2124   0.127   1.533   6.560 -0.1987 -0.2555  0.0547
    4MOL   C199 2125   0.101   1.666   6.623 -0.1291 -0.0666 -0.6012
    4MOL   C200 2126   0.205   1.725   6.723 -0.0249  0.3187 -0.1194
    4MOL   O201 2127   0.278   1.648   6.790  0.1408 -0.6329  0.5067
    4MOL   N202 2128   0.209   1.862   6.737  0.0748  0.2764 -0.5187
    4MOL   C203 2129   0.315   1.933   6.809 -0.2105  0.0089 -0.0070
    4MOL   C204 2130   0.262   2.073   6.831  0.1450  0.0605  0.2535
    4MOL   C205 2131   0.356   2.150   6.926  0.9492  0.5018 -0.3537
    4MOL   C206 2132   0.312   2.299   6.942  0.0523  0.0731 -0.7106
    4MOL   N207 2133   0.187   2.310   7.016 -0.5493  0.9115  0.5702
    4MOL   H208 2134   0.374   1.390   6.615  3.3146  0.0429  1.6257
    4MOL   H209 2135   0.430   1.559   6.606 -0.3283 -1.0605  2.6882
    4MOL   H210 2136   0.290   1.614   6.436 -0.3056 -0.6846 -1.8423
    4MOL   H211 2137   0.240   1.453   6.396 -2.8918  4.8472 -3.7328
    4MOL   H212 2138   0.134   1.460   6.640  0.6619  0.4410  0.6272
    4MOL   H213 2139   0.039   1.516   6.498 -1.2481 -0.6628  1.6327
    4MOL   H214 2140   7.700   1.678   6.661  0.4102 -2.0285  1.6190
    4MOL   H215 2141   0.105   1.739   6.543 -1.3752  0.8798  0.1703
    4MOL   H216 2142   0.138   1.916   6.688 -0.7484 -0.0230  0.3185
    4MOL   H217 2143   0.412   1.940   6.760 -0.6063  3.9932 -0.3689
    4MOL   H218 2144   0.335   1.897   6.910  0.2286 -1.6469 -0.6737
    4MOL   H219 2145   0.261   2.121   6.733 -0.1868 -1.8479 -0.7055
    4MOL   H220 2146   0.157   2.075   6.862 -0.1424  0.9333 -0.7453
    4MOL   H221 2147   0.456   2.151   6.885  1.0018 -1.1058 -0.3106
    4MOL   H222 2148   0.352   2.112   7.028  0.0079  0.6918 -0.3110
    4MOL   H223 2149   0.315   2.344   6.842  1.2895 -2.3599 -1.8177
    4MOL   H224 2150   0.389   2.355   6.995 -0.5404  2.9876 -2.7941
    4MOL   H225 2151   0.166   2.241   7.087  0.9739  0.3262  0.4712
    4MOL   C226 2152   0.088   2.394   6.985  0.2418 -1.2034  0.0173
    4MOL   O227 2153   0.095   2.478   6.900  0.0449  1.1874  0.3367
    4MOL   C228 2154   7.655   2.383   7.065 -0.0605 -0.1336  0.5522
    4MOL   C229 2155   7.644   2.273   7.169 -0.0710  0.2990  0.2847
    4MOL   C230 2156   7.643   2.124   7.120  0.1534 -0.1433  0.8562
    4MOL   C231 2157   7.689   2.015   7.219 -0.1188  0.3987  0.2297
    4MOL   C232 2158   0.136   1.981   7.227  0.4555 -0.6673 -0.8610
    4MOL   O233 2159   0.211   2.076   7.253 -0.5584 -0.1358 -0.8495
    4MOL   N234 2160   0.170   1.856   7.212  0.0660 -0.3848 -0.3684
    4MOL   C235 2161   0.312   1.828   7.198 -0.7087 -0.2608 -0.1195
    4MOL   C236 2162   0.331   1.681   7.151  0.4792 -0.3670  0.6864
    4MOL   C237 2163   0.328   1.567   7.256  0.5479  0.1296  0.2533
    4MOL   C238 2164   0.190   1.543   7.328  0.0487 -0.3662 -0.7865
    4MOL   N239 2165   0.090   1.492   7.236 -0.4326 -0.0254  0.7678
    4MOL   H240 2166   7.617   2.478   7.102 -1.2623 -0.4209  0.0800
    4MOL   H241 2167   7.576   2.362   6.993 -1.0254  0.0399  1.5547
    4MOL   H242 2168   0.037   2.288   7.223 -2.5026  1.7941  4.3336
    4MOL   H243 2169   7.567   2.289   7.244 -0.8903 -1.8022 -0.0888
    4MOL   H244 2170   0.017   2.115   7.042 -0.2718 -2.7568  0.6952
    4MOL   H245 2171   7.549   2.093   7.075 -0.0752  0.9211  0.5774
    4MOL   H246 2172   7.626   1.928   7.199  0.0379  0.7497 -1.9971
    4MOL   H247 2173   7.658   2.043   7.319 -0.4167  1.0188 -0.0297
    4MOL   H248 2174   0.102   1.783   7.195 -0.3057  0.3412 -2.1410
    4MOL   H249 2175   0.350   1.840   7.300 -1.5995  0.3260  0.1408
    4MOL   H250 2176   0.357   1.905   7.136  1.8488 -0.9987  0.7590
    4MOL   H251 2177   0.276   1.655   7.060 -0.4829 -2.2948  1.7825
    4MOL   H252 2178   0.435   1.686   7.117  0.1292 -2.2628 -0.7330
    4MOL   H253 2179   0.395   1.600   7.335  0.8897 -0.8302  0.3659
    4MOL   H254 2180   0.364   1.475   7.211  0.1837  0.4293 -0.6575
    4MOL   H255 2181   0.154   1.630   7.383 -0.3642 -1.4305  0.6451
    4MOL   H256 2182   0.206   1.451   7.384  1.1067  0.1317 -0.2338
    4MOL   H257 2183   0.096   1.394   7.215 -1.5578  0.2360 -0.8823
    4MOL   C258 2184   7.687   1.552   7.173 -0.1053 -0.0351 -0.5919
    4MOL   O259 2185   7.663   1.672   7.185  0.0288  0.1687 -0.1377
    4MOL   C260 2186   7.596   1.466   7.093  0.0633  0.2281  0.1051
    4MOL   C261 2187   7.565   1.503   6.945 -0.7505  0.3338 -0.6400
    4MOL   C262 2188   7.485   1.383   6.875  0.0426  0.0247 -0.0689
    4MOL   C263 2189   7.437   1.422   6.735 -0.0014  0.4386 -0.5067
    4MOL   C264 2190   7.352   1.309   6.674  0.1551 -0.6966  0.5525
    4MOL   O265 2191   7.403   1.198   6.653  0.4293  0.3279  0.4053
    4MOL   N266 2192   7.220   1.338   6.651 -0.7500 -0.3683 -0.5324
    4MOL   C267 2193   7.119   1.236   6.636 -0.6554 -0.6151 -0.2454
    4MOL   C268 2194   7.133   1.184   6.494  0.9737  0.1571 -0.0789
    4MOL   C269 2195   7.037   1.069   6.460 -0.2527 -0.0050  0.1625
    4MOL   C270 2196   7.002   1.066   6.305 -0.4178  0.0194  0.2225
    4MOL   N271 2197   6.941   1.192   6.260 -0.5918  0.0176 -0.2128
    4MOL   H272 2198   7.626   1.362   7.094 -0.4477  0.0791 -0.0421
    4MOL   H273 2199   7.496   1.467   7.137  0.9393 -1.7776  2.2144
    4MOL   H274 2200   7.488   1.580   6.944 -1.9929 -0.8679 -0.2526
    4MOL   H275 2201   7.652   1.525   6.884  0.4559 -0.8550  0.6107
    4MOL   H276 2202   7.399   1.343   6.929  0.0376  2.1603  1.5686
    4MOL   H277 2203   7.559   1.304   6.864  1.0982  1.0725 -0.5613
    4MOL   H278 2204   7.527   1.446   6.679  0.2825 -0.1050 -0.2846
    4MOL   H279 2205   7.379   1.514   6.738 -0.0788  0.3513  2.1570
    4MOL   H280 2206   7.190   1.428   6.684  4.6509  1.9537 -1.2963
    4MOL   H281 2207   7.016   1.253   6.665  0.3908  0.9988  2.6455
    4MOL   H282 2208   7.143   1.161   6.711 -0.7074  0.1282  0.5158
    4MOL   H283 2209   7.122   1.266   6.424  0.1451 -1.5069 -1.9245
    4MOL   H284 2210   7.235   1.148   6.482  1.2951  1.2596 -0.7256
    4MOL   H285 2211   6.939   1.096   6.500 -0.7972 -1.3839 -0.1977
    4MOL   H286 2212   7.075   0.974   6.500 -0.3990  0.3177  1.0819
    4MOL   H287 2213   6.937   0.980   6.286  0.1326 -0.6193  1.1605
    4MOL   H288 2214   7.094   1.041   6.253  0.1831  0.6102  0.9905
    4MOL   H289 2215   6.881   1.230   6.331  1.4488  0.3395  1.3825
    4MOL   C290 2216   6.966   1.250   6.140  0.8215 -0.4629 -0.9255
    4MOL   O291 2217   7.051   1.208   6.067 -0.1749  0.6449  0.5188
    4MOL   C292 2218   6.884   1.367   6.094 -0.4017 -0.1294  0.5373
    4MOL   C293 2219   6.973   1.479   6.024 -0.9676 -0.0631  0.5269
    4MOL   C294 2220   7.015   1.451   5.876  0.0836 -0.4146  0.1726
    4MOL   C295 2221   7.097   1.569   5.809  0.4152  0.0421  0.5051
    4MOL   C296 2222   7.009   1.690   5.794 -0.1676 -0.2119  0.3567
    4MOL   O297 2223   6.921   1.709   5.701 -0.1861  0.6655  0.0762
    4MOL   N298 2224   7.036   1.780   5.886  0.0715  0.3533 -0.0742
    4MOL   C299 2225   6.993   1.916   5.887 -0.0598  0.0863  0.5203
    4MOL   C300 2226   6.927   1.939   6.019  0.5157 -0.0321  0.1616
    4MOL   C301 2227   6.873   2.081   6.022  0.6357  0.0845 -0.2527
    4MOL   C302 2228   6.809   2.132   6.156 -0.5784 -0.3273  0.4835
    4MOL   N303 2229   6.694   2.054   6.182  0.2661  0.2329  0.3281
    4MOL   H304 2230   6.807   1.335   6.024  1.3731  0.1780 -1.6001
    4MOL   H305 2231   6.833   1.418   6.175  2.2634  2.1340  0.8610
    4MOL   H306 2232   6.914   1.570   6.023  0.8024  1.0851 -0.3281
    4MOL   H307 2233   7.071   1.494   6.069 -0.9606 -0.6582  0.7186
    4MOL   H308 2234   6.927   1.441   5.812  1.0665  0.4816 -1.3696
    4MOL   H309 2235   7.080   1.364   5.869  1.2851  0.5507 -1.2445
    4MOL   H310 2236   7.121   1.541   5.707  0.2709  0.7558  0.2713
    4MOL   H311 2237   7.189   1.586   5.864 -0.5106 -0.7784  2.3588
    4MOL   H312 2238   7.106   1.766   5.958 -1.3228 -0.5395  1.1251
    4MOL   H313 2239   6.923   1.925   5.803  1.2415  0.4451 -0.5499
    4MOL   H314 2240   7.079   1.981   5.870 -0.3578  0.6279  1.0784
    4MOL   H315 2241   6.840   1.879   6.047 -0.3586  1.4158  0.6089
    4MOL   H316 2242   7.002   1.920   6.096  1.2413  0.6028 -0.3692
    4MOL   H317 2243   6.789   2.091   5.953 -0.5414 -2.2683  0.8034
    4MOL   H318 2244   6.945   2.151   5.981  0.1439  1.1004  0.5919
    4MOL   H319 2245   6.776   2.236   6.145 -3.7530 -1.4145 -0.5841
    4MOL   H320 2246   6.876   2.128   6.242  0.1121  0.1735 -0.0167
    4MOL   H321 2247   6.625   2.065   6.109 -0.9261  2.3545  1.7496
    4MOL   C322 2248   6.666   1.975   6.283 -0.0767  0.3042  0.4139
    4MOL   O323 2249   6.749   1.938   6.368  0.5027  0.5026 -0.6229
    4MOL   C324 2250   6.536   1.905   6.269  0.5502 -0.2861 -0.5321
    4MOL   C325 2251   6.439   1.952   6.375 -0.0097  0.5848 -0.1375
    4MOL   C326 2252   6.419   1.872   6.508 -0.8470 -0.4124  0.4932
    4MOL   C327 2253   6.528   1.891   6.621 -0.2785  0.7572 -0.3903
    4MOL   C328 2254   6.545   2.033   6.671  0.0587 -0.4149  0.2980
    4MOL   O329 2255   6.456   2.088   6.737 -0.1019  0.2550  0.1690
    4MOL   N330 2256   6.670   2.088   6.661  0.5613 -0.5509  0.1458
    4MOL   C331 2257   6.710   2.219   6.707 -0.3070  0.4726 -0.4032
    4MOL   C332 2258   6.790   2.289   6.601 -0.5976  0.4826 -0.1695
    4MOL   C333 2259   6.868   2.417   6.653 -0.1796 -0.3780 -0.2258
    4MOL   C334 2260   6.891   2.514   6.544 -0.0968  0.5679 -0.3515
    4MOL   N335 2261   6.766   2.575   6.500 -0.2293  0.6914  0.0404
    4MOL   H336 2262   6.489   1.923   6.173  1.5405  2.0494 -0.6000
    4MOL   H337 2263   6.553   1.797   6.272  1.4323 -0.1335  0.4069
    4MOL   H338 2264   6.480   2.049   6.404  2.4981 -0.5475  0.2883
    4MOL   H339 2265   6.339   1.960   6.332 -0.5390  1.0466  1.1418
    4MOL   H340 2266   6.423   1.771   6.469  0.5006  0.3301 -1.3905
    4MOL   H341 2267   6.318   1.898   6.539 -0.2217  3.1129 -0.2092
    4MOL   H342 2268   6.625   1.848   6.593 -1.7029 -2.5092 -0.5793
    4MOL   H343 2269   6.500   1.845   6.715  3.4269  2.0997  1.4746
    4MOL   H344 2270   6.740   2.031   6.615  1.8776  0.9280  0.2567
    4MOL   H345 2271   6.761   2.210   6.803  1.8415  3.0877 -1.2519
    4MOL   H346 2272   6.616   2.268   6.732 -1.0183 -1.3773  0.7048
    4MOL   H347 2273   6.864   2.216   6.567  0.6711  2.3686 -1.6016
    4MOL   H348 2274   6.736   2.319   6.511  0.0876  3.8747  0.5055
    4MOL   H349 2275   6.962   2.377   6.689 -0.7260 -1.7615 -0.2967
    4MOL   H350 2276   6.815   2.457   6.740  0.9672 -1.0427  0.7889
    4MOL   H351 2277   6.948   2.473   6.460 -0.2462 -1.8888  0.7022
    4MOL   H352 2278   6.959   2.590   6.582 -0.0887  1.2311 -1.6517
    4MOL   H353 2279   6.686   2.537   6.549 -1.1625  1.5161 -0.8238
    4MOL   C354 2280   6.757   2.647   6.391 -0.4744 -0.1930  0.2062
    4MOL   O355 2281   6.856   2.686   6.324  0.1641  0.3760  0.6352
    4MOL   C356 2282   6.615   2.684   6.344 -1.0792 -0.3196  0.0113
    4MOL   C357 2283   6.606   2.806   6.259 -0.7447 -0.6397  0.1004
    4MOL   C358 2284   6.466   2.863   6.232  0.3730 -0.2194  0.4861
    4MOL   C359 2285   6.476   3.008   6.162  0.4037  0.0831 -0.4601
    4MOL   C360 2286   6.332   3.062   6.149 -0.8371 -0.2383  0.2609
    4MOL   O361 2287   6.251   3.046   6.237  0.2335 -0.2706  0.7601
    4MOL   N362 2288   6.303   3.112   6.032 -0.6305 -0.2653 -0.1681
    4MOL   C363 2289   6.170   3.164   5.983  0.6411  0.5555  0.4769
    4MOL   C364 2290   6.135   3.306   6.037 -0.7816  0.3874 -0.0511
    4MOL   C365 2291   6.251   3.402   6.000 -0.3452 -0.5139 -0.1758
    4MOL   C366 2292   6.231   3.549   6.048  0.4772 -0.3081 -0.5562
    4MOL   N367 2293   6.113   3.609   5.984  0.8014  0.0814  0.3376
    4MOL   H368 2294   6.581   2.598   6.286 -0.9860 -1.1829  1.2331
    4MOL   H369 2295   6.551   2.705   6.430  1.4710  2.0044  1.4163
    4MOL   H370 2296   6.661   2.885   6.311 -0.3278 -0.5092 -0.5406
    4MOL   H371 2297   6.665   2.795   6.168 -1.7780  0.7444 -0.7608
    4MOL   H372 2298   6.409   2.878   6.324 -0.8088  1.2173 -0.4659
    4MOL   H373 2299   6.421   2.806   6.150  0.7499  0.8230 -0.4448
    4MOL   H374 2300   6.530   3.005   6.067 -0.5240  0.7419 -1.0193
    4MOL   H375 2301   6.526   3.082   6.224 -2.8681 -0.9676  3.6457
    4MOL   H376 2302   6.374   3.104   5.961 -1.2108 -0.0555 -0.7715
    4MOL   H377 2303   6.086   3.095   5.997 -0.6102  1.8082 -0.7184
    4MOL   H378 2304   6.166   3.163   5.875  3.8274  1.6362  0.3191
    4MOL   H379 2305   6.033   3.329   6.005 -1.7176 -1.4470  1.5126
    4MOL   H380 2306   6.117   3.309   6.145  0.0648 -1.3175  0.1503
    4MOL   H381 2307   6.267   3.393   5.893 -1.6057 -1.9573 -0.2573
    4MOL   H382 2308   6.347   3.363   6.036  0.8508  2.1047 -0.4201
    4MOL   H383 2309   6.314   3.609   6.012 -0.9065  0.0865 -3.2800
    4MOL   H384 2310   6.219   3.547   6.156  0.4005  0.1066 -0.5554
    4MOL   H385 2311   6.122   3.641   5.889  0.2277  0.7221  0.4922
    4MOL   C386 2312   5.986   3.616   6.034 -0.0326  0.3592 -0.0784
    4MOL   O387 2313   5.967   3.585   6.151 -0.0581 -0.2912 -0.3727
    4MOL   C388 2314   5.874   3.648   5.933 -0.1663  0.0521  0.2819
    4MOL   C389 2315   5.751   3.710   5.999 -0.4611 -0.3132  0.1288
    4MOL   C390 2316   5.636   3.727   5.899  0.4060 -0.2984 -0.4402
    4MOL   C391 2317   5.523   3.817   5.951 -0.1625  0.0044  0.0891
    4MOL   C392 2318   5.446   3.754   6.070 -0.3831 -0.0454  0.7425
    4MOL   O393 2319   5.457   3.635   6.104  0.5757 -0.5073 -0.1271
    4MOL   N394 2320   5.373   3.835   6.144 -0.6568  0.1047  0.0216
    4MOL   C395 2321   5.309   3.797   6.272  0.5920 -0.1082  0.3283
    4MOL   C396 2322   5.238   3.916   6.338 -0.0545  0.9197 -0.2791
    4MOL   C397 2323   5.336   4.015   6.395  0.0773  1.4679  0.5532
    4MOL   C398 2324   5.263   4.143   6.440 -0.1521 -0.2890 -0.1046
    4MOL   N399 2325   5.363   4.248   6.448 -0.6822 -0.3508 -0.0553
    4MOL   H400 2326   5.915   3.714   5.856 -2.1509 -1.1210 -1.8659
    4MOL   H401 2327   5.844   3.553   5.888 -0.6004  0.5546 -0.5116
    4MOL   H402 2328   5.715   3.659   6.089  0.3835  0.0290  0.6696
    4MOL   H403 2329   5.783   3.807   6.037 -1.8766 -0.2263  1.1486
    4MOL   H404 2330   5.594   3.630   5.870 -1.6431  0.8117 -1.2876
    4MOL   H405 2331   5.678   3.773   5.810  0.0891 -1.9526 -1.4681
    4MOL   H406 2332   5.452   3.827   5.868  3.0944  2.0171 -2.5773
    4MOL   H407 2333   5.553   3.916   5.986  0.0338 -0.0619  0.1061
    4MOL   H408 2334   5.368   3.934   6.127  0.7597  0.4647  1.5696
    4MOL   H409 2335   5.387   3.754   6.335  0.4684 -1.0903 -0.1704
    4MOL   H410 2336   5.241   3.717   6.242  1.0430 -0.3798  0.0314
    4MOL   H411 2337   5.175   3.960   6.260  0.7113  0.7809 -0.9795
    4MOL   H412 2338   5.175   3.875   6.416 -0.6442 -2.4161 -2.4229
    4MOL   H413 2339   5.412   4.036   6.320  0.3653  0.4595  0.5566
    4MOL   H414 2340   5.396   3.979   6.479  0.2480  1.1778  0.3064
    4MOL   H415 2341   5.210   4.131   6.534 -3.3331  0.1934 -1.7742
    4MOL   H416 2342   5.191   4.162   6.361  0.1482 -1.9746 -0.8198
    4MOL   H417 2343   5.451   4.230   6.493 -1.4772  2.1419  2.6064
    4MOL   C418 2344   5.348   4.370   6.392 -0.3550 -0.2512  0.2519
    4MOL   O419 2345   5.246   4.396   6.335  0.5077 -0.7596 -0.2358
    4MOL   C420 2346   5.467   4.469   6.402 -0.9263 -0.0708 -0.1155
    4MOL   C421 2347   5.564   4.445   6.285  0.3017 -0.4509 -0.1162
    4MOL   C422 2348   5.694   4.364   6.308 -0.4045 -0.4872  0.5106
    4MOL   C423 2349   5.679   4.212   6.287 -0.3874 -0.0344 -0.0394
    4MOL   C424 2350   5.685   4.159   6.141  0.5008 -0.7909 -0.5017
    4MOL   O425 2351   5.585   4.162   6.074  0.4004  0.1947  0.4315
    4MOL   N426 2352   5.792   4.099   6.093  0.1061 -0.0808 -0.0249
    4MOL   C427 2353   5.817   4.082   5.946  0.0908 -0.1275  0.5393
    4MOL   C428 2354   5.963   4.030   5.930  0.2320  0.4394 -0.2468
    4MOL   C429 2355   6.028   4.023   5.796 -0.5260  0.5409 -0.2039
    4MOL   C430 2356   6.179   3.973   5.802 -0.1822  0.3134 -0.2995
    4MOL   N431 2357   6.242   3.932   5.671  0.9274 -0.2770 -0.3491
    4MOL   H432 2358   5.420   4.567   6.406 -2.7297 -0.8910 -0.6242
    4MOL   H433 2359   5.518   4.447   6.495  0.8532 -0.7784 -1.2368
    4MOL   H434 2360   5.510   4.401   6.201 -1.1503 -4.0834  2.5945
    4MOL   H435 2361   5.591   4.546   6.254 -0.2578 -0.3581 -0.3015
    4MOL   H436 2362   5.739   4.393   6.403 -0.4494  0.9369  0.1056
    4MOL   H437 2363   5.763   4.404   6.235 -2.2021 -1.0660 -1.5561
    4MOL   H438 2364   5.586   4.173   6.329 -0.1336 -0.0508  0.5200
    4MOL   H439 2365   5.765   4.178   6.345 -0.7140 -0.4198  0.2300
    4MOL   H440 2366   5.876   4.092   6.150  1.0759  3.9147 -0.7539
    4MOL   H441 2367   5.811   4.174   5.887  2.2024 -0.2072  0.1747
    4MOL   H442 2368   5.748   4.007   5.908 -0.5548  1.6181 -1.8766
    4MOL   H443 2369   6.030   4.099   5.981  0.5004  0.0296 -0.0497
    4MOL   H444 2370   5.969   3.931   5.974 -1.2014  0.3967 -0.1080
    4MOL   H445 2371   6.025   4.122   5.751  0.5409  0.3296 -0.7719
    4MOL   H446 2372   5.969   3.959   5.730  1.2452 -0.6433 -0.6782
    4MOL   H447 2373   6.201   3.894   5.874  0.4093  1.5184  0.8693
    4MOL   H448 2374   6.239   4.053   5.845 -0.7109  0.4207  0.2498
    4MOL   H449 2375   6.292   3.844   5.665 -1.5830 -1.8636  1.1840
    4MOL   C450 2376   6.251   4.012   5.562 -1.1711 -0.3203  0.0424
    4MOL   O451 2377   6.196   4.120   5.561  0.7056  0.2559  0.4396
    4MOL   C452 2378   6.346   3.968   5.451 -0.1546  0.6301 -0.5039
    4MOL   C453 2379   6.484   4.034   5.449  0.7023  0.1942 -0.7192
    4MOL   C454 2380   6.587   3.953   5.372 -0.1868 -0.1150 -0.4212
    4MOL   C455 2381   6.730   4.009   5.371  0.1574  0.2906 -0.2607
    4MOL   C456 2382   6.770   4.093   5.253 -1.3838 -0.5178  0.1085
    4MOL   O457 2383   6.703   4.191   5.220 -0.0100  0.1511 -0.4284
    4MOL   N458 2384   6.882   4.060   5.189 -0.0224 -0.0569  0.5035
    4MOL   C459 2385   6.948   4.134   5.084  0.3276  0.1076 -0.0309
    4MOL   C460 2386   6.892   4.091   4.943  0.8268  0.0726 -0.0990
    4MOL   C461 2387   6.951   4.166   4.827 -0.6096 -0.0720 -0.2582
    4MOL   C462 2388   6.908   4.124   4.686  0.6437  0.5381  0.2218
    4MOL   N463 2389   6.779   4.178   4.653 -0.7059 -0.1057 -0.4471
    4MOL   H464 2390   6.354   3.859   5.461 -1.4417  0.3741 -1.9691
    4MOL   H465 2391   6.295   3.984   5.356  0.9444 -2.4177 -1.6963
    4MOL   H466 2392   6.480   4.130   5.397 -0.9349  0.4705 -0.0827
    4MOL   H467 2393   6.518   4.046   5.552 -0.2544 -0.5611 -0.3155
    4MOL   H468 2394   6.550   3.950   5.269 -1.2735 -0.1440 -0.0458
    4MOL   H469 2395   6.589   3.851   5.410  0.2711  0.3941  0.9423
    4MOL   H470 2396   6.803   3.928   5.364  0.6686  0.7478 -0.1974
    4MOL   H471 2397   6.742   4.069   5.461 -1.3643  1.7837 -1.0255
    4MOL   H472 2398   6.929   3.976   5.216  0.5598 -0.1917 -0.8599
    4MOL   H473 2399   7.056   4.122   5.091  0.3421  1.1716  1.9867
    4MOL   H474 2400   6.928   4.241   5.095 -0.9916 -0.2052  0.7926
    4MOL   H475 2401   6.920   3.986   4.945  0.2405 -0.1729 -3.2103
    4MOL   H476 2402   6.783   4.092   4.935  0.6666  0.7375  1.9874
    4MOL   H477 2403   7.060   4.163   4.820 -0.3786 -1.1627  3.0211
    4MOL   H478 2404   6.927   4.271   4.846 -1.0942  0.2211 -2.4071
    4MOL   H479 2405   6.920   4.016   4.686 -2.0159  0.2175  0.1242
    4MOL   H480 2406   6.981   4.153   4.610 -0.3790  0.3107 -0.8611
    4MOL   H481 2407   6.752   4.259   4.707  1.2646  2.1398 -2.6841
    4MOL   C482 2408   6.714   4.152   4.544 -0.5856 -0.4089 -0.0318
    4MOL   O483 2409   6.755   4.077   4.456 -0.5458 -0.3597  0.6120
    4MOL   C484 2410   6.580   4.226   4.512  0.0121 -0.2930  0.3238
    4MOL   C485 2411   6.450   4.135   4.487 -0.0787  0.2657  0.3709
    4MOL   C486 2412   6.383   4.088   4.619  0.7319  0.3378  1.2518
    4MOL   C487 2413   6.311   3.948   4.589  0.7879  0.0832 -0.3019
    4MOL   C488 2414   6.213   3.907   4.701 -0.4085  0.3963  0.4100
    4MOL   O489 2415   6.149   3.995   4.762  0.5837 -0.5829 -0.3257
    4MOL   N490 2416   6.205   3.777   4.729  0.0880  0.1649  0.4504
    4MOL   C491 2417   6.130   3.705   4.832 -0.1807 -0.0333 -0.1048
    4MOL   C492 2418   6.220   3.663   4.946  0.6544 -0.3020  0.0472
    4MOL   C493 2419   6.331   3.567   4.894  0.6417  0.8215  0.1934
    4MOL   C494 2420   6.422   3.517   5.001 -0.4769  0.1800  0.1642
    4MOL   N495 2421   6.355   3.413   5.074 -0.0627 -0.1997 -0.3168
    4MOL   H496 2422   6.562   4.301   4.588  0.0804  1.1913 -1.0987
    4MOL   H497 2423   6.584   4.283   4.419 -2.3540  1.3082  1.1596
    4MOL   H498 2424   6.384   4.188   4.417  0.1528 -0.7894 -0.6569
    4MOL   H499 2425   6.483   4.047   4.431  0.8604  0.3577  0.7760
    4MOL   H500 2426   6.312   4.164   4.653 -2.2285 -2.2072  0.8771
    4MOL   H501 2427   6.454   4.074   4.701 -0.6429 -1.4553  2.1540
    4MOL   H502 2428   6.375   3.862   4.569 -0.7696 -1.3588  0.7693
    4MOL   H503 2429   6.256   3.959   4.495  2.0314 -1.5384 -1.2629
    4MOL   H504 2430   6.254   3.718   4.663  1.1892 -0.5757  1.9114
    4MOL   H505 2431   6.074   3.627   4.781 -5.2900  4.0599 -1.2368
    4MOL   H506 2432   6.058   3.776   4.874 -0.5565 -1.0974  1.0921
    4MOL   H507 2433   6.267   3.752   4.989  0.4093 -0.1933  0.0900
    4MOL   H508 2434   6.166   3.611   5.024 -2.4203  1.1362 -1.0503
    4MOL   H509 2435   6.389   3.630   4.825 -1.9328  1.6302 -1.3133
    4MOL   H510 2436   6.294   3.484   4.834 -1.7802  2.5593 -0.8076
    4MOL   H511 2437   6.464   3.588   5.071  0.8829 -1.8826  1.4876
    4MOL   H512 2438   6.503   3.455   4.963 -0.2046 -0.1283  1.2232
    4MOL   H513 2439   6.305   3.335   5.034  1.2855 -0.6531 -1.1587
    4MOL   C514 2440   6.349   3.401   5.208  0.1131  0.0259  0.0846
    4MOL   O515 2441   6.392   3.483   5.281 -0.2087  0.3985  0.1058
    4MOL   C516 2442   6.287   3.266   5.254 -0.4433 -0.9805 -1.1427
    4MOL   C517 2443   6.358   3.202   5.380  0.3827  0.0113 -0.2080
    4MOL   C518 2444   6.505   3.175   5.367 -0.5264 -0.0800  0.2519
    4MOL   C519 2445   6.547   3.079   5.262 -0.3107  0.5694  0.4363
    4MOL   C520 2446   6.535   2.931   5.293 -0.0778 -0.0682 -0.0169
    4MOL   O521 2447   6.501   2.890   5.404 -0.5219 -0.1180 -0.1541
    4MOL   N522 2448   6.576   2.854   5.193 -0.1794 -0.5864 -0.7600
    4MOL   C523 2449   6.584   2.707   5.204  0.0931  0.7070 -0.1066
    4MOL   C524 2450   6.594   2.637   5.066 -0.2390 -0.8770  0.0323
    4MOL   C525 2451   6.731   2.657   4.994 -0.5100  0.3056  0.0062
    4MOL   C526 2452   6.765   2.797   4.942 -0.1023  0.5674 -0.3675
    4MOL   N527 2453   6.660   2.834   4.845 -0.1182  0.0626  0.2842
    4MOL   H528 2454   6.183   3.289   5.278 -0.5072 -0.3233 -2.0343
    4MOL   H529 2455   6.292   3.193   5.173 -1.4665  0.0965 -2.2033
    4MOL   H530 2456   6.335   3.265   5.466 -4.4515 -0.3054 -1.0885
    4MOL   H531 2457   6.304   3.112   5.412  0.8709  0.4587  1.8755
    4MOL   H532 2458   6.547   3.130   5.457  2.9485 -0.6292 -1.5492
    4MOL   H533 2459   6.551   3.273   5.354  0.2076 -0.5000 -0.3265
    4MOL   H534 2460   6.656   3.083   5.260 -0.3004 -0.0480 -0.2192
    4MOL   H535 2461   6.504   3.106   5.165 -0.7714 -0.7064  0.2853
    4MOL   H536 2462   6.596   2.897   5.104 -0.0850  0.7140 -0.1268
    4MOL   H537 2463   6.494   2.670   5.253  0.9217 -0.1915  0.7618
    4MOL   H538 2464   6.661   2.669   5.271  0.9792  0.5027 -1.2181
    4MOL   H539 2465   6.572   2.531   5.077 -1.1203 -0.6959  0.0730
    4MOL   H540 2466   6.522   2.674   4.994  0.0518 -0.1589  0.1102
    4MOL   H541 2467   6.715   2.593   4.907  0.6578  1.3251 -0.9793
    4MOL   H542 2468   6.819   2.617   5.045 -0.7870 -1.6982 -1.0190
    4MOL   H543 2469   6.862   2.783   4.895  1.3723 -1.6592  3.1498
    4MOL   H544 2470   6.778   2.864   5.026  0.2051  0.0926 -0.0352
    4MOL   H545 2471   6.652   2.772   4.765 -1.6819 -0.9769  1.2102
    4MOL   C546 2472   6.588   2.946   4.852  0.6305  0.2631  0.0876
    4MOL   O547 2473   6.610   3.023   4.943 -0.4129  0.2947 -0.3853
    4MOL   C548 2474   6.485   2.975   4.736  0.0570  0.0778  0.4971
    4MOL   C549 2475   6.339   3.002   4.778  0.6642 -0.1312  0.2217
    4MOL   C550 2476   6.286   2.886   4.859  0.1554  0.3530 -0.4776
    4MOL   C551 2477   6.149   2.908   4.939 -0.6344 -0.5388 -0.2512
    4MOL   C552 2478   6.109   2.778   5.014 -0.9238 -0.0925 -0.2212
    4MOL   O553 2479   6.129   2.667   4.962  0.3023 -0.2264 -0.2752
    4MOL   N554 2480   6.053   2.783   5.133  0.5367 -0.3326  0.3797
    4MOL   C555 2481   6.025   2.897   5.216 -0.3800 -0.4668 -0.6003
    4MOL   C556 2482   5.905   2.858   5.310  0.0445  0.1604 -0.2266
    4MOL   C557 2483   5.846   2.989   5.375 -0.0041 -0.0528 -0.7195
    4MOL   C558 2484   5.718   2.962   5.459  0.5231  0.3027 -0.3442
    4MOL   N559 2485   5.656   3.084   5.495  0.0050 -0.2875 -0.0235
    4MOL   H560 2486   6.520   3.065   4.684  0.4463 -0.8070 -0.8111
    4MOL   H561 2487   6.480   2.894   4.663 -1.3751  0.4707  0.1397
    4MOL   H562 2488   6.329   3.086   4.847  0.3246  2.0880 -2.4384
    4MOL   H563 2489   6.271   3.026   4.696  0.1648 -1.5048  0.2297
    4MOL   H564 2490   6.359   2.846   4.930  0.1578  0.1506 -0.5920
    4MOL   H565 2491   6.279   2.808   4.783 -1.2027 -1.3252  1.3242
    4MOL   H566 2492   6.073   2.947   4.872  0.5912 -0.8500 -1.8639
    4MOL   H567 2493   6.184   2.988   5.003 -2.4394  0.5527 -0.5922
    4MOL   H568 2494   6.008   2.697   5.159  0.3276 -0.2472  0.3006
    4MOL   H569 2495   5.995   2.986   5.161  3.0677 -0.4746 -2.6599
    4MOL   H570 2496   6.110   2.926   5.279 -2.6739 -1.0960  2.9258
    4MOL   H571 2497   5.827   2.808   5.253  0.3035 -2.1115  1.3292
    4MOL   H572 2498   5.930   2.794   5.395  1.0760 -0.1382 -0.7497
    4MOL   H573 2499   5.818   3.058   5.296  0.3800  0.3033 -0.5450
    4MOL   H574 2500   5.924   3.038   5.433  0.6973 -0.6519 -1.1414
    4MOL   H575 2501   5.728   2.888   5.539  1.6200  1.9115  1.0487
    4MOL   H576 2502   5.642   2.915   5.398 -0.8102  1.1472  0.6345
    4MOL   H577 2503   5.704   3.173   5.486 -1.4999  0.6436  0.9353
    4MOL   C578 2504   5.532   3.096   5.554 -0.2730 -0.0361 -0.5307
    4MOL   O579 2505   5.467   2.999   5.602 -0.1005  0.1145 -0.1561
    4MOL   C580 2506   5.487   3.243   5.583  0.2603 -0.1908 -0.7302
    4MOL   C581 2507   5.375   3.252   5.688 -0.3258  0.3504  0.0062
    4MOL   C582 2508   5.323   3.393   5.711 -0.5756  0.1083  0.6503
    4MOL   C583 2509   5.250   3.410   5.843  0.3939 -1.0914  0.3058
    4MOL   C584 2510   5.185   3.546   5.852  0.4581 -0.3868 -0.2553
    4MOL   O585 2511   5.222   3.640   5.792 -0.7076  0.0617  0.3374
    4MOL   N586 2512   5.091   3.552   5.951  0.2497 -0.2778  0.4023
    4MOL   C587 2513   5.011   3.667   5.994  0.8006  0.3252  0.5734
    4MOL   C588 2514   4.866   3.620   5.994 -0.2806  0.0841  0.3565
    4MOL   C589 2515   4.802   3.536   5.879 -0.6697  0.3060 -0.3674
    4MOL   C590 2516   4.661   3.483   5.916  0.3523  0.7812 -0.5374
    4MOL   N591 2517   4.600   3.408   5.804  0.2053  0.3682  0.5796
    4MOL   H592 2518   5.573   3.309   5.597 -0.7105  1.0506 -0.5271
    4MOL   H593 2519   5.436   3.281   5.494 -1.2300  1.0319  0.6286
    4MOL   H594 2520   5.290   3.191   5.657 -0.3519  0.2150  0.3395
    4MOL   H595 2521   5.400   3.199   5.780 -0.7538 -3.5579 -2.0200
    4MOL   H596 2522   5.271   3.426   5.621  1.3264  0.9703 -0.1732
    4MOL   H597 2523   5.404   3.466   5.713 -0.8050  0.4178 -0.6092
    4MOL   H598 2524   5.318   3.404   5.928 -1.4452 -1.5510  1.7903
    4MOL   H599 2525   5.177   3.331   5.858 -0.9372  0.2974  1.2289
    4MOL   H600 2526   5.069   3.464   5.997  0.7083 -0.7669 -0.3016
    4MOL   H601 2527   5.023   3.757   5.935 -0.1546 -0.4408 -0.8218
    4MOL   H602 2528   5.033   3.689   6.099  0.9686 -0.1739  0.6451
    4MOL   H603 2529   4.857   3.555   6.082  0.6031 -0.6607 -0.0987
    4MOL   H604 2530   4.808   3.710   6.012  0.2792  0.5187 -0.0102
    4MOL   H605 2531   4.865   3.454   5.848 -0.3990  0.6866 -0.8324
    4MOL   H606 2532   4.785   3.606   5.796 -2.0032  3.8476  2.7246
    4MOL   H607 2533   4.603   3.571   5.944 -1.3620 -1.1327  2.2346
    4MOL   H608 2534   4.659   3.419   6.005 -0.6563  1.9213  0.2810
    4MOL   H609 2535   4.668   3.359   5.748 -0.8865  0.7600 -1.1303
    4MOL   C610 2536   4.473   3.410   5.766  0.3205 -0.9263 -0.2003
    4MOL   O611 2537   4.380   3.463   5.831 -0.0793 -0.5340  0.2553
    4MOL   C612 2538   4.443   3.348   5.627 -0.2784  0.3049  0.3478
    4MOL   C613 2539   4.402   3.467   5.534 -1.2947 -0.1983  0.1055
    4MOL   C614 2540   4.495   3.583   5.521  0.1137 -0.3465 -0.0554
    4MOL   C615 2541   4.463   3.682   5.406  0.3865 -0.3638 -0.2955
    4MOL   C616 2542   4.447   3.625   5.269 -0.3607  1.0185 -0.3345
    4MOL   O617 2543   4.370   3.534   5.243  0.3345 -0.2026  0.4011
    4MOL   N618 2544   4.527   3.682   5.175  0.2844 -0.3746 -0.0147
    4MOL   C619 2545   4.526   3.642   5.034  0.0616  0.7702  0.0761
    4MOL   C620 2546   4.410   3.706   4.954  0.4892  0.0381  0.1694
    4MOL   C621 2547   4.388   3.643   4.814  0.7811  0.2700  0.7029
    4MOL   C622 2548   4.253   3.680   4.749 -0.0054 -0.3719  0.3745
    4MOL   N623 2549   4.245   3.615   4.616  0.2199 -0.3344  0.2233
    4MOL   H624 2550   4.529   3.297   5.584 -1.6982 -1.9090  0.0802
    4MOL   H625 2551   4.359   3.279   5.624  0.3118 -0.3814 -0.6419
    4MOL   H626 2552   4.368   3.427   5.439 -0.9250 -0.5919  0.1392
    4MOL   H627 2553   4.311   3.495   5.586 -0.1375  0.7479  1.6667
    4MOL   H628 2554   4.589   3.532   5.500 -0.1400 -1.0824  0.5562
    4MOL   H629 2555   4.510   3.633   5.616  1.1801 -2.6096  1.0088
    4MOL   H630 2556   4.533   3.764   5.417 -3.1919  2.7733  0.3412
    4MOL   H631 2557   4.370   3.733   5.432  0.5609 -1.3497  2.4548
    4MOL   H632 2558   4.595   3.754   5.196 -0.5136  0.3662  0.0526
    4MOL   H633 2559   4.518   3.533   5.036 -1.8221  0.9049  3.5058
    4MOL   H634 2560   4.622   3.677   4.995 -2.0631  3.8394 -2.6898
    4MOL   H635 2561   4.321   3.675   5.008  0.7000 -0.8157  0.0336
    4MOL   H636 2562   4.404   3.814   4.940 -1.4431  0.1405  1.5541
    4MOL   H637 2563   4.399   3.535   4.814 -1.0719  0.0716  0.0924
    4MOL   H638 2564   4.464   3.683   4.747  0.0651 -0.8286 -0.7841
    4MOL   H639 2565   4.242   3.788   4.740 -0.2642 -0.2346  2.0823
    4MOL   H640 2566   4.177   3.632   4.811  0.7000 -1.8437  0.1121
    4MOL   H641 2567   4.261   3.515   4.614 -0.5781 -0.5681  3.0323
    4MOL   H642 2568   4.147   3.634   4.598  0.5400  1.2570  0.0376
    5MOL     C1 2569   4.863   6.612   1.442 -0.3925 -0.7211 -1.1330
    5MOL     O2 2570   4.906   6.611   1.556 -0.0852  0.4740  0.4546
    5MOL     C3 2571   4.953   6.620   1.322 -0.5299 -0.3584  0.2964
    5MOL     C4 2572   4.990   6.757   1.268 -0.2515  0.0573  0.3767
    5MOL     C5 2573   4.888   6.808   1.160  0.4495 -1.0238  0.0541
    5MOL     C6 2574   4.739   6.815   1.198  0.4124 -0.8166 -0.4568
    5MOL     C7 2575   4.657   6.697   1.137 -0.1983 -0.5406 -0.1496
    5MOL     O8 2576   4.708   6.627   1.049  0.5863 -0.4262 -0.1297
    5MOL     N9 2577   4.533   6.676   1.178 -0.1940 -0.2040 -0.5027
    5MOL    C10 2578   4.443   6.576   1.122 -0.6765 -0.9954 -0.4511
    5MOL    C11 2579   4.440   6.446   1.204 -0.1630  0.2701  0.0157
    5MOL    C12 2580   4.573   6.376   1.232  0.6306  0.3715 -0.2235
    5MOL    C13 2581   4.564   6.250   1.320  0.9646 -0.2401 -0.0429
    5MOL    N14 2582   4.695   6.197   1.349  0.3227  0.0646 -0.5610
    5MOL    H15 2583   5.042   6.561   1.345 -1.5003 -2.4130 -1.0304
    5MOL    H16 2584   4.907   6.552   1.251 -0.6679 -1.1874  1.1620
    5MOL    H17 2585   4.987   6.828   1.350  3.1812  1.6677 -0.7947
    5MOL    H18 2586   5.089   6.751   1.222 -0.1217  0.6292  0.5803
    5MOL    H19 2587   4.903   6.755   1.066 -0.7407 -1.2168 -0.0409
    5MOL    H20 2588   4.921   6.910   1.144  0.8503 -1.2336 -0.4571
    5MOL    H21 2589   4.682   6.904   1.170 -0.3497 -0.2891  2.5898
    5MOL    H22 2590   4.725   6.817   1.306 -0.5743 -2.0870 -0.5484
    5MOL    H23 2591   4.504   6.724   1.261  1.7132  1.0262 -0.5194
    5MOL    H24 2592   4.460   6.556   1.016  0.5095 -0.8984 -0.2790
    5MOL    H25 2593   4.345   6.622   1.110  0.1338  1.7310  2.6813
    5MOL    H26 2594   4.405   6.461   1.307  0.0999 -1.4886  0.3849
    5MOL    H27 2595   4.384   6.366   1.155 -0.8411  0.9044 -0.2388
    5MOL    H28 2596   4.648   6.441   1.276 -0.3109  1.8514 -0.7356
    5MOL    H29 2597   4.611   6.342   1.135 -0.2563  0.2640 -0.5371
    5MOL    H30 2598   4.517   6.165   1.271 -1.7164  0.7646  0.7351
    5MOL    H31 2599   4.520   6.285   1.413  0.2270  0.6844 -0.7321
    5MOL    H32 2600   4.744   6.146   1.276  1.5413 -1.1014  1.0343
    5MOL    H33 2601   4.762   6.577   1.422 -1.1515  1.0814 -0.5821
    5MOL    C34 2602   4.758   6.203   1.466  0.1845  0.5077  0.0417
    5MOL    O35 2603   4.705   6.243   1.575  0.5040 -0.0353 -0.1559
    5MOL    C36 2604   4.903   6.159   1.464  0.9226  0.2929 -0.6967
    5MOL    C37 2605   4.967   6.118   1.603  0.9077 -0.0075  0.4222
    5MOL    C38 2606   4.896   5.991   1.652 -0.1417 -0.3177 -0.5599
    5MOL    C39 2607   4.980   5.927   1.764 -0.4351 -0.6471  0.2794
    5MOL    C40 2608   4.936   5.783   1.798 -0.1779 -0.2064 -1.0340
    5MOL    O41 2609   4.817   5.750   1.801 -0.6314  0.1102  0.2294
    5MOL    N42 2610   5.026   5.693   1.846 -0.0690 -0.2119  0.1850
    5MOL    C43 2611   5.008   5.548   1.868  0.7871 -0.0527 -0.3311
    5MOL    C44 2612   5.066   5.495   2.000 -0.3458 -0.3859 -0.8288
    5MOL    C45 2613   5.027   5.584   2.125 -0.4520 -1.3036 -0.0169
    5MOL    C46 2614   5.110   5.556   2.248 -0.1627 -0.1165  0.0025
    5MOL    N47 2615   5.239   5.616   2.245  0.3107 -0.4441 -0.6655
    5MOL    H48 2616   4.907   6.081   1.388 -1.5181  0.9917 -1.5975
    5MOL    H49 2617   4.955   6.248   1.429  2.3130 -0.2404 -0.0253
    5MOL    H50 2618   5.075   6.100   1.599  1.2590  2.0564  0.2096
    5MOL    H51 2619   4.958   6.195   1.680 -1.6688 -0.9062  1.0679
    5MOL    H52 2620   4.881   5.928   1.564  3.1563 -0.8629 -0.8028
    5MOL    H53 2621   4.802   6.026   1.693  0.9893  0.2315  1.6398
    5MOL    H54 2622   4.947   5.970   1.859 -1.6323  0.6597 -0.7037
    5MOL    H55 2623   5.087   5.943   1.752 -0.8142  2.7645  0.7839
    5MOL    H56 2624   5.123   5.721   1.852 -0.5280  1.3686  0.6179
    5MOL    H57 2625   5.063   5.488   1.796 -0.1710 -0.8111 -0.4326
    5MOL    H58 2626   4.907   5.516   1.843  0.0180  1.4684  0.7781
    5MOL    H59 2627   5.042   5.391   2.020 -0.3275 -0.2288  0.0098
    5MOL    H60 2628   5.175   5.499   2.001 -0.3314 -0.5966 -1.3625
    5MOL    H61 2629   4.919   5.574   2.134 -0.5696 -0.0444  0.0863
    5MOL    H62 2630   5.041   5.689   2.099  2.8240 -1.7713 -0.3457
    5MOL    H63 2631   5.131   5.449   2.255  1.8323  0.2167 -0.6791
    5MOL    H64 2632   5.052   5.587   2.336  0.0040  0.9013 -0.2377
    5MOL    H65 2633   5.239   5.717   2.238  1.4422 -0.5516 -2.2675
    5MOL    C66 2634   5.361   5.564   2.231 -0.1887  0.4034 -0.2692
    5MOL    O67 2635   5.375   5.441   2.221  0.2503  0.5092  0.6545
    5MOL    C68 2636   5.485   5.655   2.248  0.0268  0.1125 -0.4214
    5MOL    C69 2637   5.587   5.657   2.132 -0.3478 -1.3461 -0.2227
    5MOL    C70 2638   5.525   5.681   1.990  0.6781  0.4565 -0.3621
    5MOL    C71 2639   5.449   5.811   1.985  0.3115  0.3295 -0.3053
    5MOL    C72 2640   5.390   5.834   1.848 -0.1692 -0.0818  0.2497
    5MOL    O73 2641   5.292   5.774   1.810 -0.2805 -0.1778  0.5929
    5MOL    N74 2642   5.436   5.937   1.773  0.3417 -0.8056  0.0310
    5MOL    C75 2643   5.395   5.970   1.634  0.2890 -1.2256 -1.0629
    5MOL    C76 2644   5.503   6.041   1.557 -0.0281  0.3456 -0.4963
    5MOL    C77 2645   5.641   5.979   1.586 -1.0161 -0.0610  1.2835
    5MOL    C78 2646   5.741   6.056   1.504 -0.6833  0.6263 -0.2513
    5MOL    N79 2647   5.709   6.061   1.360 -0.3007  0.1506  0.7648
    5MOL    H80 2648   5.443   5.754   2.269  1.3549  0.1656  2.2172
    5MOL    H81 2649   5.542   5.615   2.332  0.3317  0.9487 -0.2316
    5MOL    H82 2650   5.663   5.732   2.150 -0.1900 -1.6244  0.2723
    5MOL    H83 2651   5.645   5.565   2.126  1.8333  0.0591 -1.5367
    5MOL    H84 2652   5.462   5.596   1.965  0.4559  1.2227 -2.5430
    5MOL    H85 2653   5.606   5.680   1.916  0.6358  0.7683 -0.4170
    5MOL    H86 2654   5.490   5.896   2.038 -0.1640 -0.4504  1.3382
    5MOL    H87 2655   5.359   5.790   2.042 -0.2743  1.2448 -0.8932
    5MOL    H88 2656   5.511   5.987   1.818 -1.1902  0.0208  1.7277
    5MOL    H89 2657   5.313   6.042   1.632  0.5550 -0.8807  0.3038
    5MOL    H90 2658   5.357   5.880   1.586 -2.3577 -0.3488 -0.6796
    5MOL    H91 2659   5.474   6.042   1.452 -0.4670 -0.1907 -0.3845
    5MOL    H92 2660   5.503   6.149   1.577 -0.3796  0.5067 -1.3471
    5MOL    H93 2661   5.648   5.872   1.565  1.3733  0.2371  0.3617
    5MOL    H94 2662   5.672   5.980   1.691 -1.8096 -0.3083  1.5266
    5MOL    H95 2663   5.835   6.002   1.514 -2.2332 -1.7648  2.2909
    5MOL    H96 2664   5.767   6.153   1.545 -0.4135 -0.0117  1.1295
    5MOL    H97 2665   5.727   5.981   1.302 -0.2474  0.2770  0.6062
    5MOL    C98 2666   5.660   6.172   1.300  0.0210  0.4944 -0.6128
    5MOL    O99 2667   5.648   6.283   1.356 -0.4320  1.0744 -0.0155
    5MOL   C100 2668   5.594   6.152   1.163 -0.1219 -0.3224  0.1701
    5MOL   C101 2669   5.678   6.211   1.047 -0.2924 -0.0424  0.2589
    5MOL   C102 2670   5.828   6.167   1.043 -0.2624 -0.2157 -0.3023
    5MOL   C103 2671   5.842   6.011   1.024 -0.4120 -0.1157  0.2313
    5MOL   C104 2672   5.987   5.955   1.026  0.1100 -0.6561 -0.3631
    5MOL   O105 2673   6.078   6.009   1.090  0.1870 -0.3765  0.8185
    5MOL   N106 2674   6.000   5.839   0.962 -0.0135  0.0405 -0.5759
    5MOL   C107 2675   6.122   5.764   0.931 -0.2697  0.0856  0.1696
    5MOL   C108 2676   6.170   5.685   1.056  0.1100 -0.1367 -0.4592
    5MOL   C109 2677   6.313   5.647   1.030  0.6914 -0.2175 -0.0995
    5MOL   C110 2678   6.412   5.758   1.070 -0.8785  0.0146  0.2823
    5MOL   N111 2679   6.549   5.739   1.032 -0.2147  0.4285 -0.6047
    5MOL   H112 2680   5.567   6.051   1.132 -1.0731  0.1583 -0.6165
    5MOL   H113 2681   5.500   6.206   1.168 -0.2579 -0.7787  3.9199
    5MOL   H114 2682   5.618   6.196   0.958  2.1757  0.6412 -1.5833
    5MOL   H115 2683   5.690   6.317   1.067  2.6807 -0.3085  0.1939
    5MOL   H116 2684   5.884   6.202   1.130  0.3661  0.1128 -0.8362
    5MOL   H117 2685   5.870   6.212   0.953 -2.3702 -0.9368 -1.6658
    5MOL   H118 2686   5.808   5.993   0.922  0.0639 -1.8475  0.3768
    5MOL   H119 2687   5.780   5.954   1.091  0.9695 -0.0592  1.5778
    5MOL   H120 2688   5.917   5.813   0.911 -0.6299 -0.8977  0.8861
    5MOL   H121 2689   6.204   5.829   0.901  0.7457 -0.3101  1.9803
    5MOL   H122 2690   6.106   5.699   0.845  0.8726  1.5641 -1.2054
    5MOL   H123 2691   6.159   5.753   1.141  1.2888 -0.1543 -0.2871
    5MOL   H124 2692   6.107   5.598   1.075  1.3606 -0.9973 -0.2439
    5MOL   H125 2693   6.317   5.624   0.924 -2.0977 -0.4436 -0.1956
    5MOL   H126 2694   6.338   5.549   1.069 -3.8717 -1.3496  0.1992
    5MOL   H127 2695   6.391   5.774   1.176  0.8420 -1.1322  0.8127
    5MOL   H128 2696   6.391   5.847   1.012  1.0960 -0.8985 -1.9089
    5MOL   H129 2697   6.564   5.718   0.935  1.5651 -0.3750 -0.1643
    5MOL   C130 2698   6.655   5.735   1.111  0.4216  0.3338  0.1972
    5MOL   O131 2699   6.767   5.690   1.074  0.2510 -0.0884  0.1559
    5MOL   C132 2700   6.649   5.781   1.253  0.3498 -0.6179 -0.2291
    5MOL   C133 2701   6.780   5.841   1.299 -0.2540  0.0045  0.3120
    5MOL   C134 2702   6.798   5.972   1.223  0.3626  0.0199  0.4031
    5MOL   C135 2703   6.930   6.046   1.275 -0.7067 -0.6872 -0.3560
    5MOL   C136 2704   6.958   6.182   1.202  0.2989  0.6465  0.8921
    5MOL   O137 2705   7.007   6.171   1.086  0.3640 -0.6491 -0.0641
    5MOL   N138 2706   6.942   6.294   1.273 -0.0515  0.3446  0.3254
    5MOL   C139 2707   6.961   6.423   1.210  0.0430 -0.3989 -0.3417
    5MOL   C140 2708   6.851   6.462   1.107  0.2339  0.3590 -0.5436
    5MOL   C141 2709   6.886   6.598   1.047 -0.3233 -0.7274 -0.5119
    5MOL   C142 2710   6.804   6.618   0.923  1.0888 -0.5488 -0.6801
    5MOL   N143 2711   6.661   6.632   0.942  0.1659  0.1858 -0.7929
    5MOL   H144 2712   6.580   5.865   1.254  1.0425 -0.0552  1.0793
    5MOL   H145 2713   6.609   5.700   1.315  0.1501 -0.5584 -0.2800
    5MOL   H146 2714   6.778   5.852   1.407 -1.7840  1.9565  0.1105
    5MOL   H147 2715   6.858   5.767   1.283  0.6124  1.0252 -0.2200
    5MOL   H148 2716   6.706   6.031   1.232  0.2157 -0.3146  1.1727
    5MOL   H149 2717   6.809   5.957   1.116  1.4317 -0.8761  0.6287
    5MOL   H150 2718   7.011   5.973   1.270 -1.5873 -1.6641 -0.5136
    5MOL   H151 2719   6.923   6.071   1.380 -0.9382  1.0317 -0.7731
    5MOL   H152 2720   6.911   6.298   1.369 -1.0500 -0.2008  0.0356
    5MOL   H153 2721   7.058   6.435   1.162  0.2101  1.7729  0.4688
    5MOL   H154 2722   6.956   6.500   1.287  0.8903 -0.6515 -0.0293
    5MOL   H155 2723   6.843   6.388   1.027  0.5636  0.8884 -1.0657
    5MOL   H156 2724   6.759   6.460   1.166  0.8951 -1.3647  0.4648
    5MOL   H157 2725   6.993   6.615   1.033 -0.3536  1.3151  1.4687
    5MOL   H158 2726   6.870   6.676   1.122 -0.7361 -2.0100  0.7426
    5MOL   H159 2727   6.832   6.535   0.859  2.3785 -1.8303  1.4947
    5MOL   H160 2728   6.849   6.706   0.877 -0.0070  0.4077  0.0508
    5MOL   H161 2729   6.620   6.720   0.970  0.8826  0.1880  0.2637
    5MOL   C162 2730   6.575   6.530   0.914 -0.0277  0.5901  0.2601
    5MOL   O163 2731   6.605   6.433   0.842 -0.0737  0.3335  0.0908
    5MOL   C164 2732   6.428   6.543   0.974 -0.0193  0.3560  0.2936
    5MOL   C165 2733   6.351   6.408   0.999  0.5138 -0.4156 -0.3983
    5MOL   C166 2734   6.412   6.315   1.105 -0.0368 -0.1798 -0.5341
    5MOL   C167 2735   6.322   6.189   1.122  0.1225  0.2890  0.2251
    5MOL   C168 2736   6.372   6.091   1.241 -0.0032  0.1326  0.5597
    5MOL   O169 2737   6.481   6.111   1.290  0.1438 -0.0205 -0.0386
    5MOL   N170 2738   6.290   6.001   1.292 -0.5927  0.1269  0.0503
    5MOL   C171 2739   6.313   5.932   1.413 -0.1401  0.1181  0.0423
    5MOL   C172 2740   6.181   5.903   1.482  0.5523 -0.2538 -0.1397
    5MOL   C173 2741   6.093   5.811   1.394  0.8742  0.2065  0.2780
    5MOL   C174 2742   5.987   5.724   1.465 -0.3721  0.6476  1.0365
    5MOL   N175 2743   5.910   5.644   1.370 -1.1766  0.5952 -0.4063
    5MOL   H176 2744   6.440   6.594   1.069 -0.3698 -2.0947  1.6917
    5MOL   H177 2745   6.373   6.603   0.902 -1.0346  0.0206  0.7818
    5MOL   H178 2746   6.248   6.429   1.026 -0.4625 -1.1117 -3.3550
    5MOL   H179 2747   6.337   6.359   0.902  0.1575 -2.0896  0.4810
    5MOL   H180 2748   6.426   6.375   1.195 -1.8899  1.9625 -1.6133
    5MOL   H181 2749   6.510   6.281   1.073  0.6134  0.1387  1.0733
    5MOL   H182 2750   6.301   6.131   1.032 -0.7271  2.0841 -0.7561
    5MOL   H183 2751   6.215   6.209   1.136  0.2691  1.4608 -0.2669
    5MOL   H184 2752   6.209   5.970   1.239 -1.3492  0.9823  0.6802
    5MOL   H185 2753   6.374   5.984   1.488  0.1593  0.1521 -0.2261
    5MOL   H186 2754   6.372   5.845   1.389  1.9713  1.7953 -0.9585
    5MOL   H187 2755   6.215   5.852   1.572 -0.2896  2.2765  1.6619
    5MOL   H188 2756   6.124   5.993   1.504 -1.5333 -1.0020 -2.2205
    5MOL   H189 2757   6.152   5.730   1.352  2.5036  1.3181  0.3811
    5MOL   H190 2758   6.046   5.872   1.317 -2.0238 -1.3708  0.7006
    5MOL   H191 2759   5.921   5.780   1.532 -1.1801  0.2683  0.5662
    5MOL   H192 2760   6.040   5.659   1.535  1.2951 -1.3099 -1.9613
    5MOL   H193 2761   5.935   5.546   1.368  0.8372  0.9673  2.5890
    5MOL   C194 2762   5.814   5.686   1.289 -0.1967  0.3164  0.5613
    5MOL   O195 2763   5.773   5.796   1.290 -0.5231  0.1528 -0.0623
    5MOL   C196 2764   5.778   5.585   1.180 -0.0119  0.5435  0.1178
    5MOL   C197 2765   5.680   5.644   1.075  0.6188 -0.3958 -0.1824
    5MOL   C198 2766   5.537   5.666   1.121  0.0271 -0.1441 -0.0138
    5MOL   C199 2767   5.462   5.565   1.214 -0.2046 -0.2425  0.0394
    5MOL   C200 2768   5.416   5.425   1.163 -0.3018  0.6612 -0.0664
    5MOL   O201 2769   5.475   5.381   1.063  0.2547 -0.1324 -0.0982
    5MOL   N202 2770   5.305   5.371   1.222 -0.3399 -0.2231 -0.1065
    5MOL   C203 2771   5.234   5.243   1.191 -0.4464 -0.4458  0.4979
    5MOL   C204 2772   5.206   5.220   1.048  0.4556 -0.1273 -0.6139
    5MOL   C205 2773   5.302   5.110   0.989 -1.1538 -0.1156  0.1220
    5MOL   C206 2774   5.328   5.124   0.834  0.5852  0.5021 -0.4846
    5MOL   N207 2775   5.369   5.260   0.809 -0.5074  0.4627  0.4886
    5MOL   H208 2776   5.871   5.551   1.134 -0.4357 -0.2024 -0.1921
    5MOL   H209 2777   5.736   5.490   1.213 -0.1583  0.2282 -0.9448
    5MOL   H210 2778   5.718   5.740   1.041  0.9469 -0.9399 -1.3624
    5MOL   H211 2779   5.665   5.581   0.988  0.7415 -0.3530 -0.2345
    5MOL   H212 2780   5.470   5.687   1.038 -1.3531 -2.0282  0.5835
    5MOL   H213 2781   5.521   5.764   1.166  0.6587 -0.4322  0.8515
    5MOL   H214 2782   5.373   5.616   1.251  0.0337 -0.7650  1.3886
    5MOL   H215 2783   5.523   5.546   1.303  0.1125 -0.6247 -0.2614
    5MOL   H216 2784   5.265   5.418   1.301 -1.6785 -1.1311 -0.2400
    5MOL   H217 2785   5.143   5.255   1.251 -0.4909 -0.8236  0.5044
    5MOL   H218 2786   5.300   5.166   1.231  1.8198  0.3159 -1.7184
    5MOL   H219 2787   5.103   5.184   1.038  0.3710 -0.5959  1.5808
    5MOL   H220 2788   5.212   5.314   0.992 -1.1339  0.2287 -0.2437
    5MOL   H221 2789   5.264   5.011   1.014 -0.5128 -0.2388  0.6242
    5MOL   H222 2790   5.399   5.113   1.039 -0.2812  1.0158 -1.5561
    5MOL   H223 2791   5.242   5.091   0.776  1.5360  0.5694 -1.9698
    5MOL   H224 2792   5.405   5.052   0.808  1.5824  1.0270  0.9711
    5MOL   H225 2793   5.405   5.309   0.889  1.2381 -0.6893  0.4457
    5MOL   C226 2794   5.336   5.332   0.702  0.3427  0.0307  0.6360
    5MOL   O227 2795   5.293   5.277   0.603 -0.3864  0.0135  0.0437
    5MOL   C228 2796   5.353   5.478   0.706  0.5699  0.5069  0.2336
    5MOL   C229 2797   5.229   5.553   0.665  0.0494 -0.1557 -0.2246
    5MOL   C230 2798   5.123   5.562   0.784 -0.4000  0.0383  0.8682
    5MOL   C231 2799   5.148   5.644   0.910  0.1329 -0.2853  0.4442
    5MOL   C232 2800   5.155   5.793   0.878  0.7596  0.4461  0.0758
    5MOL   O233 2801   5.059   5.867   0.855  0.6716 -0.1326  0.4908
    5MOL   N234 2802   5.280   5.846   0.881 -0.1595  0.9157  0.1984
    5MOL   C235 2803   5.317   5.979   0.846  0.6351 -0.5451 -0.0355
    5MOL   C236 2804   5.427   5.992   0.744 -0.2514 -0.5090  0.7359
    5MOL   C237 2805   5.544   5.911   0.780 -0.3658 -0.8243  0.1714
    5MOL   C238 2806   5.653   5.903   0.669 -0.2503 -0.3527 -0.1005
    5MOL   N239 2807   5.666   5.772   0.603  0.2429 -0.7572 -0.4038
    5MOL   H240 2808   5.381   5.499   0.810 -1.0449  2.2375  0.3415
    5MOL   H241 2809   5.443   5.500   0.648  1.2046 -0.2372  0.9086
    5MOL   H242 2810   5.263   5.648   0.625  0.7918 -0.8978 -1.4120
    5MOL   H243 2811   5.174   5.485   0.599  0.4966 -0.2327 -0.5224
    5MOL   H244 2812   5.101   5.461   0.820  0.3215 -0.0561  1.0506
    5MOL   H245 2813   5.025   5.590   0.746  0.2878  0.5220 -0.5888
    5MOL   H246 2814   5.244   5.610   0.950  0.4585  0.9695  0.7375
    5MOL   H247 2815   5.074   5.618   0.985 -2.5290 -2.5525 -2.8048
    5MOL   H248 2816   5.350   5.774   0.873  0.2075  1.1125  1.4960
    5MOL   H249 2817   5.358   6.025   0.935 -0.7067  3.5748 -1.4244
    5MOL   H250 2818   5.237   6.047   0.817 -0.0060 -1.2896 -0.0168
    5MOL   H251 2819   5.402   5.936   0.654 -0.4806 -0.6828  0.9079
    5MOL   H252 2820   5.456   6.094   0.717 -1.3740 -0.2880  0.3257
    5MOL   H253 2821   5.510   5.809   0.802  0.4728 -1.0656  0.3891
    5MOL   H254 2822   5.579   5.946   0.877 -0.0426  0.6778 -0.4756
    5MOL   H255 2823   5.749   5.925   0.715 -0.5353  1.0149 -0.1131
    5MOL   H256 2824   5.645   5.977   0.589  1.7257 -0.5884 -0.5466
    5MOL   H257 2825   5.614   5.761   0.517  0.0458 -1.2548 -0.2255
    5MOL   C258 2826   5.748   5.672   0.642  0.4079 -0.1614 -0.0127
    5MOL   O259 2827   5.822   5.680   0.736  0.0208 -0.2523 -0.3693
    5MOL   C260 2828   5.739   5.546   0.559 -0.7533  0.2015  0.1714
    5MOL   C261 2829   5.835   5.525   0.440  0.1496  0.3260 -0.1439
    5MOL   C262 2830   5.824   5.620   0.327 -0.2954 -0.7201  0.6153
    5MOL   C263 2831   5.919   5.594   0.206  0.0787  0.6493  0.9071
    5MOL   C264 2832   6.062   5.595   0.241 -0.1993 -0.2266  0.3437
    5MOL   O265 2833   6.122   5.703   0.243  0.3601  0.4917  0.8684
    5MOL   N266 2834   6.113   5.473   0.273  0.6824 -0.6842  0.2283
    5MOL   C267 2835   6.244   5.443   0.329  0.3704  0.6114 -0.1648
    5MOL   C268 2836   6.300   5.305   0.284  0.1614 -0.1767 -0.0195
    5MOL   C269 2837   6.425   5.253   0.351  0.0730 -0.5471  0.1337
    5MOL   C270 2838   6.491   5.119   0.296 -0.8051  0.5679  0.4405
    5MOL   N271 2839   6.624   5.090   0.337 -0.1922 -0.2648  0.5730
    5MOL   H272 2840   5.762   5.457   0.617  1.0213  1.4804  1.4938
    5MOL   H273 2841   5.638   5.538   0.518 -0.6847 -1.0222  0.2335
    5MOL   H274 2842   5.936   5.524   0.481 -0.1756  0.0440  0.6634
    5MOL   H275 2843   5.819   5.425   0.401  0.1289  0.4450 -0.4421
    5MOL   H276 2844   5.849   5.719   0.365  1.3578 -0.9186  0.0896
    5MOL   H277 2845   5.721   5.624   0.291  0.5366 -0.9178 -1.8663
    5MOL   H278 2846   5.911   5.675   0.134  0.5565 -0.3732 -0.3165
    5MOL   H279 2847   5.892   5.503   0.152  0.6121  1.2746 -0.4350
    5MOL   H280 2848   6.044   5.400   0.268  0.5741 -0.4871 -1.3676
    5MOL   H281 2849   6.226   5.445   0.436  2.8812 -0.3547  0.3017
    5MOL   H282 2850   6.323   5.516   0.312  1.6361  0.1088  3.1946
    5MOL   H283 2851   6.221   5.235   0.309 -0.1088  0.1177 -0.0512
    5MOL   H284 2852   6.298   5.295   0.176 -0.3859  3.2888 -0.3959
    5MOL   H285 2853   6.401   5.231   0.455 -0.6238 -2.4293 -0.4028
    5MOL   H286 2854   6.496   5.336   0.344  1.2227 -1.6464 -1.7026
    5MOL   H287 2855   6.490   5.134   0.188  2.4958  0.5865  0.3591
    5MOL   H288 2856   6.431   5.034   0.326  0.3931 -0.1150  0.9523
    5MOL   H289 2857   6.630   5.057   0.433 -3.5482 -0.1993  0.8669
    5MOL   C290 2858   6.733   5.098   0.262  0.3494 -0.7156 -0.3568
    5MOL   O291 2859   6.736   5.111   0.142 -0.4580 -0.4273 -0.1461
    5MOL   C292 2860   6.864   5.082   0.335  0.5044  0.3882  0.3763
    5MOL   C293 2861   6.952   4.968   0.277 -0.3253 -0.0284 -0.4337
    5MOL   C294 2862   6.924   4.821   0.310 -0.0168 -0.1958  1.2895
    5MOL   C295 2863   7.027   4.727   0.236 -0.8124  0.5168 -0.5106
    5MOL   C296 2864   7.027   4.577   0.276 -0.2726 -0.2548  0.3228
    5MOL   O297 2865   7.133   4.513   0.291  0.4959  0.1515  0.7427
    5MOL   N298 2866   6.909   4.518   0.294 -0.0059 -0.9709 -0.7560
    5MOL   C299 2867   6.870   4.385   0.331  0.4698  0.0541 -0.1893
    5MOL   C300 2868   6.841   4.375   0.485 -0.2047 -0.5293  0.2392
    5MOL   C301 2869   6.762   4.250   0.519  0.3496 -0.1806  0.2352
    5MOL   C302 2870   6.728   4.266   0.670  0.2805  0.0150  0.1658
    5MOL   N303 2871   6.643   4.156   0.717 -0.5001 -0.1094  0.1950
    5MOL   H304 2872   6.923   5.173   0.335 -1.1458  1.4800 -0.5250
    5MOL   H305 2873   6.847   5.052   0.439 -0.0351  2.2887  0.8491
    5MOL   H306 2874   6.942   4.975   0.169 -0.1721 -0.1578 -0.4563
    5MOL   H307 2875   7.057   4.992   0.296 -0.0578 -1.0407 -0.5790
    5MOL   H308 2876   6.826   4.800   0.267  0.0056  2.4155 -0.1433
    5MOL   H309 2877   6.916   4.793   0.415  1.3320 -0.9094  1.2150
    5MOL   H310 2878   7.130   4.755   0.257 -0.2452 -2.3079  0.6475
    5MOL   H311 2879   7.028   4.738   0.128  2.3997  1.6744 -0.4073
    5MOL   H312 2880   6.828   4.578   0.288  1.2937  1.0231  0.8792
    5MOL   H313 2881   6.947   4.311   0.308  2.7968  2.6174 -0.8440
    5MOL   H314 2882   6.776   4.357   0.284  0.4309 -0.5908  0.2518
    5MOL   H315 2883   6.934   4.376   0.542 -0.0042 -3.0579  0.0189
    5MOL   H316 2884   6.787   4.465   0.513  0.3841 -0.6338  1.7826
    5MOL   H317 2885   6.813   4.156   0.496 -0.3682 -0.2320 -1.1499
    5MOL   H318 2886   6.678   4.236   0.452  0.5727  0.1324 -0.1142
    5MOL   H319 2887   6.662   4.348   0.697  0.0387 -0.0451 -0.2402
    5MOL   H320 2888   6.817   4.264   0.733 -0.7250  0.1028  1.6212
    5MOL   H321 2889   6.543   4.171   0.713 -0.3823  0.4499 -0.8504
    5MOL   C322 2890   6.684   4.043   0.776  0.0381 -0.2085  0.4421
    5MOL   O323 2891   6.803   4.017   0.784 -0.2732 -0.3782 -0.4229
    5MOL   C324 2892   6.578   3.939   0.812 -0.0475 -0.5960  0.5600
    5MOL   C325 2893   6.504   3.965   0.944 -0.1560  0.2288 -0.9139
    5MOL   C326 2894   6.564   3.891   1.070  0.1054 -0.2187 -0.7176
    5MOL   C327 2895   6.479   3.913   1.197  0.1757  0.4358  0.5073
    5MOL   C328 2896   6.348   3.826   1.189 -0.4034 -0.2566  0.5056
    5MOL   O329 2897   6.330   3.740   1.104  0.3110 -0.0320 -0.0995
    5MOL   N330 2898   6.262   3.856   1.281  0.7082 -0.3475 -0.7038
    5MOL   C331 2899   6.140   3.784   1.316  0.2045 -0.2090  0.1816
    5MOL   C332 2900   6.171   3.658   1.395  0.1746 -0.0333 -0.7919
    5MOL   C333 2901   6.061   3.561   1.424 -0.4546 -0.4431  0.4505
    5MOL   C334 2902   6.113   3.436   1.488 -0.3316  0.3744 -0.5060
    5MOL   N335 2903   6.182   3.350   1.387  0.1163 -0.3028  0.1897
    5MOL   H336 2904   6.504   3.940   0.732  0.0569 -0.5056  0.4641
    5MOL   H337 2905   6.610   3.836   0.825 -2.3754 -1.1531  2.2028
    5MOL   H338 2906   6.485   4.072   0.953 -0.4195  0.1086 -0.0550
    5MOL   H339 2907   6.406   3.923   0.921 -1.1246  2.7740 -1.5677
    5MOL   H340 2908   6.669   3.920   1.080 -0.3861  1.1395  0.7083
    5MOL   H341 2909   6.562   3.785   1.043 -1.1078 -0.0332 -1.3741
    5MOL   H342 2910   6.461   4.017   1.225 -1.4039  0.6420 -1.2045
    5MOL   H343 2911   6.540   3.864   1.273 -1.7068 -2.1289  0.4419
    5MOL   H344 2912   6.296   3.914   1.356 -0.2171 -0.7417  0.0223
    5MOL   H345 2913   6.098   3.741   1.225  0.5574  1.0473 -0.6013
    5MOL   H346 2914   6.064   3.856   1.346  0.7861  1.2436 -1.6859
    5MOL   H347 2915   6.249   3.609   1.338  0.3410 -1.4617  0.6394
    5MOL   H348 2916   6.214   3.682   1.492  0.5596  0.7499 -1.1539
    5MOL   H349 2917   6.014   3.538   1.328  0.2955  2.3587 -0.6280
    5MOL   H350 2918   5.983   3.602   1.489 -1.6911 -3.4126  0.9357
    5MOL   H351 2919   6.034   3.372   1.528  1.5810 -1.5431  0.2429
    5MOL   H352 2920   6.175   3.455   1.575 -1.0119  0.7897 -0.1035
    5MOL   H353 2921   6.130   3.329   1.303  2.0082  1.7101 -1.5582
    5MOL   C354 2922   6.309   3.319   1.386 -0.0405  0.4022  0.4493
    5MOL   O355 2923   6.382   3.312   1.485  0.0663 -0.1059 -1.0476
    5MOL   C356 2924   6.359   3.282   1.245  0.0124  0.3208 -0.0955
    5MOL   C357 2925   6.474   3.184   1.246 -0.6025 -0.6969 -0.1313
    5MOL   C358 2926   6.512   3.130   1.105  0.5729  0.2941 -0.1719
    5MOL   C359 2927   6.622   3.024   1.107 -0.4899  0.5505 -0.1903
    5MOL   C360 2928   6.655   2.991   0.962  0.7149 -0.1364  0.3068
    5MOL   O361 2929   6.728   3.068   0.895  0.3625 -0.0927 -0.2206
    5MOL   N362 2930   6.603   2.875   0.913  0.4010 -0.0944 -0.0012
    5MOL   C363 2931   6.625   2.813   0.785  0.6860  0.2736  0.2700
    5MOL   C364 2932   6.676   2.673   0.808  0.9670 -0.1613 -0.1159
    5MOL   C365 2933   6.805   2.665   0.897 -0.1336 -0.6013 -1.1948
    5MOL   C366 2934   6.859   2.519   0.912  0.3601  0.0640 -0.0129
    5MOL   N367 2935   6.997   2.498   0.956 -0.3757  0.1880 -0.1097
    5MOL   H368 2936   6.277   3.236   1.189  1.1905 -0.5292 -1.1695
    5MOL   H369 2937   6.396   3.370   1.192  0.7400 -0.3467 -0.7184
    5MOL   H370 2938   6.562   3.227   1.295 -2.4417  1.9317  0.9857
    5MOL   H371 2939   6.448   3.105   1.317  0.4072 -0.6305  0.3278
    5MOL   H372 2940   6.543   3.214   1.043  1.5690 -0.7004 -1.0428
    5MOL   H373 2941   6.423   3.078   1.068  1.8636  0.3065 -3.4995
    5MOL   H374 2942   6.579   2.939   1.160 -2.6645  0.8547 -1.4270
    5MOL   H375 2943   6.710   3.060   1.160  0.5516 -3.1688  0.7605
    5MOL   H376 2944   6.538   2.826   0.973 -1.3269 -1.5477 -2.9830
    5MOL   H377 2945   6.685   2.876   0.720 -0.1236  0.5693 -0.2009
    5MOL   H378 2946   6.535   2.801   0.724 -0.1970 -3.0015  2.1036
    5MOL   H379 2947   6.593   2.617   0.853 -0.1818  1.2964 -0.3864
    5MOL   H380 2948   6.703   2.624   0.714  1.3757  1.6853 -0.9752
    5MOL   H381 2949   6.780   2.693   1.000  2.0211 -0.5468 -0.6690
    5MOL   H382 2950   6.879   2.737   0.863  1.2931 -0.3363  2.2240
    5MOL   H383 2951   6.847   2.472   0.815  0.9981  1.5997 -0.8535
    5MOL   H384 2952   6.797   2.463   0.982  1.1449  0.7573  1.2637
    5MOL   H385 2953   7.070   2.508   0.886 -1.3730 -0.5711 -1.2914
    5MOL   C386 2954   7.026   2.451   1.082 -0.5101  0.3547  0.5162
    5MOL   O387 2955   6.946   2.433   1.172 -0.0335  0.6377 -0.0676
    5MOL   C388 2956   7.170   2.404   1.096  0.1815 -0.6723  0.8670
    5MOL   C389 2957   7.243   2.480   1.203 -0.9205 -0.3001  0.2765
    5MOL   C390 2958   7.365   2.561   1.150 -0.0136 -0.6346  0.0906
    5MOL   C391 2959   7.328   2.675   1.063 -0.7178  0.1052  0.5881
    5MOL   C392 2960   7.453   2.734   0.979 -0.4440 -0.2287  0.1894
    5MOL   O393 2961   7.555   2.668   0.956 -0.1220 -0.0131 -0.0521
    5MOL   N394 2962   7.458   2.868   0.954 -0.3777  0.0611  0.0703
    5MOL   C395 2963   7.571   2.946   0.904  0.0596  0.0795  0.2858
    5MOL   C396 2964   7.529   3.086   0.859  0.6484  0.4351  0.3686
    5MOL   C397 2965   7.476   3.168   0.964  0.9731 -0.7121 -0.7001
    5MOL   C398 2966   7.402   3.291   0.921 -0.4630 -0.0041 -0.9222
    5MOL   N399 2967   7.365   3.355   1.045 -0.2874  0.3371  0.4695
    5MOL   H400 2968   7.154   2.301   1.130  0.6514 -1.0799 -0.1164
    5MOL   H401 2969   7.222   2.393   1.001 -0.9855  1.1439 -0.0092
    5MOL   H402 2970   7.176   2.536   1.268 -0.0503  1.6458 -0.4711
    5MOL   H403 2971   7.281   2.398   1.266 -0.1061 -1.2053 -1.3686
    5MOL   H404 2972   7.427   2.487   1.099  1.3625  0.6628 -0.1659
    5MOL   H405 2973   7.422   2.596   1.237  1.7905  0.2191 -1.4044
    5MOL   H406 2974   7.292   2.759   1.123  1.7633 -0.5193  3.0423
    5MOL   H407 2975   7.248   2.659   0.991 -0.1221 -1.5945  0.2866
    5MOL   H408 2976   7.376   2.914   0.992  0.0492  0.5594  0.3986
    5MOL   H409 2977   7.627   2.902   0.822 -1.8458 -1.2101 -0.3573
    5MOL   H410 2978   7.643   2.964   0.984  1.6169  1.9891 -1.4903
    5MOL   H411 2979   7.611   3.137   0.809  2.5327 -1.9614  0.8962
    5MOL   H412 2980   7.452   3.080   0.783  0.9615 -0.7701  0.1260
    5MOL   H413 2981   7.552   3.196   1.037 -1.6290  0.0132  1.8649
    5MOL   H414 2982   7.412   3.108   1.030 -0.5619 -1.9440 -3.2327
    5MOL   H415 2983   7.310   3.268   0.868 -0.6988  0.4441 -0.7119
    5MOL   H416 2984   7.463   3.352   0.854  0.6087  0.9160  0.8415
    5MOL   H417 2985   7.293   3.309   1.099  0.3989  0.1130  1.1892
    5MOL   C418 2986   7.403   3.482   1.078 -0.3743  0.0594  0.0363
    5MOL   O419 2987   7.470   3.556   1.005 -0.2637 -0.3127 -0.4459
    5MOL   C420 2988   7.366   3.529   1.216  0.4905  0.1345  0.7774
    5MOL   C421 2989   7.292   3.656   1.218  0.3942 -0.2678  0.4588
    5MOL   C422 2990   7.213   3.682   1.336  0.2323  0.0476  0.3981
    5MOL   C423 2991   7.143   3.819   1.332  0.4010 -0.0410 -0.3246
    5MOL   C424 2992   7.038   3.826   1.218  0.0402 -0.1805 -0.3406
    5MOL   O425 2993   6.928   3.768   1.219  0.6961 -0.0118 -0.2855
    5MOL   N426 2994   7.064   3.909   1.119  0.0281 -0.1888 -0.2596
    5MOL   C427 2995   7.001   3.913   0.990  0.1460  0.1104  0.1472
    5MOL   C428 2996   7.036   3.796   0.897 -0.2646  0.1473 -0.2702
    5MOL   C429 2997   7.180   3.782   0.845 -0.0182  0.1231 -0.2302
    5MOL   C430 2998   7.201   3.668   0.749  0.0163 -0.3889  0.7945
    5MOL   N431 2999   7.336   3.613   0.749  0.5342 -0.2932 -0.7677
    5MOL   H432 3000   7.304   3.451   1.261 -2.4338  3.1605  2.2052
    5MOL   H433 3001   7.453   3.541   1.282  1.0337  0.4007  0.0182
    5MOL   H434 3002   7.373   3.730   1.216  1.2448 -1.1812  1.1423
    5MOL   H435 3003   7.234   3.666   1.126 -1.3321  0.9407  1.6494
    5MOL   H436 3004   7.278   3.686   1.422 -0.6888 -1.1417  1.1715
    5MOL   H437 3005   7.140   3.601   1.349  1.2494 -1.0723 -0.7414
    5MOL   H438 3006   7.208   3.905   1.346  0.7104 -0.1184 -1.2458
    5MOL   H439 3007   7.090   3.815   1.427 -0.6333  2.0530 -0.7899
    5MOL   H440 3008   7.147   3.966   1.126 -1.1657  1.5107  0.7124
    5MOL   H441 3009   7.018   4.009   0.940 -1.0842 -0.2119 -0.9155
    5MOL   H442 3010   6.894   3.901   1.005  0.5501 -4.6948 -0.0178
    5MOL   H443 3011   7.011   3.709   0.958 -0.0157  0.0315 -0.3320
    5MOL   H444 3012   6.965   3.792   0.814  0.8177  0.5979 -1.2307
    5MOL   H445 3013   7.244   3.766   0.932  1.0967 -0.4823 -1.1625
    5MOL   H446 3014   7.219   3.872   0.799  3.4121 -0.9991  0.3619
    5MOL   H447 3015   7.167   3.699   0.650  1.3537  2.7527  1.2654
    5MOL   H448 3016   7.145   3.579   0.776  0.8739 -1.5674 -1.1872
    5MOL   H449 3017   7.368   3.570   0.834  1.7369  2.0649 -0.0012
    5MOL   C450 3018   7.417   3.589   0.643 -0.0623  0.4980 -0.4799
    5MOL   O451 3019   7.375   3.601   0.528  0.7237  0.0465  0.0412
    5MOL   C452 3020   7.561   3.541   0.676  0.5524  0.6129 -0.4396
    5MOL   C453 3021   7.610   3.418   0.595 -0.2525 -0.0748  0.2348
    5MOL   C454 3022   7.659   3.460   0.452  0.0014  0.4813 -0.4176
    5MOL   C455 3023   7.672   3.343   0.347 -0.4100 -0.1810  0.3946
    5MOL   C456 3024   0.015   3.402   0.213  0.1971 -0.1682 -0.0127
    5MOL   O457 3025   7.643   3.402   0.113 -0.2093  0.0533 -0.1855
    5MOL   N458 3026   0.129   3.464   0.208  0.3492  0.1087  0.4808
    5MOL   C459 3027   0.176   3.541   0.102 -0.5788 -0.3401 -0.1576
    5MOL   C460 3028   0.265   3.653   0.156 -0.6566  0.1649  0.1828
    5MOL   C461 3029   0.183   3.760   0.236  0.4086  0.5880  0.1315
    5MOL   C462 3030   0.271   3.881   0.277  0.0762 -0.0199 -0.5349
    5MOL   N463 3031   0.185   3.979   0.338  0.1561 -0.2263 -0.2147
    5MOL   H464 3032   7.639   3.617   0.674  0.8845  0.3045  0.2793
    5MOL   H465 3033   7.580   3.517   0.781 -0.9206 -0.8461 -0.4877
    5MOL   H466 3034   7.694   3.381   0.653  0.1324  0.6134  0.1168
    5MOL   H467 3035   7.527   3.348   0.581 -1.7669  1.7245 -0.0005
    5MOL   H468 3036   0.052   3.512   0.467  0.4675 -0.2700 -0.7374
    5MOL   H469 3037   7.584   3.523   0.404 -2.0248 -1.4257  0.1675
    5MOL   H470 3038   7.575   3.297   0.333 -0.4264 -0.6645  2.0023
    5MOL   H471 3039   0.042   3.268   0.381 -1.2277  0.2076  3.1065
    5MOL   H472 3040   0.186   3.464   0.291  1.1382  1.9301 -0.0202
    5MOL   H473 3041   0.103   3.586   0.035  0.4872  1.6681 -0.0040
    5MOL   H474 3042   0.242   3.475   0.046 -0.2478  0.4751 -0.7351
    5MOL   H475 3043   0.350   3.615   0.214 -1.0617  0.0827  0.7255
    5MOL   H476 3044   0.303   3.706   0.068 -0.2083 -1.2732 -0.5015
    5MOL   H477 3045   0.131   3.724   0.325  2.1925 -1.8964  0.2431
    5MOL   H478 3046   0.096   3.790   0.177 -0.1087 -0.1791  0.4906
    5MOL   H479 3047   0.318   3.932   0.192  0.6140  2.1270  1.0098
    5MOL   H480 3048   0.351   3.847   0.343 -0.2750 -0.7565 -0.4781
    5MOL   H481 3049   0.095   3.990   0.293  0.7706 -1.2604 -1.7458
    5MOL   C482 3050   0.184   4.018   0.471  0.2890 -0.3411  0.3387
    5MOL   O483 3051   0.268   3.984   0.555  0.9115  0.2033  0.3436
    5MOL   C484 3052   0.079   4.120   0.516  0.6277  0.0014 -0.5870
    5MOL   C485 3053   7.695   4.066   0.636  0.2746  0.6053 -0.0034
    5MOL   C486 3054   7.612   3.937   0.606 -0.0807  0.4382 -0.2108
    5MOL   C487 3055   7.485   3.949   0.513 -0.1706 -0.6593 -0.0228
    5MOL   C488 3056   7.513   3.904   0.367  0.0998 -0.5955  0.3145
    5MOL   O489 3057   7.579   3.976   0.291  0.5196  0.6849 -0.1276
    5MOL   N490 3058   7.469   3.782   0.326 -0.3334 -0.7498 -0.7744
    5MOL   C491 3059   7.470   3.731   0.193 -0.1836  0.0131 -0.7056
    5MOL   C492 3060   7.389   3.604   0.179  0.0695 -0.1807 -1.0326
    5MOL   C493 3061   7.238   3.622   0.195 -0.5671  0.3064 -0.3501
    5MOL   C494 3062   7.165   3.486   0.226 -0.1184  0.1205  0.6186
    5MOL   N495 3063   7.195   3.441   0.363 -0.4277  0.2272 -0.3151
    5MOL   H496 3064   0.139   4.196   0.566  2.6710  0.0109 -2.9122
    5MOL   H497 3065   0.029   4.173   0.434 -1.3463  1.9282  1.7785
    5MOL   H498 3066   0.069   4.030   0.707  1.7113  0.2393 -1.6723
    5MOL   H499 3067   7.631   4.144   0.677  2.5618  1.8331  1.3636
    5MOL   H500 3068   7.564   3.915   0.702 -0.6327  2.8561  0.1140
    5MOL   H501 3069   7.674   3.849   0.594 -0.6546 -0.5512  3.3696
    5MOL   H502 3070   7.449   4.052   0.509  0.0605 -0.5666  0.3356
    5MOL   H503 3071   7.402   3.886   0.547 -0.8588  0.0667 -0.3228
    5MOL   H504 3072   7.441   3.718   0.399 -0.6439 -0.7821 -0.9204
    5MOL   H505 3073   7.572   3.713   0.160  0.9808  1.8038  1.7615
    5MOL   H506 3074   7.440   3.813   0.127 -0.5462  1.8978  1.7588
    5MOL   H507 3075   7.406   3.569   0.077 -0.2161 -0.6003 -0.9370
    5MOL   H508 3076   7.425   3.539   0.259  1.9231  0.3634 -1.3927
    5MOL   H509 3077   7.209   3.662   0.098  0.1237 -0.2415 -0.7822
    5MOL   H510 3078   7.215   3.686   0.281 -0.0265 -1.4524  1.1527
    5MOL   H511 3079   7.182   3.400   0.160 -2.2149  0.1707 -0.0246
    5MOL   H512 3080   7.057   3.498   0.232 -0.4574 -1.5289 -1.6393
    5MOL   H513 3081   7.250   3.501   0.422  0.0622  0.6114 -1.1447
    5MOL   C514 3082   7.148   3.327   0.416 -0.4094 -0.7863 -0.5881
    5MOL   O515 3083   7.072   3.252   0.357 -0.3488 -0.0648  0.1318
    5MOL   C516 3084   7.215   3.287   0.548 -0.6119  0.4857 -1.1998
    5MOL   C517 3085   7.181   3.153   0.610  0.0814  0.8324 -0.1716
    5MOL   C518 3086   7.044   3.144   0.673 -0.1618 -0.0189 -0.2405
    5MOL   C519 3087   7.011   3.002   0.734  0.3380 -0.3734  0.4399
    5MOL   C520 3088   7.061   2.970   0.872  0.7143 -0.5593 -0.0760
    5MOL   O521 3089   7.173   2.916   0.886 -0.4827 -0.8356 -0.8394
    5MOL   N522 3090   6.980   3.001   0.977 -0.0592  0.4183  0.9305
    5MOL   C523 3091   7.030   2.993   1.113 -0.8062 -0.0879 -0.0936
    5MOL   C524 3092   6.983   2.857   1.176 -0.1653 -0.0285 -0.1937
    5MOL   C525 3093   7.031   2.856   1.326 -0.0240 -0.4799  0.6790
    5MOL   C526 3094   6.966   2.954   1.427 -0.3175  0.2433  0.2405
    5MOL   N527 3095   6.828   2.941   1.425 -0.1037 -0.0575 -0.2016
    5MOL   H528 3096   7.319   3.293   0.516 -0.8678  3.2633 -1.5891
    5MOL   H529 3097   7.200   3.368   0.619  2.9034 -2.3240  3.1010
    5MOL   H530 3098   7.201   3.075   0.537  0.1601  1.9527 -1.3635
    5MOL   H531 3099   7.255   3.138   0.689 -2.7792 -2.5057  1.9862
    5MOL   H532 3100   6.964   3.178   0.607  1.0266  0.1156 -1.6235
    5MOL   H533 3101   7.062   3.212   0.757  0.1235  1.7797 -1.7187
    5MOL   H534 3102   7.048   2.923   0.668 -2.3461 -1.0937 -0.2365
    5MOL   H535 3103   6.904   2.982   0.737  0.3601 -0.3526  1.5691
    5MOL   H536 3104   6.883   3.020   0.953 -1.0063 -2.2385  2.4343
    5MOL   H537 3105   6.996   3.081   1.168 -1.0723  1.4200 -2.6335
    5MOL   H538 3106   7.138   3.000   1.124 -0.7188  0.1630 -1.0990
    5MOL   H539 3107   6.875   2.843   1.180 -0.0917 -0.9535 -1.1898
    5MOL   H540 3108   7.021   2.770   1.122 -0.9733 -0.4972 -0.0080
    5MOL   H541 3109   7.140   2.856   1.327 -0.0043 -2.8089  1.3465
    5MOL   H542 3110   7.005   2.756   1.360  0.7006 -0.5651  0.9905
    5MOL   H543 3111   6.984   3.054   1.387 -2.1486 -0.0322 -1.3169
    5MOL   H544 3112   7.015   2.948   1.525  0.5019 -1.8271 -0.2741
    5MOL   H545 3113   6.776   3.017   1.384 -1.7621  0.8696  3.4510
    5MOL   C546 3114   6.751   2.845   1.477  0.6441  0.3699  0.2565
    5MOL   O547 3115   6.798   2.742   1.532  0.2032 -0.7484  0.0028
    5MOL   C548 3116   6.606   2.870   1.471  0.3191 -0.0336 -0.2111
    5MOL   C549 3117   6.549   2.923   1.608 -0.5168 -0.2254 -0.2577
    5MOL   C550 3118   6.577   3.078   1.631  0.2113 -0.3089 -0.7952
    5MOL   C551 3119   6.537   3.143   1.763  0.8120 -0.6498 -0.4460
    5MOL   C552 3120   6.389   3.121   1.798  0.2268  0.5268 -0.6377
    5MOL   O553 3121   6.356   3.046   1.893  0.2095 -0.2415 -0.7291
    5MOL   N554 3122   6.295   3.183   1.727 -0.5224 -0.2291 -0.3430
    5MOL   C555 3123   6.153   3.182   1.752  0.0516  0.0865  0.2409
    5MOL   C556 3124   6.100   3.293   1.842  0.1908 -0.5940 -0.3590
    5MOL   C557 3125   5.959   3.263   1.893  0.0060  0.0586  0.3868
    5MOL   C558 3126   5.904   3.366   1.996  0.1283  0.9320  0.1758
    5MOL   N559 3127   5.984   3.405   2.110  0.8916  0.1421 -0.0646
    5MOL   H560 3128   6.579   2.945   1.398 -1.9146  1.5290  2.1446
    5MOL   H561 3129   6.553   2.778   1.446  2.4790 -1.6997  1.0958
    5MOL   H562 3130   6.442   2.900   1.602 -0.9578  1.8028 -0.5612
    5MOL   H563 3131   6.591   2.862   1.688  0.2314  0.7267  0.0844
    5MOL   H564 3132   6.542   3.126   1.540 -1.8936  2.9047  1.5687
    5MOL   H565 3133   6.686   3.088   1.627  0.3347 -0.4936  1.4731
    5MOL   H566 3134   6.558   3.250   1.765  0.9436 -0.6832  1.9037
    5MOL   H567 3135   6.591   3.095   1.844  3.6782 -0.6212 -2.2664
    5MOL   H568 3136   6.325   3.229   1.642 -0.7886  0.3725 -0.1068
    5MOL   H569 3137   6.114   3.089   1.794 -0.6766 -0.0645 -0.7509
    5MOL   H570 3138   6.112   3.182   1.651  0.2765 -0.0571  0.1506
    5MOL   H571 3139   6.170   3.299   1.925 -1.3887 -0.6623  1.0080
    5MOL   H572 3140   6.102   3.389   1.789  1.5959  0.0728  0.8741
    5MOL   H573 3141   5.952   3.161   1.929  0.1336 -1.0899 -2.7142
    5MOL   H574 3142   5.881   3.254   1.817  1.5194 -1.6969 -0.9880
    5MOL   H575 3143   5.803   3.341   2.028  0.6966 -0.2636  1.0660
    5MOL   H576 3144   5.888   3.455   1.935 -1.9617 -0.6462 -1.6674
    5MOL   H577 3145   5.989   3.505   2.122  3.2547  0.0170  0.3549
    5MOL   C578 3146   6.045   3.329   2.200  0.3275 -0.0935  0.0544
    5MOL   O579 3147   6.052   3.210   2.196  0.0546 -0.1619 -0.4806
    5MOL   C580 3148   6.122   3.405   2.318  0.9087  0.0737 -0.3968
    5MOL   C581 3149   6.275   3.415   2.299  0.2876  0.3755  0.4551
    5MOL   C582 3150   6.355   3.282   2.290  0.0312 -0.1971 -0.4765
    5MOL   C583 3151   6.421   3.252   2.163  0.2697 -0.9418  0.4763
    5MOL   C584 3152   6.539   3.152   2.172 -0.2725 -0.9979 -0.2294
    5MOL   O585 3153   6.626   3.168   2.258  0.1976 -1.1266  0.0180
    5MOL   N586 3154   6.537   3.052   2.083 -0.0541 -0.5237  0.8152
    5MOL   C587 3155   6.627   2.940   2.086  0.1856  0.0352  0.0906
    5MOL   C588 3156   6.546   2.813   2.096  0.1215 -0.4295 -0.4767
    5MOL   C589 3157   6.634   2.690   2.118 -0.2163  0.8186  0.1459
    5MOL   C590 3158   6.549   2.566   2.137  0.7247 -0.6379  0.1334
    5MOL   N591 3159   6.466   2.570   2.253  0.6838  0.2016  0.5639
    5MOL   H592 3160   6.081   3.506   2.315 -0.7092 -0.5813 -1.0125
    5MOL   H593 3161   6.109   3.350   2.411  2.2463  0.7399  0.1952
    5MOL   H594 3162   6.300   3.479   2.215  1.5488 -0.2514  0.3410
    5MOL   H595 3163   6.304   3.467   2.390  1.1713 -0.2314  0.5241
    5MOL   H596 3164   6.287   3.199   2.311 -1.0916  0.9821  0.6580
    5MOL   H597 3165   6.428   3.286   2.371  0.2662 -1.5433 -0.6216
    5MOL   H598 3166   6.469   3.343   2.129  0.3729 -1.7420 -1.6080
    5MOL   H599 3167   6.347   3.228   2.086  2.0513 -2.7771 -0.7350
    5MOL   H600 3168   6.463   3.048   2.014 -1.0931 -1.1133  1.9449
    5MOL   H601 3169   6.692   2.947   2.173  1.0269 -1.8382 -0.3789
    5MOL   H602 3170   6.688   2.943   1.996  1.4812  1.2343  0.9835
    5MOL   H603 3171   6.475   2.831   2.176  0.1520  1.9994 -0.9594
    5MOL   H604 3172   6.481   2.807   2.010  0.1181 -2.8455 -0.3342
    5MOL   H605 3173   6.692   2.703   2.210  0.2619 -1.4014  0.2067
    5MOL   H606 3174   6.716   2.673   2.047 -0.5006 -0.3350  0.0794
    5MOL   H607 3175   6.614   2.478   2.141  1.5456 -0.0371  0.1350
    5MOL   H608 3176   6.485   2.546   2.051 -0.4459  0.3981  0.7596
    5MOL   H609 3177   6.515   2.591   2.339  1.9637 -0.3546 -0.0128
    5MOL   C610 3178   6.335   2.549   2.247 -0.1739  1.0953 -0.4391
    5MOL   O611 3179   6.269   2.545   2.146 -0.7835 -0.0458 -0.6026
    5MOL   C612 3180   6.265   2.552   2.378  0.0432 -0.1277  0.1483
    5MOL   C613 3181   6.191   2.421   2.404 -0.4428  0.8391 -0.7011
    5MOL   C614 3182   6.277   2.303   2.457  0.7019  0.0270 -0.1981
    5MOL   C615 3183   6.199   2.178   2.476 -0.4402  0.8084  0.1025
    5MOL   C616 3184   6.281   2.080   2.563  0.1433 -0.8695 -0.4540
    5MOL   O617 3185   6.365   2.010   2.506  0.1419  0.0684  0.6799
    5MOL   N618 3186   6.257   2.082   2.701 -0.0217 -0.2935  0.3507
    5MOL   C619 3187   6.351   2.020   2.797 -0.3670  0.1245  0.3549
    5MOL   C620 3188   6.468   2.109   2.829  0.0215 -0.0348 -0.1629
    5MOL   C621 3189   6.431   2.233   2.903  0.0510  0.0084  0.1146
    5MOL   C622 3190   6.525   2.345   2.885  0.1427  0.0457  0.9556
    5MOL   N623 3191   6.502   2.440   2.991 -0.3968  0.3528  0.3403
    5MOL   H624 3192   6.335   2.585   2.455  1.4097  0.8808 -1.4789
    5MOL   H625 3193   6.196   2.636   2.364  1.3162  1.1109  1.0745
    5MOL   H626 3194   6.118   2.436   2.483  1.9109  0.5114  1.6018
    5MOL   H627 3195   6.131   2.388   2.319  0.8318 -1.4444 -0.7401
    5MOL   H628 3196   6.337   2.327   2.545  4.2772  0.2718 -2.6040
    5MOL   H629 3197   6.358   2.292   2.385  2.4054  1.9540  1.3432
    5MOL   H630 3198   6.169   2.135   2.380  0.9600 -0.3725  0.1919
    5MOL   H631 3199   6.109   2.204   2.531 -1.8976 -1.1826 -1.2708
    5MOL   H632 3200   6.184   2.139   2.739  0.6800  1.1512 -0.3993
    5MOL   H633 3201   6.382   1.924   2.755  0.6932  0.7327 -0.2689
    5MOL   H634 3202   6.302   1.984   2.888  0.5517  0.6646  1.0708
    5MOL   H635 3203   6.548   2.051   2.874  0.0663 -1.1766 -1.6998
    5MOL   H636 3204   6.507   2.142   2.733 -1.8538 -1.5479 -1.4835
    5MOL   H637 3205   6.417   2.200   3.006  0.9291  1.1600  0.6148
    5MOL   H638 3206   6.335   2.255   2.857 -1.0667 -0.5669  2.1138
    5MOL   H639 3207   6.509   2.392   2.788 -1.4706 -0.3526  0.9980
    5MOL   H640 3208   6.629   2.314   2.891  0.2840 -0.4939 -3.1257
    5MOL   H641 3209   6.549   2.527   2.974  1.4878 -0.5155  1.0505
    5MOL   H642 3210   6.533   2.409   3.082  1.6968  3.3697  0.7164
    6MOL     C1 3211   1.593   6.409   6.872 -0.0702  0.1389  0.3306
    6MOL     O2 3212   1.669   6.499   6.835  0.1294  0.4277  0.7102
    6MOL     C3 3213   1.532   6.317   6.769  0.3170  0.2606  0.2801
    6MOL     C4 3214   1.613   6.195   6.729 -0.1999 -0.6224  0.1612
    6MOL     C5 3215   1.749   6.206   6.658  0.4104 -0.3245  0.2316
    6MOL     C6 3216   1.812   6.062   6.638 -0.3465 -0.7155 -0.8124
    6MOL     C7 3217   1.752   5.976   6.522  0.5361 -0.1855  0.2859
    6MOL     O8 3218   1.628   5.961   6.504  0.2221  0.5139 -0.4734
    6MOL     N9 3219   1.842   5.914   6.445 -0.7118 -0.1497 -0.3325
    6MOL    C10 3220   1.807   5.835   6.327  0.1703 -0.0819  0.3962
    6MOL    C11 3221   1.856   5.685   6.322  0.0300  0.3509  0.4413
    6MOL    C12 3222   1.859   5.613   6.461 -0.3230 -0.8415  0.4058
    6MOL    C13 3223   1.719   5.561   6.499  0.6015 -1.2581 -0.1584
    6MOL    N14 3224   1.717   5.524   6.641 -0.4362  0.1326 -0.4299
    6MOL    H15 3225   1.435   6.285   6.809  0.2473  0.9525  0.6801
    6MOL    H16 3226   1.517   6.375   6.678 -0.6067 -0.3620  0.0196
    6MOL    H17 3227   1.641   6.139   6.818  2.3484  1.5671  0.7911
    6MOL    H18 3228   1.553   6.140   6.656  2.5462 -0.8330 -2.0193
    6MOL    H19 3229   1.823   6.272   6.704  0.8198 -0.4142 -0.2941
    6MOL    H20 3230   1.721   6.248   6.561 -0.5323 -1.3792  0.0394
    6MOL    H21 3231   1.806   6.010   6.734 -1.1199 -1.5794 -1.3142
    6MOL    H22 3232   1.917   6.078   6.614 -0.3818  0.6867 -0.0860
    6MOL    H23 3233   1.940   5.915   6.471 -0.6500 -0.2129 -0.5673
    6MOL    H24 3234   1.847   5.885   6.239 -0.0072  1.6289  1.2550
    6MOL    H25 3235   1.698   5.840   6.323  0.1388  1.0580  1.9789
    6MOL    H26 3236   1.801   5.626   6.248 -0.6166  2.4511 -0.7881
    6MOL    H27 3237   1.959   5.677   6.288  0.0270  1.0835  0.2487
    6MOL    H28 3238   1.895   5.678   6.540  1.8838  0.3847 -1.5398
    6MOL    H29 3239   1.926   5.528   6.452  0.9152  0.1825 -0.0885
    6MOL    H30 3240   1.680   5.478   6.441  2.3907 -1.9009 -0.4665
    6MOL    H31 3241   1.653   5.646   6.484  1.0691 -0.8094  0.3032
    6MOL    H32 3242   1.641   5.564   6.694 -0.9666 -1.1229 -0.2243
    6MOL    H33 3243   1.554   6.396   6.974 -3.2341  0.0033 -0.8294
    6MOL    C34 3244   1.783   5.412   6.691 -0.7448  0.4405 -0.4226
    6MOL    O35 3245   1.883   5.365   6.637  0.0041 -0.2545 -0.7917
    6MOL    C36 3246   1.721   5.356   6.814  0.4079  0.6150  0.1068
    6MOL    C37 3247   1.781   5.221   6.857 -0.1804 -0.5375 -0.3889
    6MOL    C38 3248   1.701   5.136   6.956  0.3157 -0.3926  0.1070
    6MOL    C39 3249   1.545   5.116   6.939 -0.2352  0.6124 -0.6708
    6MOL    C40 3250   1.498   4.987   7.008  0.5338 -0.6131  0.9888
    6MOL    O41 3251   1.516   4.971   7.127 -0.1604  0.4233  0.3278
    6MOL    N42 3252   1.442   4.898   6.921  0.4961  0.3900  0.1175
    6MOL    C43 3253   1.417   4.757   6.960  0.0246  0.0899 -0.0716
    6MOL    C44 3254   1.277   4.740   7.019  0.1063 -0.4536 -0.8952
    6MOL    C45 3255   1.255   4.594   7.078  0.1883  0.0389 -0.4698
    6MOL    C46 3256   1.104   4.568   7.108  0.4306 -0.2899  0.0462
    6MOL    N47 3257   1.086   4.423   7.139 -0.3367 -0.2831  0.1105
    6MOL    H48 3258   1.725   5.427   6.896  1.5561  2.6922 -1.6838
    6MOL    H49 3259   1.613   5.346   6.798  0.5809  0.4949 -1.0483
    6MOL    H50 3260   1.806   5.168   6.765  0.0340 -0.9410 -0.0936
    6MOL    H51 3261   1.871   5.248   6.911 -0.0143 -0.2230 -0.8231
    6MOL    H52 3262   1.716   5.170   7.059  0.9730 -2.0199  0.5781
    6MOL    H53 3263   1.752   5.039   6.960  1.1936  0.0833  0.8264
    6MOL    H54 3264   1.523   5.110   6.833  2.0389  1.4114 -1.2148
    6MOL    H55 3265   1.486   5.198   6.981  0.7665  0.4282  1.1365
    6MOL    H56 3266   1.433   4.921   6.823  1.3832 -0.4239 -0.1675
    6MOL    H57 3267   1.497   4.721   7.025  0.3637 -3.1716 -2.1657
    6MOL    H58 3268   1.422   4.696   6.870  2.4179 -0.0913  0.1393
    6MOL    H59 3269   1.286   4.815   7.097 -0.1259 -1.6828  0.3288
    6MOL    H60 3270   1.205   4.756   6.939 -0.7106 -0.5175 -0.1750
    6MOL    H61 3271   1.320   4.585   7.165  0.4943  0.3942 -0.6575
    6MOL    H62 3272   1.288   4.527   6.999  1.8498  2.8913 -2.3178
    6MOL    H63 3273   1.033   4.605   7.034 -0.3340 -1.1273  0.3525
    6MOL    H64 3274   1.073   4.610   7.204 -0.7179 -1.6100  0.2855
    6MOL    H65 3275   1.117   4.392   7.230 -0.6314  0.2418  0.3944
    6MOL    C66 3276   1.030   4.334   7.052 -0.2054  0.2913 -0.2042
    6MOL    O67 3277   0.984   4.369   6.946  0.4891 -0.0374  0.1000
    6MOL    C68 3278   1.029   4.180   7.078  0.2578 -0.5714  0.6569
    6MOL    C69 3279   1.172   4.109   7.058  0.5756  0.6341 -0.1439
    6MOL    C70 3280   1.163   3.959   7.113  0.2888  0.3750  0.0911
    6MOL    C71 3281   1.201   3.957   7.263  0.9448  0.0762  0.5910
    6MOL    C72 3282   1.191   3.810   7.319 -0.5208 -0.3149 -0.3153
    6MOL    O73 3283   1.127   3.718   7.266 -0.2159 -0.1949  0.2310
    6MOL    N74 3284   1.263   3.793   7.432  0.2643 -0.5543  0.3527
    6MOL    C75 3285   1.287   3.664   7.496  0.1070  0.3374  0.2140
    6MOL    C76 3286   1.368   3.562   7.419  0.4296 -0.0129 -0.5144
    6MOL    C77 3287   1.411   3.451   7.512  0.0147 -0.3311  0.2135
    6MOL    C78 3288   1.475   3.340   7.424 -0.7072 -0.3153 -0.1817
    6MOL    N79 3289   1.535   3.238   7.506  0.3689  0.4042 -0.0017
    6MOL    H80 3290   0.984   4.156   7.174  0.6523 -1.3099  0.6614
    6MOL    H81 3291   0.958   4.137   7.007  4.2661 -1.3217 -3.1129
    6MOL    H82 3292   1.196   4.119   6.952  1.1525 -3.7844 -0.5268
    6MOL    H83 3293   1.254   4.162   7.108  0.6283  1.1690 -0.7978
    6MOL    H84 3294   1.228   3.891   7.059 -1.2120 -0.7879 -0.2780
    6MOL    H85 3295   1.067   3.913   7.092  1.4407 -2.5386  1.0641
    6MOL    H86 3296   1.134   4.020   7.323  0.2359  0.4739 -0.5960
    6MOL    H87 3297   1.297   4.007   7.272  1.3584 -0.7960  1.0033
    6MOL    H88 3298   1.324   3.864   7.470 -0.6261  0.8863 -0.8555
    6MOL    H89 3299   1.189   3.634   7.531  0.8057 -2.3756 -0.0566
    6MOL    H90 3300   1.348   3.696   7.581 -2.4673  3.5590  0.9626
    6MOL    H91 3301   1.300   3.529   7.340 -3.3587  0.5550  2.3387
    6MOL    H92 3302   1.459   3.605   7.378  0.9726  0.4037  1.0896
    6MOL    H93 3303   1.316   3.416   7.553 -0.0814  0.2458  0.4917
    6MOL    H94 3304   1.483   3.481   7.589 -0.1738 -0.8418  0.5901
    6MOL    H95 3305   1.555   3.391   7.370 -1.9854  1.0460 -0.8118
    6MOL    H96 3306   1.406   3.307   7.347 -2.1466 -0.3610  1.0892
    6MOL    H97 3307   1.564   3.263   7.599 -1.0051  1.7396  0.0802
    6MOL    C98 3308   1.533   3.109   7.483 -0.0091  0.9652 -0.5314
    6MOL    O99 3309   1.473   3.058   7.388 -0.1264 -0.3017 -0.4601
    6MOL   C100 3310   1.590   3.019   7.597  0.9536  0.4213  0.5233
    6MOL   C101 3311   1.625   2.883   7.548 -0.0446  1.2032 -0.4891
    6MOL   C102 3312   1.667   2.796   7.665  0.3996  0.2148 -0.1786
    6MOL   C103 3313   1.791   2.842   0.035 -0.1393  0.0347 -0.3460
    6MOL   C104 3314   1.858   2.725   0.114 -0.2413 -0.0863 -0.3700
    6MOL   O105 3315   1.795   2.645   0.177  0.0393  0.5196  0.4545
    6MOL   N106 3316   1.992   2.728   0.113 -0.6536 -0.4223  0.2049
    6MOL   C107 3317   2.074   2.628   0.179 -0.0834  0.1281  0.2179
    6MOL   C108 3318   2.208   2.613   0.096  0.4848  0.2708 -0.5310
    6MOL   C109 3319   2.320   2.522   0.166  0.0644 -0.8414  0.9844
    6MOL   C110 3320   2.445   2.484   0.066  0.0911 -0.2937 -0.5082
    6MOL   N111 3321   2.528   2.378   0.131  0.3540  0.5630 -1.1447
    6MOL   H112 3322   1.669   3.069   7.654 -0.3008  0.5289  2.1981
    6MOL   H113 3323   1.510   3.002   7.669 -1.5825  0.3366 -2.1900
    6MOL   H114 3324   1.533   2.842   7.506 -1.6717  2.0143  2.1318
    6MOL   H115 3325   1.697   2.899   7.468  1.1006  1.0584  0.5085
    6MOL   H116 3326   1.688   2.698   7.622  0.2591  0.2181 -0.2521
    6MOL   H117 3327   1.586   2.760   0.027  0.2208 -1.0143 -1.1042
    6MOL   H118 3328   1.764   2.914   0.113  0.4717 -0.3487  0.2202
    6MOL   H119 3329   1.864   2.891   7.672  1.0440 -1.2966 -0.0397
    6MOL   H120 3330   2.043   2.798   0.059  0.3577 -0.2928  1.3152
    6MOL   H121 3331   2.021   2.535   0.200  0.4374 -0.2660 -0.2075
    6MOL   H122 3332   2.103   2.661   0.279  0.3608 -0.8343  0.4137
    6MOL   H123 3333   2.189   2.565   7.701 -2.8987  2.4360 -1.0201
    6MOL   H124 3334   2.251   2.707   0.064  1.2946 -0.4911 -1.7264
    6MOL   H125 3335   2.277   2.423   0.184  1.8293 -1.8158  0.0658
    6MOL   H126 3336   2.342   2.552   0.268 -0.7602  0.3299  0.8222
    6MOL   H127 3337   2.501   2.567   0.023  1.2869 -0.4274  0.7381
    6MOL   H128 3338   2.407   2.425   7.683 -0.5520  1.1292 -1.2216
    6MOL   H129 3339   2.492   2.285   0.122  1.5335 -0.4181  3.1512
    6MOL   C130 3340   2.634   2.401   0.208 -0.0270 -0.3409 -0.3292
    6MOL   O131 3341   2.692   2.509   0.207  0.2541 -0.1749  0.9406
    6MOL   C132 3342   2.684   2.278   0.276 -0.1546 -0.0220 -0.4657
    6MOL   C133 3343   2.800   2.297   0.378 -0.0641  0.0416  0.5248
    6MOL   C134 3344   2.948   2.315   0.316 -0.0400  0.0106 -0.4074
    6MOL   C135 3345   3.052   2.309   0.427  0.0163  0.9056 -0.1449
    6MOL   C136 3346   3.076   2.171   0.487  0.1338 -0.7167  0.5283
    6MOL   O137 3347   3.108   2.082   0.408 -0.2872  0.0821  0.2007
    6MOL   N138 3348   3.050   2.149   0.618  0.2323  0.6253 -0.5597
    6MOL   C139 3349   3.028   2.020   0.690  0.0622 -1.0150 -0.3226
    6MOL   C140 3350   2.916   1.933   0.633  0.8356  0.5801  0.1187
    6MOL   C141 3351   2.861   1.819   0.719  0.3396 -0.0090  0.3902
    6MOL   C142 3352   2.749   1.730   0.649 -0.4132  0.2924 -0.2431
    6MOL   N143 3353   2.652   1.687   0.750 -0.2522 -0.0653  0.0615
    6MOL   H144 3354   2.600   2.227   0.322 -1.0987 -0.1183 -2.2267
    6MOL   H145 3355   2.715   2.221   0.189  0.6890  1.7940 -1.3807
    6MOL   H146 3356   2.781   2.381   0.445 -0.7023  0.5537 -0.2793
    6MOL   H147 3357   2.802   2.208   0.440 -1.2829 -1.4503 -1.5045
    6MOL   H148 3358   2.960   2.406   0.257  1.9635 -0.9325 -1.5217
    6MOL   H149 3359   2.969   2.242   0.238 -1.6025 -0.5548 -0.3192
    6MOL   H150 3360   3.025   2.390   0.495  2.6100  1.3421  0.4114
    6MOL   H151 3361   3.148   2.341   0.386 -0.6581 -0.0708 -2.5130
    6MOL   H152 3362   3.018   2.227   0.675  1.5133 -0.4554  1.6948
    6MOL   H153 3363   3.005   2.041   0.794 -0.9619  2.2185 -1.1327
    6MOL   H154 3364   3.122   1.965   0.697 -0.4114 -2.1861 -2.6368
    6MOL   H155 3365   2.835   1.998   0.597  0.5501  0.4653  0.5567
    6MOL   H156 3366   2.948   1.887   0.539  0.6086 -1.0633  0.8335
    6MOL   H157 3367   2.811   1.864   0.805  0.4312  0.0415  0.4172
    6MOL   H158 3368   2.927   1.745   0.765  1.4300  1.5943  1.4505
    6MOL   H159 3369   2.783   1.645   0.589 -1.8432 -0.6227  0.2117
    6MOL   H160 3370   2.700   1.793   0.575 -1.1978 -0.3442 -0.2680
    6MOL   H161 3371   2.610   1.764   0.800  1.0328  1.7009 -1.5200
    6MOL   C162 3372   2.626   1.562   0.787 -0.1730  0.5867  0.4201
    6MOL   O163 3373   2.676   1.463   0.737  0.0283 -0.6727  0.2271
    6MOL   C164 3374   2.522   1.549   0.899  0.0936 -0.6708  0.2976
    6MOL   C165 3375   2.440   1.418   0.895 -0.0812  0.2496  0.3251
    6MOL   C166 3376   2.513   1.288   0.938 -0.5514  0.4112 -0.3436
    6MOL   C167 3377   2.432   1.171   0.887 -0.0416  0.5247  0.0313
    6MOL   C168 3378   2.439   1.040   0.967 -0.0707 -0.1934  0.4471
    6MOL   O169 3379   2.539   0.994   1.018 -0.5477 -0.0078 -0.0306
    6MOL   N170 3380   2.325   0.973   0.982  0.1305 -0.0371  0.1647
    6MOL   C171 3381   2.294   0.877   1.085  0.4564 -0.3692 -0.3264
    6MOL   C172 3382   2.195   0.770   1.038  0.1159  0.1995  0.0089
    6MOL   C173 3383   2.156   0.682   1.162 -0.4580  0.6320 -0.3462
    6MOL   C174 3384   2.116   0.544   1.108  0.0563  0.1688  0.2048
    6MOL   N175 3385   2.067   0.455   1.214  0.3225 -0.6617 -0.3862
    6MOL   H176 3386   2.579   1.555   0.992  1.2791 -0.2290 -0.4525
    6MOL   H177 3387   2.450   1.630   0.902 -1.3175 -1.8225 -1.3474
    6MOL   H178 3388   2.359   1.424   0.968 -0.1578 -0.1629  0.2755
    6MOL   H179 3389   2.398   1.399   0.796 -0.8680 -1.8591  1.0384
    6MOL   H180 3390   2.523   1.286   1.046  1.6525  0.9005 -0.5140
    6MOL   H181 3391   2.612   1.277   0.893  0.9968  0.2526  2.9735
    6MOL   H182 3392   2.463   1.154   0.784 -0.9632 -0.9209 -0.0131
    6MOL   H183 3393   2.325   1.190   0.885 -0.5417 -2.1127  0.5702
    6MOL   H184 3394   2.240   0.997   0.932  0.9426 -0.8357 -1.6422
    6MOL   H185 3395   2.265   0.917   1.182  1.0611 -4.5668  1.6939
    6MOL   H186 3396   2.382   0.817   1.110 -0.4107 -0.2759  3.1658
    6MOL   H187 3397   2.112   0.821   0.989 -0.9083 -2.9954 -1.6853
    6MOL   H188 3398   2.239   0.706   0.961 -0.7367 -0.8501  0.3829
    6MOL   H189 3399   2.077   0.726   1.223  1.3575  0.6928  2.0277
    6MOL   H190 3400   2.241   0.651   1.222 -2.8938 -1.2463  2.2225
    6MOL   H191 3401   2.191   0.481   1.059  0.0167  1.0154 -0.9548
    6MOL   H192 3402   2.032   0.551   1.038 -0.5816 -0.1611  0.9187
    6MOL   H193 3403   1.970   0.433   1.198  0.2706 -1.6783  1.1912
    6MOL   C194 3404   2.130   0.395   1.318 -0.2613 -0.6375  0.4085
    6MOL   O195 3405   2.249   0.429   1.348  0.3277  0.4855 -0.1137
    6MOL   C196 3406   2.043   0.300   1.406 -1.2048 -0.1901  0.4517
    6MOL   C197 3407   2.058   0.309   1.559 -0.0919  0.6432 -0.9644
    6MOL   C198 3408   1.988   0.435   1.610 -0.2901  0.4793 -0.2452
    6MOL   C199 3409   1.961   0.440   1.766 -0.5354 -0.2650  0.4272
    6MOL   C200 3410   1.862   0.333   1.816  0.2526  0.2688  0.1240
    6MOL   O201 3411   1.752   0.315   1.771  0.0261  0.3648 -0.4779
    6MOL   N202 3412   1.900   0.273   1.932 -0.1728 -0.0775 -0.4962
    6MOL   C203 3413   1.810   0.194   2.014 -0.1801 -0.1512 -0.1581
    6MOL   C204 3414   1.890   0.118   2.119  0.1335 -0.3813  0.5036
    6MOL   C205 3415   1.961   0.209   2.216 -0.0123 -0.6816 -0.0361
    6MOL   C206 3416   2.026   0.130   2.329  0.3094  0.3337 -0.3183
    6MOL   N207 3417   2.095   0.212   2.425  0.3833 -0.2062 -0.6616
    6MOL   H208 3418   1.944   0.305   1.359 -0.8845  1.6764 -0.0676
    6MOL   H209 3419   2.085   0.202   1.384  1.7593  0.5017  2.7360
    6MOL   H210 3420   2.005   0.229   1.610  0.3076  2.7775  2.9936
    6MOL   H211 3421   2.160   0.302   1.596 -0.2825  2.8787  0.0397
    6MOL   H212 3422   1.891   0.447   1.561  0.2634 -0.7525 -1.6768
    6MOL   H213 3423   2.040   0.525   1.577  0.7358  0.8095  2.1730
    6MOL   H214 3424   1.927   0.537   1.804  2.6092  1.2269 -0.3890
    6MOL   H215 3425   2.058   0.428   1.814  1.5153  4.0656 -2.3249
    6MOL   H216 3426   1.991   0.286   1.975 -0.7305 -0.4929  0.8527
    6MOL   H217 3427   1.748   0.130   1.952 -0.4468  1.6117 -1.7581
    6MOL   H218 3428   1.738   0.260   2.062 -0.7495  1.2475 -2.7956
    6MOL   H219 3429   1.814   0.055   2.165 -0.8062 -0.4409 -1.0830
    6MOL   H220 3430   1.956   0.046   2.071  1.1956  0.2265  1.0504
    6MOL   H221 3431   1.883   0.276   2.252 -1.3379 -2.1038 -0.2264
    6MOL   H222 3432   2.040   0.266   2.167 -0.9888  0.1466 -0.6575
    6MOL   H223 3433   2.098   0.057   2.292  1.0651  0.3148  1.1297
    6MOL   H224 3434   1.946   0.076   2.379 -1.0514  0.3729 -2.4077
    6MOL   H225 3435   2.147   0.289   2.386 -0.9289  0.7769 -0.5075
    6MOL   C226 3436   2.103   0.186   2.556  0.4050 -0.1882  0.4435
    6MOL   O227 3437   2.063   0.080   2.603  0.5168  0.0053  0.0705
    6MOL   C228 3438   2.170   0.289   2.641 -0.3968  0.6687 -0.6789
    6MOL   C229 3439   2.091   0.314   2.772  0.1994 -0.4572 -0.7415
    6MOL   C230 3440   1.965   0.386   2.760 -0.3664  0.1627  0.8553
    6MOL   C231 3441   1.861   0.374   2.870  1.0642  0.3340  0.4971
    6MOL   C232 3442   1.743   0.471   2.850 -0.2557 -0.5377  0.1463
    6MOL   O233 3443   1.678   0.459   2.745 -0.5487  0.5084  0.2382
    6MOL   N234 3444   1.732   0.581   2.932 -0.3606  0.5901 -0.0229
    6MOL   C235 3445   1.649   0.699   2.913  0.0797 -0.1321  0.0000
    6MOL   C236 3446   1.736   0.812   2.850  0.9477 -0.9908 -0.0036
    6MOL   C237 3447   1.651   0.939   2.813 -0.6658 -0.1113  0.2467
    6MOL   C238 3448   1.723   1.055   2.741  0.3994 -0.1224 -0.4156
    6MOL   N239 3449   1.854   1.023   2.683 -0.0243  0.0521  0.3271
    6MOL   H240 3450   2.266   0.250   2.676 -0.6875  0.8052  0.2820
    6MOL   H241 3451   2.179   0.388   2.597 -0.6474  0.5144 -1.0744
    6MOL   H242 3452   2.073   0.218   2.820 -2.6373  0.5551  0.2967
    6MOL   H243 3453   2.146   0.369   2.848 -1.2012  1.4403 -1.0800
    6MOL   H244 3454   1.920   0.359   2.664  0.6243 -0.5237  0.5802
    6MOL   H245 3455   1.991   0.491   2.746  3.9069 -1.1421 -1.9626
    6MOL   H246 3456   1.894   0.362   2.973  0.4260  2.4920  0.9704
    6MOL   H247 3457   1.812   0.276   2.866 -0.7768  1.2527 -0.2006
    6MOL   H248 3458   1.789   0.579   3.015 -1.0403  0.2073  0.4410
    6MOL   H249 3459   1.601   0.731   3.005 -2.4806  2.5103 -2.1515
    6MOL   H250 3460   1.574   0.673   2.838 -0.8287  0.7236  0.6062
    6MOL   H251 3461   1.806   0.850   2.924 -0.8470  1.1376  0.6681
    6MOL   H252 3462   1.787   0.772   2.763 -0.6834 -2.3153 -0.3752
    6MOL   H253 3463   1.599   0.960   2.907 -1.6773  2.1168 -0.7633
    6MOL   H254 3464   1.566   0.916   2.748  1.4957 -2.5872 -1.7941
    6MOL   H255 3465   1.730   1.142   2.807  1.3021 -0.1220 -0.5049
    6MOL   H256 3466   1.655   1.092   2.664  0.2125  1.7056  0.5754
    6MOL   H257 3467   1.855   0.957   2.606 -0.7813 -0.5289  0.7992
    6MOL   C258 3468   1.977   1.047   2.731 -0.0470 -0.2412 -0.3321
    6MOL   O259 3469   1.990   1.124   2.823  0.3443  0.8616 -0.5911
    6MOL   C260 3470   2.095   1.012   2.646  0.0138 -0.1398  0.3747
    6MOL   C261 3471   2.210   0.963   2.733  0.0508 -0.4523  0.1964
    6MOL   C262 3472   2.182   0.812   2.788  0.2520 -0.1202  0.3093
    6MOL   C263 3473   2.221   0.693   2.693  0.2321 -0.3681 -0.5138
    6MOL   C264 3474   2.368   0.707   2.643  0.1571 -0.1596  0.2894
    6MOL   O265 3475   2.458   0.744   2.722 -0.1273  0.1329  0.6278
    6MOL   N266 3476   2.397   0.664   2.521  0.1640 -0.3866 -0.2318
    6MOL   C267 3477   2.527   0.658   2.458  0.6834 -0.0577  0.0296
    6MOL   C268 3478   2.604   0.794   2.472 -0.3421 -0.0711 -0.7259
    6MOL   C269 3479   2.712   0.811   2.361  0.1079 -0.1693 -0.4478
    6MOL   C270 3480   2.828   0.901   2.408 -0.0476  0.6626 -0.2080
    6MOL   N271 3481   2.928   0.892   2.307 -0.8877 -0.0194  0.1406
    6MOL   H272 3482   2.066   0.935   2.574 -0.6405 -0.1820  0.6830
    6MOL   H273 3483   2.119   1.100   2.587  2.8159 -0.1942  1.3635
    6MOL   H274 3484   2.306   0.979   2.685  1.4943 -4.2739  1.5990
    6MOL   H275 3485   2.225   1.037   2.812  0.8934 -0.4996  0.0787
    6MOL   H276 3486   2.078   0.801   2.819  0.4404 -2.8486  0.1493
    6MOL   H277 3487   2.228   0.810   2.886 -1.0976  2.7169  1.0488
    6MOL   H278 3488   2.146   0.681   2.615  0.2772 -1.6575 -0.3568
    6MOL   H279 3489   2.206   0.598   2.744 -2.2796  0.8096  1.0570
    6MOL   H280 3490   2.325   0.612   2.472 -0.1807 -0.3125  0.1803
    6MOL   H281 3491   2.513   0.624   2.355 -1.2476  0.5777  0.0644
    6MOL   H282 3492   2.586   0.580   2.507  0.2121 -0.9191 -0.7528
    6MOL   H283 3493   2.539   0.881   2.467 -0.4907  0.0346  2.1935
    6MOL   H284 3494   2.659   0.801   2.565  0.3164  2.1786 -1.2493
    6MOL   H285 3495   2.666   0.846   2.269 -2.0461  2.2859  1.4653
    6MOL   H286 3496   2.746   0.710   2.339 -0.8416 -0.2833 -1.4575
    6MOL   H287 3497   2.863   0.860   2.503  0.1903  0.3879 -0.4147
    6MOL   H288 3498   2.776   0.997   2.414 -1.3240  0.0439 -1.0885
    6MOL   H289 3499   2.974   0.806   2.281 -1.5123 -0.3963  0.2634
    6MOL   C290 3500   2.971   0.999   2.244  0.5348  0.0529 -0.0397
    6MOL   O291 3501   2.919   1.108   2.258  0.2529  0.4602  0.4672
    6MOL   C292 3502   3.088   0.985   2.155  0.1595 -0.4089  0.3180
    6MOL   C293 3503   3.084   1.072   2.025  0.0357 -0.0669 -0.0973
    6MOL   C294 3504   3.119   1.222   2.051  0.7181 -0.5155 -0.2390
    6MOL   C295 3505   3.188   1.291   1.935  0.0459  0.1850 -0.0457
    6MOL   C296 3506   3.187   1.442   1.948 -0.3352 -0.2462 -0.7961
    6MOL   O297 3507   3.215   1.490   2.056 -0.6529 -0.1623 -0.2235
    6MOL   N298 3508   3.154   1.519   1.843  0.1226 -1.0491  0.2495
    6MOL   C299 3509   3.171   1.662   1.827 -0.5835 -0.0136 -0.5097
    6MOL   C300 3510   3.174   1.707   1.685 -0.3304  0.0554  0.2073
    6MOL   C301 3511   3.265   1.627   1.595 -0.3113  0.0023  0.0247
    6MOL   C302 3512   3.298   1.697   1.463 -0.5453 -0.6150  0.2799
    6MOL   N303 3513   3.359   1.826   1.486  0.3108  0.1789 -0.1578
    6MOL   H304 3514   3.178   1.000   2.213  1.2538  0.4297 -1.5463
    6MOL   H305 3515   3.077   0.886   2.110  1.7579  0.1852 -1.4633
    6MOL   H306 3516   3.174   1.032   1.977  1.0395 -0.6530  2.2176
    6MOL   H307 3517   2.993   1.061   1.966  0.6060 -1.3341 -0.7754
    6MOL   H308 3518   3.179   1.237   2.140 -3.6039  4.1252  2.1256
    6MOL   H309 3519   3.026   1.271   2.075  1.4886  1.1155 -0.5281
    6MOL   H310 3520   3.137   1.263   1.843  0.4736 -1.4456  0.1915
    6MOL   H311 3521   3.292   1.259   1.932 -0.1282 -0.5876  1.5308
    6MOL   H312 3522   3.129   1.465   1.762 -2.6687 -2.5284  2.0016
    6MOL   H313 3523   3.261   1.690   1.881  0.2380 -0.5233 -1.6070
    6MOL   H314 3524   3.093   1.723   1.873 -1.6357 -0.3291 -1.8449
    6MOL   H315 3525   3.068   1.706   1.661 -0.0603  0.6442 -1.1047
    6MOL   H316 3526   3.209   1.810   1.680  1.0984 -0.4878 -1.5116
    6MOL   H317 3527   3.213   1.538   1.558  0.9782 -0.7408 -0.0416
    6MOL   H318 3528   3.348   1.586   1.653  1.0845  1.8295 -0.6517
    6MOL   H319 3529   3.204   1.704   1.409 -0.4018  1.3526  0.2356
    6MOL   H320 3530   3.361   1.626   1.409  1.1295 -0.2991  1.7597
    6MOL   H321 3531   3.302   1.909   1.479  0.9929  0.5371 -1.5289
    6MOL   C322 3532   3.485   1.845   1.514 -0.0151 -0.3281 -0.2393
    6MOL   O323 3533   3.565   1.753   1.528 -0.0638  0.4714 -0.1757
    6MOL   C324 3534   3.534   1.984   1.533  0.6073  0.9027  0.8762
    6MOL   C325 3535   3.602   1.999   1.674 -0.3243 -0.2716  0.0478
    6MOL   C326 3536   3.503   1.975   1.793  0.2260 -0.1955  0.1238
    6MOL   C327 3537   3.566   2.002   1.925 -0.3278 -0.4389  0.3416
    6MOL   C328 3538   3.574   2.143   1.973  0.0782  0.1451  1.0395
    6MOL   O329 3539   3.546   2.234   1.899  0.0585 -0.5854  0.5851
    6MOL   N330 3540   3.608   2.166   2.097 -1.0711 -0.3189 -0.3173
    6MOL   C331 3541   3.605   2.294   2.158  0.1403 -0.3490  0.8905
    6MOL   C332 3542   3.674   2.300   2.295 -1.2292 -0.3539  0.3243
    6MOL   C333 3543   3.668   2.445   2.357  0.2882  0.2351  0.0965
    6MOL   C334 3544   3.768   2.474   2.479  0.0596 -0.5066  0.4177
    6MOL   N335 3545   3.769   2.615   2.521 -0.1394 -0.2471 -0.5120
    6MOL   H336 3546   3.597   2.007   1.446  3.0402 -0.7435  2.1447
    6MOL   H337 3547   3.461   2.064   1.541  0.7589  1.0248  1.0548
    6MOL   H338 3548   3.691   1.937   1.676 -1.7084 -2.3115 -0.6304
    6MOL   H339 3549   3.642   2.100   1.689 -0.3129 -0.6032  2.4872
    6MOL   H340 3550   3.459   1.876   1.782  0.9539 -0.4348 -0.7646
    6MOL   H341 3551   3.421   2.043   1.769  0.0122 -0.0856  1.1544
    6MOL   H342 3552   3.667   1.963   1.923 -0.9526 -2.0955  0.1956
    6MOL   H343 3553   3.509   1.953   2.005  0.0539 -0.7026  0.4499
    6MOL   H344 3554   3.645   2.093   2.156  2.9185  1.2446 -0.7363
    6MOL   H345 3555   3.509   2.346   2.156  0.8982  1.1206  1.5200
    6MOL   H346 3556   3.656   2.377   2.109 -1.1032 -0.0366  0.0694
    6MOL   H347 3557   3.624   2.222   2.352 -1.4662 -0.4371  0.0081
    6MOL   H348 3558   3.779   2.275   2.277 -1.5369 -1.5429  0.1471
    6MOL   H349 3559   3.564   2.474   2.370  0.3813  0.6361 -0.0541
    6MOL   H350 3560   3.707   2.511   2.279 -3.5440  0.7154 -1.5107
    6MOL   H351 3561   3.866   2.438   2.449 -0.3699  0.4358 -2.1941
    6MOL   H352 3562   3.730   2.424   2.569  3.0833  1.3941  2.8738
    6MOL   H353 3563   3.723   2.635   2.609 -0.6407  1.2380 -1.0864
    6MOL   C354 3564   3.828   2.711   2.450  0.2181 -0.4965  0.2874
    6MOL   O355 3565   3.889   2.690   2.339 -0.2428  0.2008  0.2679
    6MOL   C356 3566   3.824   2.853   2.508  0.1803 -0.3627 -0.4493
    6MOL   C357 3567   3.873   2.972   2.425  0.1481 -0.6981 -0.0164
    6MOL   C358 3568   3.775   3.021   2.321 -0.0823 -0.3111  0.1520
    6MOL   C359 3569   3.829   3.157   2.261  0.1613 -0.0709  0.4008
    6MOL   C360 3570   3.930   3.130   2.154  0.2000 -0.1145 -0.2661
    6MOL   O361 3571   3.905   3.151   2.036 -0.1293  0.0594 -0.4036
    6MOL   N362 3572   4.052   3.091   2.189  0.1554 -0.1082 -0.5671
    6MOL   C363 3573   4.148   3.037   2.096 -0.0762 -0.1212  0.0928
    6MOL   C364 3574   4.094   2.932   1.995 -0.4549 -0.8667  0.7455
    6MOL   C365 3575   4.205   2.852   1.926 -0.0200 -0.2329 -0.8103
    6MOL   C366 3576   4.144   2.764   1.816 -0.6463  0.7238  1.2452
    6MOL   N367 3577   4.258   2.680   1.768  0.2096  0.1084 -0.3862
    6MOL   H368 3578   3.728   2.853   2.558  0.1953  1.2685 -0.3783
    6MOL   H369 3579   3.893   2.827   2.588  0.1029 -1.5639 -0.7714
    6MOL   H370 3580   3.906   3.052   2.491 -2.3193 -1.8643  2.7826
    6MOL   H371 3581   3.961   2.926   2.381 -0.0668  0.0179 -1.2159
    6MOL   H372 3582   3.689   3.049   2.381  1.6227 -2.0291  3.5521
    6MOL   H373 3583   3.745   2.953   2.242 -0.0672  1.0481 -1.0527
    6MOL   H374 3584   3.864   3.233   2.330  1.3250  0.7126 -1.0161
    6MOL   H375 3585   3.752   3.208   2.204  1.0339  0.1875 -0.5671
    6MOL   H376 3586   4.071   3.077   2.287  0.4687  2.2360 -0.2713
    6MOL   H377 3587   4.230   2.991   2.152 -1.6912 -1.3799  1.4979
    6MOL   H378 3588   4.192   3.117   2.036  1.8508 -0.9889  0.3010
    6MOL   H379 3589   4.035   2.853   2.041  0.4476 -1.9756  0.0433
    6MOL   H380 3590   4.023   2.984   1.931 -0.0506  1.8559  2.4341
    6MOL   H381 3591   4.258   2.788   1.997 -1.5365  0.2136  0.7639
    6MOL   H382 3592   4.285   2.917   1.890 -0.0447  0.5098  0.4317
    6MOL   H383 3593   4.085   2.809   1.736 -0.4306 -0.5961  0.3253
    6MOL   H384 3594   4.079   2.686   1.856 -0.2848 -1.2127 -1.7945
    6MOL   H385 3595   4.345   2.729   1.751  0.1490 -0.4941 -2.7123
    6MOL   C386 3596   4.250   2.557   1.708 -0.2505  0.3327 -0.1399
    6MOL   O387 3597   4.147   2.491   1.687  0.0936  0.3446 -0.3684
    6MOL   C388 3598   4.389   2.502   1.675 -0.1457  0.2901  0.2784
    6MOL   C389 3599   4.394   2.395   1.573  0.2896  0.4937 -0.5990
    6MOL   C390 3600   4.375   2.423   1.424  1.0280 -0.3868  0.3862
    6MOL   C391 3601   4.348   2.301   1.337  0.0895 -0.4338  0.2009
    6MOL   C392 3602   4.239   2.313   1.220 -0.2712 -0.0617 -0.9148
    6MOL   O393 3603   4.121   2.322   1.251 -0.0885 -0.0979  0.0629
    6MOL   N394 3604   4.284   2.317   1.094 -0.3936  0.5860  0.1201
    6MOL   C395 3605   4.204   2.367   0.982  0.2826 -0.1023  0.8447
    6MOL   C396 3606   4.267   2.352   0.839  0.6885 -0.3249  0.1126
    6MOL   C397 3607   4.195   2.428   0.726 -0.4315  1.0470 -0.2949
    6MOL   C398 3608   4.291   2.414   0.606  0.0569  0.5367  0.4216
    6MOL   N399 3609   4.255   2.499   0.492 -0.3193  0.5823  0.2020
    6MOL   H400 3610   4.456   2.573   1.626 -0.3285  0.8678  0.8430
    6MOL   H401 3611   4.433   2.475   1.772 -3.4682 -0.0351  1.7492
    6MOL   H402 3612   4.487   2.346   1.600 -0.3792 -1.2535 -1.3478
    6MOL   H403 3613   4.322   2.319   1.604 -0.5500  1.1038 -1.0440
    6MOL   H404 3614   4.460   2.481   1.387  1.1427 -1.7388 -1.5297
    6MOL   H405 3615   4.291   2.492   1.418  0.1135 -1.6976 -3.1616
    6MOL   H406 3616   4.335   2.207   1.392  0.3546  0.1834  1.3324
    6MOL   H407 3617   4.439   2.287   1.280 -0.1252 -0.3508 -0.1622
    6MOL   H408 3618   4.383   2.309   1.072 -1.0267 -1.4664 -2.2000
    6MOL   H409 3619   4.179   2.471   1.001 -0.1202 -0.1694  0.6853
    6MOL   H410 3620   4.100   2.334   0.981  0.5409 -0.9375 -0.5907
    6MOL   H411 3621   4.369   2.393   0.840 -1.0132  4.2862  3.0938
    6MOL   H412 3622   4.276   2.246   0.815  0.8047 -0.1737 -0.5294
    6MOL   H413 3623   4.183   2.533   0.754 -0.1167  1.1161 -0.4166
    6MOL   H414 3624   4.095   2.390   0.704  0.4207 -1.3415 -0.1271
    6MOL   H415 3625   4.277   2.311   0.573 -3.1753  0.1792  2.6567
    6MOL   H416 3626   4.394   2.429   0.638 -0.8399  1.2955  3.0868
    6MOL   H417 3627   4.158   2.509   0.464 -0.2201  2.5351  0.4814
    6MOL   C418 3628   4.347   2.562   0.411  0.2129 -0.1900 -0.9464
    6MOL   O419 3629   4.467   2.556   0.438  0.6184  0.1412  0.5784
    6MOL   C420 3630   4.293   2.657   0.302 -0.3751 -0.4279  0.9454
    6MOL   C421 3631   4.351   2.635   0.168  0.3015 -0.7115  0.1613
    6MOL   C422 3632   4.282   2.520   0.095  0.3554 -0.9251 -0.7962
    6MOL   C423 3633   4.343   2.471   7.661  0.0899  0.2127 -0.1865
    6MOL   C424 3634   4.489   2.428   7.671 -0.5646  0.5457 -0.0915
    6MOL   O425 3635   4.579   2.518   7.676 -0.0180 -0.1718 -0.2963
    6MOL   N426 3636   4.515   2.297   7.666 -0.3059 -0.2670 -0.7460
    6MOL   C427 3637   4.650   2.246   7.665  0.7976  0.3048  0.1501
    6MOL   C428 3638   4.669   2.151   7.551  0.5688  0.2446  0.5606
    6MOL   C429 3639   4.793   2.061   7.542 -0.3994  0.8046 -0.7304
    6MOL   C430 3640   4.772   1.965   7.426 -0.3358 -0.3018 -1.2333
    6MOL   N431 3641   4.904   1.922   7.373 -0.0408  0.1922  0.7878
    6MOL   H432 3642   4.186   2.641   0.293 -0.1135 -1.1033 -1.2055
    6MOL   H433 3643   4.311   2.762   0.323 -2.3870  0.5962 -2.0774
    6MOL   H434 3644   4.345   2.732   0.118  0.8326 -0.7251  0.0633
    6MOL   H435 3645   4.459   2.615   0.172  0.0252 -2.2485  0.3963
    6MOL   H436 3646   4.178   2.551   0.083  1.1699  1.5671 -1.7372
    6MOL   H437 3647   4.286   2.428   0.153  1.4620 -0.4189 -0.0598
    6MOL   H438 3648   4.356   2.550   7.586  0.1509  0.8106  0.4514
    6MOL   H439 3649   4.275   2.402   7.612  0.5497 -0.2222 -0.2229
    6MOL   H440 3650   4.443   2.234   7.634 -0.2589 -0.4540 -0.4825
    6MOL   H441 3651   4.652   2.194   0.060  0.5365 -0.6093 -0.3294
    6MOL   H442 3652   4.729   2.320   7.669  1.3499 -0.2187 -0.9297
    6MOL   H443 3653   4.585   2.082   7.547 -0.4301  1.4978 -0.8099
    6MOL   H444 3654   4.684   2.213   7.463  3.4242 -0.8045  0.2747
    6MOL   H445 3655   4.813   2.011   7.637 -0.2063  1.5173 -0.3900
    6MOL   H446 3656   4.877   2.125   7.512 -0.5397 -0.4638 -3.9640
    6MOL   H447 3657   4.720   2.025   7.351 -0.8018  2.7673  1.4474
    6MOL   H448 3658   4.711   1.878   7.450 -1.5555  0.3629 -1.8077
    6MOL   H449 3659   4.921   1.933   7.274 -2.1350  1.7778  0.5569
    6MOL   C450 3660   4.979   1.834   7.440 -0.1359  0.5911 -0.1674
    6MOL   O451 3661   4.962   1.805   7.560  0.2051 -0.2377 -0.6078
    6MOL   C452 3662   5.074   1.754   7.349  0.1710 -0.4053 -0.2730
    6MOL   C453 3663   5.213   1.819   7.359  0.3353  0.1704  0.4139
    6MOL   C454 3664   5.230   1.968   7.304  0.8111  0.0663  0.0617
    6MOL   C455 3665   5.381   2.004   7.303 -0.5675  0.1377 -0.0818
    6MOL   C456 3666   5.478   1.929   7.214  0.1885  0.1029 -0.1179
    6MOL   O457 3667   5.433   1.854   7.125  1.0701  0.3286 -0.1485
    6MOL   N458 3668   5.603   1.942   7.240  0.1655 -0.2516  1.0697
    6MOL   C459 3669   5.718   1.875   7.186 -0.4212  0.0718  0.1847
    6MOL   C460 3670   5.833   1.972   7.144  0.3510  0.0763  0.1714
    6MOL   C461 3671   5.807   2.026   6.998  0.5927 -0.5324  1.1211
    6MOL   C462 3672   5.874   2.160   6.967 -0.0663  0.6619 -0.2119
    6MOL   N463 3673   5.941   2.157   6.834 -0.2554 -0.4036 -0.4130
    6MOL   H464 3674   5.092   1.651   7.378  1.3755 -0.4764 -1.2308
    6MOL   H465 3675   5.039   1.758   7.246  0.4689 -2.1212 -0.4513
    6MOL   H466 3676   5.242   1.824   7.465 -1.1652 -0.8207  0.8807
    6MOL   H467 3677   5.286   1.751   7.317  2.7915  2.3559  1.0252
    6MOL   H468 3678   5.169   2.033   7.367 -0.4894  0.7553 -1.8895
    6MOL   H469 3679   5.188   1.972   7.204  0.5814 -0.4641  0.1337
    6MOL   H470 3680   5.431   1.984   7.398 -1.2051  0.6118  0.3525
    6MOL   H471 3681   5.399   2.109   7.283 -0.1961  0.1829  0.4801
    6MOL   H472 3682   5.632   2.024   7.291 -1.6759 -0.5569  2.6440
    6MOL   H473 3683   5.688   1.805   7.108  2.3687 -1.7779  0.6971
    6MOL   H474 3684   5.762   1.809   7.260  0.8860 -0.1442 -0.7630
    6MOL   H475 3685   5.841   2.052   7.218  2.4216  1.2977 -1.3349
    6MOL   H476 3686   5.929   1.920   7.146  0.5315  0.3997  0.0040
    6MOL   H477 3687   5.699   2.041   6.989  0.8336  0.4045 -0.4164
    6MOL   H478 3688   5.833   1.946   6.929  1.1107  0.3006  0.3261
    6MOL   H479 3689   5.948   2.182   7.044 -1.8102 -0.2385  1.7733
    6MOL   H480 3690   5.794   2.233   6.975 -1.4017 -0.7320 -0.5109
    6MOL   H481 3691   5.889   2.213   6.768 -0.6645  0.1788  0.3947
    6MOL   C482 3692   6.070   2.125   6.803  0.3004  0.5151  0.5438
    6MOL   O483 3693   6.123   2.170   6.700 -0.7325  0.4847  0.0169
    6MOL   C484 3694   6.139   2.029   6.903 -0.3764  0.5487  0.3133
    6MOL   C485 3695   6.245   2.102   6.990  0.3683 -0.0526 -0.4594
    6MOL   C486 3696   6.310   2.022   7.103 -0.3950  0.4215 -0.6611
    6MOL   C487 3697   6.423   1.930   7.048 -0.0441 -0.2308  0.0684
    6MOL   C488 3698   6.377   1.785   7.010  0.8406 -0.5351  0.0175
    6MOL   O489 3699   6.328   1.763   6.902  0.0101 -0.0575  0.6102
    6MOL   N490 3700   6.390   1.691   7.101  0.0034 -0.1029  0.1465
    6MOL   C491 3701   6.345   1.552   7.079  0.0760  0.5824  0.0363
    6MOL   C492 3702   6.252   1.492   7.190 -0.2324 -0.2994 -0.1989
    6MOL   C493 3703   6.156   1.589   7.254 -0.1331  0.0843  0.0735
    6MOL   C494 3704   6.078   1.518   7.371  0.4421 -0.2552 -0.3972
    6MOL   N495 3705   6.021   1.393   7.332 -0.8661 -0.8674  0.4360
    6MOL   H496 3706   6.064   1.969   6.955 -1.2409  1.4814  0.1542
    6MOL   H497 3707   6.200   1.969   6.835 -0.2909 -0.1156  0.9667
    6MOL   H498 3708   6.329   2.134   6.927  0.3230  2.1014  0.5467
    6MOL   H499 3709   6.205   2.187   7.044 -1.2411 -0.8041 -0.4418
    6MOL   H500 3710   6.233   1.966   7.155 -0.0737  1.0822  0.5494
    6MOL   H501 3711   6.357   2.093   7.171 -1.9976 -0.3401  1.2904
    6MOL   H502 3712   6.503   1.923   7.122  1.3034  1.9509 -1.1446
    6MOL   H503 3713   6.470   1.981   6.965 -2.9514 -0.1240 -1.5537
    6MOL   H504 3714   6.413   1.709   7.198 -0.2598 -1.3407  0.4508
    6MOL   H505 3715   6.437   1.494   7.082  0.2419  0.8769  0.5593
    6MOL   H506 3716   6.299   1.532   6.982  1.1269 -1.6421 -0.0444
    6MOL   H507 3717   6.218   1.398   7.147 -0.5078 -0.2754 -0.0328
    6MOL   H508 3718   6.325   1.457   7.264 -0.7590  1.4241  1.1570
    6MOL   H509 3719   6.088   1.619   7.174  0.7897 -2.3447 -1.6712
    6MOL   H510 3720   6.198   1.678   7.302  0.3245  0.2475 -0.6224
    6MOL   H511 3721   5.985   1.575   7.382  0.3919 -0.9351  3.3115
    6MOL   H512 3722   6.131   1.504   7.465  0.4849  0.6822 -0.2741
    6MOL   H513 3723   5.937   1.394   7.276 -1.5065  1.3426  1.3841
    6MOL   C514 3724   6.054   1.272   7.385 -0.4846 -0.2937 -0.1812
    6MOL   O515 3725   6.159   1.260   7.451 -0.2748 -0.0687  0.0901
    6MOL   C516 3726   5.963   1.153   7.340 -0.1022 -1.0613 -0.1722
    6MOL   C517 3727   5.933   1.069   7.466  0.0166 -0.4437 -0.8111
    6MOL   C518 3728   5.870   0.933   7.440 -0.2020 -0.0632 -0.2022
    6MOL   C519 3729   5.750   0.948   7.337 -0.4788 -0.2567  0.0711
    6MOL   C520 3730   5.652   0.836   7.357 -0.2326 -0.2505 -0.4642
    6MOL   O521 3731   5.625   0.797   7.470 -0.0374 -0.2319  0.0009
    6MOL   N522 3732   5.606   0.783   7.241 -0.0078  0.0454  1.0579
    6MOL   C523 3733   5.551   0.646   7.227  0.3174  0.4173 -0.3004
    6MOL   C524 3734   5.533   0.604   7.081  0.1722 -0.0768  0.3350
    6MOL   C525 3735   5.422   0.501   7.066  0.2016  0.4142  0.2715
    6MOL   C526 3736   5.419   0.444   6.925 -0.0389  0.1498  0.0194
    6MOL   N527 3737   5.320   0.345   6.907 -0.1012 -0.4048  0.2270
    6MOL   H528 3738   5.868   1.189   7.301  0.8377  1.3062 -0.3473
    6MOL   H529 3739   6.002   1.096   7.255 -1.6020  0.2083 -1.7373
    6MOL   H530 3740   6.025   1.046   7.521  0.0454  1.3964 -0.0434
    6MOL   H531 3741   5.872   1.127   7.536  1.6352  1.6581 -1.0788
    6MOL   H532 3742   5.843   0.883   7.534  1.2689 -2.8854 -1.2267
    6MOL   H533 3743   5.954   0.883   7.393 -0.6603 -0.8912 -0.1584
    6MOL   H534 3744   5.788   0.950   7.235  2.5802 -0.0110  1.1663
    6MOL   H535 3745   5.706   1.047   7.348  0.5927  0.2999 -0.5741
    6MOL   H536 3746   5.617   0.832   7.154  0.0823 -1.1596  0.3845
    6MOL   H537 3747   5.461   0.633   7.286 -1.1027  2.3381 -1.9694
    6MOL   H538 3748   5.623   0.577   7.270  0.3446  0.2651 -0.5899
    6MOL   H539 3749   5.500   0.683   7.014 -0.2484  1.1931  2.0170
    6MOL   H540 3750   5.624   0.557   7.041  0.5829 -0.6308  1.8944
    6MOL   H541 3751   5.320   0.537   7.079  0.9149  1.3450  4.1505
    6MOL   H542 3752   5.427   0.429   7.148 -0.1789  2.4362  2.1285
    6MOL   H543 3753   5.510   0.393   6.894  0.0584  0.2195  0.1908
    6MOL   H544 3754   5.410   0.525   6.852 -1.9370  0.4253  0.5514
    6MOL   H545 3755   5.335   0.249   6.936  1.5032 -0.0955  0.5145
    6MOL   C546 3756   5.200   0.375   6.858  0.0037 -0.6444  0.7443
    6MOL   O547 3757   5.172   0.491   6.824  0.2838  0.4046 -0.3910
    6MOL   C548 3758   5.089   0.270   6.861 -0.5809  0.6597  0.4254
    6MOL   C549 3759   4.963   0.325   6.931 -0.1299 -0.0318 -0.0380
    6MOL   C550 3760   4.983   0.338   7.079 -0.4865 -0.7941 -0.1536
    6MOL   C551 3761   4.966   0.221   7.182 -0.2674 -0.1252  0.3752
    6MOL   C552 3762   5.015   0.255   7.323 -0.8226  0.7112  0.1281
    6MOL   O553 3763   5.043   0.370   7.355  0.1189  0.0598 -0.5409
    6MOL   N554 3764   5.028   0.148   7.406  0.0801 -0.0582  0.1050
    6MOL   C555 3765   5.080   0.145   7.538  0.1352  0.2711 -0.1685
    6MOL   C556 3766   4.984   0.074   7.631 -0.6650 -0.1561  0.0097
    6MOL   C557 3767   4.845   0.139   7.638  0.3333  0.0120  0.2169
    6MOL   C558 3768   4.827   0.247   0.041 -0.1260  0.7651  0.4312
    6MOL   N559 3769   4.692   0.301   0.048  0.5309 -0.2662  0.9686
    6MOL   H560 3770   5.069   0.244   6.757  2.3040  0.5118 -0.1382
    6MOL   H561 3771   5.126   0.183   6.916 -0.5586  0.1716 -0.3598
    6MOL   H562 3772   4.921   0.416   6.889  0.9347  1.2485  1.6164
    6MOL   H563 3773   4.890   0.248   6.905  1.5522 -1.4864 -0.5827
    6MOL   H564 3774   4.899   0.405   7.090 -0.8192 -0.6952 -2.9085
    6MOL   H565 3775   5.067   0.402   7.106 -0.7867 -0.7706  0.7284
    6MOL   H566 3776   5.012   0.127   7.151 -1.5628 -1.4472  2.3442
    6MOL   H567 3777   4.859   0.200   7.180 -0.5726  1.3578  0.7087
    6MOL   H568 3778   4.998   0.059   7.367 -1.5781 -0.1305  1.4829
    6MOL   H569 3779   5.110   0.241   7.580 -0.2540 -0.3444  1.5491
    6MOL   H570 3780   5.172   0.087   7.528 -0.5651 -0.8579 -0.2045
    6MOL   H571 3781   4.977   7.673   7.595  0.2037  0.2382 -1.2821
    6MOL   H572 3782   5.036   0.067   0.025  0.2089  0.8065 -0.3958
    6MOL   H573 3783   4.782   0.053   7.663 -1.7284  1.1160 -1.0940
    6MOL   H574 3784   4.805   0.167   7.541 -0.2359 -0.0934  0.4127
    6MOL   H575 3785   4.890   0.333   0.019  0.5831  0.4803  1.3029
    6MOL   H576 3786   4.860   0.210   0.138  0.1487  0.8190  0.3580
    6MOL   H577 3787   4.674   0.390   0.004  2.0626 -0.0137  0.8198
    6MOL   C578 3788   4.602   0.236   0.122 -0.0552  0.3749  0.8804
    6MOL   O579 3789   4.607   0.127   0.176  0.4342  0.3655  0.1698
    6MOL   C580 3790   4.462   0.301   0.130  0.4762  0.4727  0.3587
    6MOL   C581 3791   4.394   0.322   0.268  0.6166 -0.6038 -0.1763
    6MOL   C582 3792   4.467   0.440   0.337 -0.4934  0.0470  0.0523
    6MOL   C583 3793   4.397   0.476   0.471  0.1417 -0.1552  0.4654
    6MOL   C584 3794   4.398   0.362   0.574  0.8696  0.2322  0.0313
    6MOL   O585 3795   4.318   0.270   0.561  0.8061 -0.3253  0.2757
    6MOL   N586 3796   4.493   0.373   0.670  0.0926 -0.1177  0.7171
    6MOL   C587 3797   4.525   0.276   0.766  0.3174  0.6619 -0.0698
    6MOL   C588 3798   4.428   0.255   0.882  0.4240 -0.5118  0.8002
    6MOL   C589 3799   4.489   0.170   0.988  0.0699 -0.3180 -0.4340
    6MOL   C590 3800   4.399   0.125   1.103  0.3547 -0.1906 -0.0976
    6MOL   N591 3801   4.352   0.235   1.185 -0.4442 -0.6351  0.0426
    6MOL   H592 3802   4.462   0.395   0.075 -0.7685 -0.4850 -1.3389
    6MOL   H593 3803   4.400   0.250   0.056  0.4221  0.2690  0.5433
    6MOL   H594 3804   4.288   0.343   0.250 -0.0700 -1.8003  2.3268
    6MOL   H595 3805   4.394   0.231   0.327  0.8040 -1.1323 -0.9853
    6MOL   H596 3806   4.464   0.527   0.272 -1.4339 -0.6687 -0.8855
    6MOL   H597 3807   4.574   0.425   0.352 -0.3990  2.2652  1.7359
    6MOL   H598 3808   4.292   0.500   0.455 -0.0159  0.7987  2.7528
    6MOL   H599 3809   4.447   0.563   0.513 -1.6016  1.3499 -0.5173
    6MOL   H600 3810   4.552   0.454   0.661  0.3501 -0.4260 -0.5297
    6MOL   H601 3811   4.622   0.313   0.801  1.9673  0.5463 -4.2836
    6MOL   H602 3812   4.541   0.178   0.722 -0.2198 -0.4194  2.0384
    6MOL   H603 3813   4.397   0.352   0.922  1.7069  0.8160 -1.3493
    6MOL   H604 3814   4.330   0.222   0.847  1.1402  0.2482 -2.0499
    6MOL   H605 3815   4.573   0.214   1.042 -0.7045 -0.1078  0.6111
    6MOL   H606 3816   4.527   0.083   0.934  0.0163  0.6021 -1.9972
    6MOL   H607 3817   4.455   0.062   1.172  1.3162 -0.6491 -1.2857
    6MOL   H608 3818   4.307   0.079   1.067 -0.0871  0.3304  0.3544
    6MOL   H609 3819   4.395   0.325   1.178 -0.5955 -0.7392 -3.2222
    6MOL   C610 3820   4.266   0.223   1.286 -0.3940 -0.3971 -0.6150
    6MOL   O611 3821   4.221   0.117   1.319 -0.6322  0.1981 -0.0059
    6MOL   C612 3822   4.239   0.341   1.378  0.5095 -0.3114 -0.6547
    6MOL   C613 3823   4.275   0.325   1.521 -0.1199 -0.6897  0.0610
    6MOL   C614 3824   4.423   0.294   1.560  0.2934 -0.4038  0.1866
    6MOL   C615 3825   4.458   0.339   1.710  1.0729  0.2562 -0.5528
    6MOL   C616 3826   4.362   0.303   1.824 -0.0759  0.5656  0.4444
    6MOL   O617 3827   4.312   0.190   1.827 -0.7414  0.0033 -0.1980
    6MOL   N618 3828   4.321   0.398   1.909  0.0046 -0.1384 -0.0527
    6MOL   C619 3829   4.231   0.378   2.025 -0.2952 -0.1404  0.9293
    6MOL   C620 3830   4.083   0.421   2.004  0.6647  0.6179 -0.3653
    6MOL   C621 3831   4.065   0.563   1.947 -0.3253  0.3445  0.0859
    6MOL   C622 3832   3.919   0.611   1.988 -0.7774  0.3891 -0.6967
    6MOL   N623 3833   3.890   0.726   1.898  0.0836 -0.0018 -0.6244
    6MOL   H624 3834   4.301   0.422   1.340  0.0924  0.5233  0.3970
    6MOL   H625 3835   4.136   0.372   1.357 -0.3758 -1.5304  1.6438
    6MOL   H626 3836   4.246   0.418   1.569  0.9094 -0.4357  0.1999
    6MOL   H627 3837   4.212   0.245   1.562 -0.8779 -0.5610 -0.8503
    6MOL   H628 3838   4.491   0.355   1.501 -1.2339 -0.0080 -1.1839
    6MOL   H629 3839   4.434   0.186   1.551 -0.9627 -0.3436 -2.7498
    6MOL   H630 3840   4.452   0.448   1.713 -1.3709  0.1071  2.5955
    6MOL   H631 3841   4.560   0.315   1.739  0.2322 -0.2366  2.1338
    6MOL   H632 3842   4.355   0.493   1.901 -2.2621  0.8534  1.4895
    6MOL   H633 3843   4.275   0.429   2.110 -0.7038 -0.0817  1.1078
    6MOL   H634 3844   4.235   0.274   2.058  0.0409 -0.6634 -0.7231
    6MOL   H635 3845   4.040   0.348   1.935  0.5448  0.4047 -0.0640
    6MOL   H636 3846   4.038   0.409   2.103 -0.8371  2.4639 -0.7959
    6MOL   H637 3847   4.061   0.553   1.839 -0.7107 -1.2121  0.2212
    6MOL   H638 3848   4.146   0.628   1.980  0.1856 -1.1125  1.8007
    6MOL   H639 3849   3.901   0.643   2.091 -0.7885 -0.7812 -0.3319
    6MOL   H640 3850   3.852   0.527   1.973  0.5125 -0.4538 -1.8445
    6MOL   H641 3851   3.795   0.752   1.921  0.4450  1.8239 -1.1332
    6MOL   H642 3852   3.883   0.687   1.805  0.1005 -1.2842 -0.0999
    7MOL     C1 3853   6.471   3.790   2.422  0.0115 -0.2359  0.3356
    7MOL     O2 3854   6.435   3.748   2.533  0.5806  0.4066  0.2286
    7MOL     C3 3855   6.568   3.714   2.337 -0.1476 -0.4105  0.2367
    7MOL     C4 3856   6.709   3.698   2.396 -0.0107 -0.0396  0.3795
    7MOL     C5 3857   6.737   3.589   2.498 -0.2387  0.0536 -0.7145
    7MOL     C6 3858   6.737   3.445   2.451 -0.2001  0.1414 -0.5130
    7MOL     C7 3859   6.778   3.331   2.551 -0.4311 -0.1378  0.3128
    7MOL     O8 3860   6.806   3.347   2.668 -0.5250  0.6746 -0.4665
    7MOL     N9 3861   6.806   3.219   2.493 -0.3309 -0.4709  0.6733
    7MOL    C10 3862   6.858   3.096   2.551 -0.4120 -0.4944 -0.2767
    7MOL    C11 3863   6.803   2.975   2.475 -0.3048 -0.4475  0.9421
    7MOL    C12 3864   6.653   2.952   2.500 -0.0021  0.7391  0.3092
    7MOL    C13 3865   6.626   2.882   2.629  0.5109 -0.3009  0.4235
    7MOL    N14 3866   6.694   2.755   2.656  0.1547 -0.0848 -0.3988
    7MOL    H15 3867   6.516   3.623   2.308 -1.1605 -0.1861  1.2898
    7MOL    H16 3868   6.584   3.772   2.246  0.0721 -0.2642  0.3670
    7MOL    H17 3869   6.772   3.700   2.307 -1.1780  3.3334 -0.4346
    7MOL    H18 3870   6.746   3.790   2.442  0.7635  0.6398 -1.5498
    7MOL    H19 3871   6.659   3.593   2.574 -1.5233 -0.1750 -2.0042
    7MOL    H20 3872   6.825   3.614   2.557 -1.1164 -0.1221  0.6885
    7MOL    H21 3873   6.825   3.448   2.386  1.2374 -1.3361  1.3310
    7MOL    H22 3874   6.647   3.416   2.396 -0.3743 -0.1121 -0.0904
    7MOL    H23 3875   6.766   3.208   2.400 -1.4476 -1.3930  1.2560
    7MOL    H24 3876   6.837   3.085   2.657 -1.3418 -0.0619 -0.4122
    7MOL    H25 3877   6.966   3.082   2.544 -0.3702 -1.2198  1.6660
    7MOL    H26 3878   6.819   2.979   2.367 -0.5521 -1.7346  0.8506
    7MOL    H27 3879   6.860   2.884   2.494  0.0386 -0.1301  1.4704
    7MOL    H28 3880   6.613   2.886   2.423  0.5113 -2.1103  2.4141
    7MOL    H29 3881   6.595   3.044   2.495  0.3727  0.9705  0.2155
    7MOL    H30 3882   6.518   2.870   2.641  0.5966 -0.3257  1.1995
    7MOL    H31 3883   6.645   2.949   2.713  3.1471 -0.5251  0.0598
    7MOL    H32 3884   6.784   2.764   2.701 -0.5126  1.5520  0.6409
    7MOL    H33 3885   6.434   3.879   2.372  2.0024  0.0825 -0.5897
    7MOL    C34 3886   6.664   2.647   2.587  0.4164  0.4502  0.3986
    7MOL    O35 3887   6.568   2.642   2.508  0.7592 -0.2433  0.2131
    7MOL    C36 3888   6.749   2.519   2.622  0.1971 -0.1853 -0.0917
    7MOL    C37 3889   6.680   2.396   2.566 -0.3545 -0.0077  0.3490
    7MOL    C38 3890   6.744   2.261   2.607  0.1979  0.1355 -0.2614
    7MOL    C39 3891   6.689   2.144   2.521 -0.4108 -0.0019 -0.2792
    7MOL    C40 3892   6.721   2.005   2.566  0.1725  0.7607 -0.2209
    7MOL    O41 3893   6.760   1.979   2.684  0.0419  0.0760  0.8315
    7MOL    N42 3894   6.714   1.913   2.473 -0.1336 -0.4091 -0.6575
    7MOL    C43 3895   6.725   1.770   2.497 -0.1055 -0.5303  0.6031
    7MOL    C44 3896   6.589   1.707   2.493  0.4767 -0.4133  0.1456
    7MOL    C45 3897   6.597   1.556   2.492  0.3040 -0.1918  0.8112
    7MOL    C46 3898   6.666   1.486   2.373  0.5460 -0.1105 -0.0130
    7MOL    N47 3899   6.648   1.340   2.385 -1.1360 -0.0638 -0.2154
    7MOL    H48 3900   6.850   2.528   2.583  1.4321  1.6265  3.2535
    7MOL    H49 3901   6.756   2.509   2.731 -2.0192 -0.7566  0.0096
    7MOL    H50 3902   6.575   2.396   2.595 -0.0015 -1.7477  1.6890
    7MOL    H51 3903   6.678   2.411   2.458  1.3499 -1.3988  0.1114
    7MOL    H52 3904   6.717   2.235   2.709 -1.7612 -0.7540 -0.9612
    7MOL    H53 3905   6.851   2.266   2.590  0.3109 -2.3079 -0.4613
    7MOL    H54 3906   6.717   2.165   2.417  1.5139 -2.4985 -0.3189
    7MOL    H55 3907   6.581   2.132   2.515 -0.5386 -2.6172  4.8998
    7MOL    H56 3908   6.700   1.938   2.376  0.7684 -2.4224 -1.3319
    7MOL    H57 3909   6.781   1.747   2.588 -0.4988 -0.0784  0.9642
    7MOL    H58 3910   6.781   1.729   2.413  1.0173 -0.5465  1.3494
    7MOL    H59 3911   6.534   1.759   2.571  1.7531 -1.6041  1.8756
    7MOL    H60 3912   6.547   1.728   2.395  0.6333  1.5061  0.4826
    7MOL    H61 3913   6.499   1.507   2.496 -0.2906  0.9902  0.9020
    7MOL    H62 3914   6.645   1.534   2.587  1.7659 -1.4954 -0.1930
    7MOL    H63 3915   6.774   1.503   2.377  0.4351  0.3178  1.9524
    7MOL    H64 3916   6.640   1.538   2.282  0.6647  0.5138  0.3063
    7MOL    H65 3917   6.644   1.298   2.477  0.1555  0.7613  0.2344
    7MOL    C66 3918   6.620   1.264   2.281 -0.4157 -0.2705 -0.1025
    7MOL    O67 3919   6.628   1.304   2.167  0.5510 -0.6294 -0.3393
    7MOL    C68 3920   6.560   1.127   2.311  0.4126  0.2468  0.0843
    7MOL    C69 3921   6.546   1.036   2.193 -0.9667 -0.3074 -0.8327
    7MOL    C70 3922   6.670   0.990   2.123  0.7634 -0.0531  0.0321
    7MOL    C71 3923   6.647   0.863   2.033  0.6077  0.0072 -0.5591
    7MOL    C72 3924   6.703   0.730   2.095 -0.4385  0.4001  0.5118
    7MOL    O73 3925   6.734   0.716   2.216  0.1249  0.3773 -0.6266
    7MOL    N74 3926   6.724   0.639   2.006 -0.0511  0.1990  0.2770
    7MOL    C75 3927   6.802   0.517   2.032  0.0249  0.7549  0.0434
    7MOL    C76 3928   6.818   0.435   1.905 -0.4229  0.0618 -0.4595
    7MOL    C77 3929   6.894   0.301   1.928 -0.5418 -0.4992 -0.6778
    7MOL    C78 3930   6.951   0.248   1.796  0.0704 -0.6649  0.4266
    7MOL    N79 3931   7.024   0.133   1.825  0.3450 -0.1579  0.2846
    7MOL    H80 3932   6.606   1.084   2.399  0.8476 -0.7360 -0.6175
    7MOL    H81 3933   6.455   1.140   2.339  0.5803  0.0310  0.8090
    7MOL    H82 3934   6.487   0.949   2.222  0.7085 -0.8516  1.0102
    7MOL    H83 3935   6.490   1.088   2.115 -0.9823 -0.6754 -1.0685
    7MOL    H84 3936   6.732   0.975   2.212  1.0441 -0.8953 -0.3073
    7MOL    H85 3937   6.743   1.058   2.079 -1.2790  0.3133 -2.9477
    7MOL    H86 3938   6.693   0.867   1.934 -1.7645 -2.2673 -1.8022
    7MOL    H87 3939   6.543   0.835   2.020  0.2158 -0.0172  2.2417
    7MOL    H88 3940   6.710   0.664   1.909 -1.7161 -2.0132 -0.0959
    7MOL    H89 3941   6.754   0.454   2.106 -0.2656  2.1895  1.0927
    7MOL    H90 3942   6.903   0.528   2.071 -0.0417 -1.4865  0.9281
    7MOL    H91 3943   6.720   0.414   1.862 -0.1168  1.4751 -1.8900
    7MOL    H92 3944   6.879   0.483   1.829 -0.1446 -1.6176 -1.3234
    7MOL    H93 3945   6.829   0.223   1.968 -2.2922  2.0094  1.5757
    7MOL    H94 3946   6.977   0.318   1.998 -0.8215 -0.0783 -0.4411
    7MOL    H95 3947   7.027   0.316   1.756 -2.5894  2.5970  0.7499
    7MOL    H96 3948   6.875   0.235   1.720  0.7751  0.9870 -0.5958
    7MOL    H97 3949   7.109   0.138   1.879  1.5883 -0.3635 -1.6244
    7MOL    C98 3950   7.003   0.017   1.761  0.6146 -0.2583 -0.2284
    7MOL    O99 3951   6.913   0.007   1.680  0.8444 -0.0528  0.6628
    7MOL   C100 3952   7.080   7.584   1.807 -0.1370 -0.0764  0.0548
    7MOL   C101 3953   7.001   7.506   1.914  0.1625  0.3053  0.6668
    7MOL   C102 3954   6.871   7.431   1.884 -0.1905  0.2982  0.2194
    7MOL   C103 3955   6.888   7.313   1.793  0.2754 -0.0128 -0.2123
    7MOL   C104 3956   6.974   7.196   1.850 -0.4317 -0.2872  0.4383
    7MOL   O105 3957   6.954   7.154   1.964  0.3854 -0.3105  0.7962
    7MOL   N106 3958   7.073   7.152   1.774 -0.5799 -0.7462 -0.2779
    7MOL   C107 3959   7.160   7.043   1.811 -0.4469  0.2028 -0.5385
    7MOL   C108 3960   7.306   7.083   1.789  0.6015 -0.3912  0.8730
    7MOL   C109 3961   7.412   6.976   1.838 -0.0872 -0.1791 -0.0152
    7MOL   C110 3962   7.549   7.052   1.844  0.1714  0.3661  0.1418
    7MOL   N111 3963   7.655   6.969   1.912  0.3412 -0.1544 -0.0902
    7MOL   H112 3964   7.116   7.523   1.724 -1.1510 -0.3929 -0.1498
    7MOL   H113 3965   7.172   7.609   1.860 -0.1430 -0.8792  0.4603
    7MOL   H114 3966   7.070   7.432   1.955  2.0957  0.8721 -1.4708
    7MOL   H115 3967   6.992   7.572   2.000 -0.1356  1.4988 -0.2752
    7MOL   H116 3968   6.789   7.496   1.850 -1.2989 -0.3694  1.5703
    7MOL   H117 3969   6.841   7.399   1.983  0.7962  0.2063  0.4891
    7MOL   H118 3970   6.938   7.347   1.702  2.8012 -1.5922  0.5258
    7MOL   H119 3971   6.790   7.283   1.755  0.2927  1.1728 -1.2215
    7MOL   H120 3972   7.100   7.196   1.687  2.3284 -0.4584  0.7439
    7MOL   H121 3973   7.132   6.953   1.756  1.2704 -0.7422  0.0996
    7MOL   H122 3974   7.147   7.017   1.916  1.5731  1.3490  0.0256
    7MOL   H123 3975   7.325   7.112   1.685 -0.2296  0.2698  0.9013
    7MOL   H124 3976   7.329   7.174   1.843  0.3388 -0.1740  0.6188
    7MOL   H125 3977   7.415   6.887   1.775  0.8430  0.0899 -0.3638
    7MOL   H126 3978   7.390   6.944   1.940 -1.4884  0.1480 -0.1990
    7MOL   H127 3979   7.545   7.145   1.900 -0.6613  0.6185 -0.3322
    7MOL   H128 3980   7.587   7.072   1.744  0.1131 -0.2251  0.0012
    7MOL   H129 3981   7.619   6.910   1.986 -1.2429  0.7138 -0.1497
    7MOL   C130 3982   0.085   6.960   1.885 -0.6079 -0.4972  0.1361
    7MOL   O131 3983   0.144   7.038   1.809 -0.0602 -0.1430 -0.4190
    7MOL   C132 3984   0.167   6.848   1.953  0.1512  0.4157  0.7235
    7MOL   C133 3985   0.268   6.911   2.052  0.0805 -0.4482  0.1574
    7MOL   C134 3986   0.339   6.798   2.127  0.7548  0.1547  0.7572
    7MOL   C135 3987   0.462   6.860   2.202 -1.1835  0.3645 -0.2608
    7MOL   C136 3988   0.559   6.759   2.246 -0.0274 -0.3807  0.3056
    7MOL   O137 3989   0.523   6.650   2.290 -0.0890  0.3290 -0.0136
    7MOL   N138 3990   0.685   6.801   2.262  0.6751 -0.6247  0.0277
    7MOL   C139 3991   0.791   6.725   2.331  1.2824 -0.3401  0.6685
    7MOL   C140 3992   0.930   6.780   2.290 -0.2314 -0.4618  0.4222
    7MOL   C141 3993   1.051   6.688   2.331 -0.9434 -0.2038 -0.3263
    7MOL   C142 3994   1.183   6.753   2.368  1.0062 -0.1872  0.0134
    7MOL   N143 3995   1.217   6.858   2.275 -0.6045  0.2499  0.0215
    7MOL   H144 3996   0.098   6.777   1.998  0.0522 -0.3250 -0.5645
    7MOL   H145 3997   0.216   6.800   1.869 -0.6032  0.9388 -0.0182
    7MOL   H146 3998   0.342   6.964   1.993 -0.5639 -0.4341 -0.6417
    7MOL   H147 3999   0.226   6.983   2.122 -1.0294 -0.8997 -0.0280
    7MOL   H148 4000   0.366   6.723   2.053 -1.1980  0.1641  0.0063
    7MOL   H149 4001   0.270   6.746   2.194 -1.0977  2.9397  1.1285
    7MOL   H150 4002   0.422   6.912   2.290  2.1429  2.5207  0.0679
    7MOL   H151 4003   0.497   6.933   2.129 -0.2157  0.3484  0.1856
    7MOL   H152 4004   0.710   6.890   2.222  3.4925 -1.4357 -0.0578
    7MOL   H153 4005   0.784   6.632   2.275 -1.3499  0.2948 -0.1469
    7MOL   H154 4006   0.780   6.732   2.439 -0.6096 -1.5009  0.5723
    7MOL   H155 4007   0.925   6.793   2.182  1.4040  0.0052  0.3967
    7MOL   H156 4008   0.943   6.873   2.345 -1.4976  0.7028 -1.1931
    7MOL   H157 4009   1.070   6.606   2.262 -0.9483 -0.3763 -0.1264
    7MOL   H158 4010   1.021   6.646   2.428  0.0191  0.6966  0.3732
    7MOL   H159 4011   1.267   6.684   2.376  1.9439  1.1343  2.0046
    7MOL   H160 4012   1.170   6.808   2.461  0.3749  0.3276 -0.3748
    7MOL   H161 4013   1.187   6.952   2.295  1.3857  0.3597  2.7476
    7MOL   C162 4014   1.277   6.849   2.158 -0.7483  0.1943  0.5216
    7MOL   O163 4015   1.324   6.746   2.105  0.5395 -0.1518 -0.3518
    7MOL   C164 4016   1.300   6.991   2.101  0.2939  0.0854  0.5507
    7MOL   C165 4017   1.196   7.048   2.005 -0.7027 -0.2136 -0.3000
    7MOL   C166 4018   1.050   7.038   2.053 -0.4215 -0.0234  0.1200
    7MOL   C167 4019   0.950   7.089   1.948  0.4291  0.3360  0.2133
    7MOL   C168 4020   0.801   7.094   1.990  0.0568  0.3817  0.4407
    7MOL   O169 4021   0.758   7.033   2.091  0.0540  0.1590  0.0781
    7MOL   N170 4022   0.714   7.157   1.906 -0.0768  0.2388 -0.0351
    7MOL   C171 4023   0.577   7.184   1.940 -0.5558  0.5838 -0.1840
    7MOL   C172 4024   0.489   7.248   1.837  0.3332 -0.2307 -0.0312
    7MOL   C173 4025   0.361   7.300   1.907  0.1489 -0.6776  0.0608
    7MOL   C174 4026   0.263   7.378   1.819  0.5062  0.1458  0.0358
    7MOL   N175 4027   0.193   7.303   1.727  0.0136  0.0072  0.4591
    7MOL   H176 4028   1.306   7.059   2.187  0.8471 -0.4373  0.9305
    7MOL   H177 4029   1.398   6.991   2.054 -0.3117  2.9601 -0.8446
    7MOL   H178 4030   1.233   7.149   1.989  2.1472 -0.8952  1.5794
    7MOL   H179 4031   1.199   7.006   1.905  1.2061 -0.0379 -0.3228
    7MOL   H180 4032   1.045   7.082   2.153  3.1105  0.5436  0.1310
    7MOL   H181 4033   1.038   6.931   2.069 -3.4821  0.2039 -0.2949
    7MOL   H182 4034   0.968   7.029   1.859  1.0750 -0.3843  0.8197
    7MOL   H183 4035   0.981   7.189   1.917 -2.8872  0.5409 -2.7711
    7MOL   H184 4036   0.740   7.221   1.832  2.0734 -1.3333 -0.6993
    7MOL   H185 4037   0.580   7.255   2.022 -1.4729  1.3017 -0.7579
    7MOL   H186 4038   0.536   7.087   1.970  2.1622 -0.4227  0.3860
    7MOL   H187 4039   0.540   7.326   1.780  1.4285 -0.5827  0.4518
    7MOL   H188 4040   0.450   7.174   1.768 -0.9920  1.6124 -1.3067
    7MOL   H189 4041   0.384   7.370   1.988 -0.7381 -1.3303  0.8953
    7MOL   H190 4042   0.303   7.224   1.961 -0.8150 -0.4879 -0.6895
    7MOL   H191 4043   0.328   7.453   1.773 -0.7721  1.1084 -0.2160
    7MOL   H192 4044   0.193   7.430   1.885 -0.8804 -0.9546 -0.5450
    7MOL   H193 4045   0.185   7.206   1.755  0.1801 -0.6415 -1.6115
    7MOL   C194 4046   0.102   7.353   1.645  0.1719  0.8167 -0.5792
    7MOL   O195 4047   0.099   7.473   1.623  0.2314  0.5027  0.4029
    7MOL   C196 4048   0.006   7.251   1.571  0.1997 -0.3983  0.2165
    7MOL   C197 4049   0.001   7.289   1.419 -0.6559  0.1937 -0.8134
    7MOL   C198 4050   7.676   7.171   1.329  0.0284  0.0732  0.5197
    7MOL   C199 4051   7.663   7.218   1.180 -0.6811  0.2026 -0.4951
    7MOL   C200 4052   7.521   7.247   1.131  0.2977 -0.3017  0.2436
    7MOL   O201 4053   7.460   7.349   1.166  0.1032 -0.0590  0.2995
    7MOL   N202 4054   7.471   7.167   1.038 -0.0087 -0.1327 -0.3413
    7MOL   C203 4055   7.333   7.196   0.985  0.4741 -0.1482  0.2781
    7MOL   C204 4056   7.248   7.070   0.973 -0.3862 -0.1445  0.2643
    7MOL   C205 4057   7.101   7.112   0.933  0.4759 -0.2124  0.4817
    7MOL   C206 4058   7.018   6.987   0.885 -1.3288  0.4832 -0.0138
    7MOL   N207 4059   6.877   7.009   0.880  0.7451  0.1013 -0.0333
    7MOL   H208 4060   0.055   7.154   1.580 -0.3210 -0.6300  0.5910
    7MOL   H209 4061   7.608   7.248   1.617 -0.0495  0.7913 -0.2281
    7MOL   H210 4062   7.626   7.366   1.409 -0.8039  0.4043  1.4715
    7MOL   H211 4063   0.096   7.329   1.386 -0.8883  1.2465 -0.2381
    7MOL   H212 4064   7.582   7.120   1.353 -1.1428  2.0686  0.3247
    7MOL   H213 4065   0.063   7.107   1.332  1.1379  1.5947  0.7307
    7MOL   H214 4066   0.013   7.143   1.119  0.3168 -0.3457  0.9797
    7MOL   H215 4067   0.029   7.303   1.166  0.9061 -1.4013 -3.0012
    7MOL   H216 4068   7.529   7.097   0.995  0.3030 -0.6081  0.8310
    7MOL   H217 4069   7.332   7.252   0.892 -1.0333 -0.3754  0.1422
    7MOL   H218 4070   7.279   7.247   1.065  1.5534  2.2476 -0.4755
    7MOL   H219 4071   7.293   7.021   0.887 -1.7509 -0.7928 -0.1003
    7MOL   H220 4072   7.247   7.011   1.064 -1.2358 -0.5824 -0.0289
    7MOL   H221 4073   7.094   7.193   0.860 -2.8368 -0.9625 -0.0847
    7MOL   H222 4074   7.060   7.159   1.022 -1.4021 -0.0664 -0.4433
    7MOL   H223 4075   7.043   6.905   0.953 -1.7595 -0.7256 -1.2940
    7MOL   H224 4076   7.049   6.954   0.786  0.5403  0.9708  0.3981
    7MOL   H225 4077   6.831   7.023   0.791  0.1363  1.3505  0.4662
    7MOL   C226 4078   6.803   6.999   0.989 -0.0898 -0.3132  0.3031
    7MOL   O227 4079   6.851   6.973   1.096 -0.4065 -0.3182 -0.8561
    7MOL   C228 4080   6.658   7.048   0.987 -0.2119 -0.1522 -0.5716
    7MOL   C229 4081   6.564   6.930   0.996 -0.6579 -0.1440  0.1115
    7MOL   C230 4082   6.423   6.971   1.024 -0.2638 -0.1570 -0.2563
    7MOL   C231 4083   6.353   7.046   0.911 -0.4075 -0.6314  0.2171
    7MOL   C232 4084   6.301   6.973   0.793 -0.2600 -0.1930 -0.0521
    7MOL   O233 4085   6.351   6.864   0.769  0.1600  0.2459 -0.1892
    7MOL   N234 4086   6.212   7.042   0.720 -0.1364  0.1838  0.4378
    7MOL   C235 4087   6.149   7.002   0.600  0.1350  0.3289  0.2852
    7MOL   C236 4088   6.224   7.056   0.474 -0.1603 -0.3848 -0.6607
    7MOL   C237 4089   6.183   7.006   0.334  0.4083  0.3577 -1.0220
    7MOL   C238 4090   6.288   7.032   0.231 -0.4841 -0.2515  0.6951
    7MOL   N239 4091   6.300   7.176   0.203  0.4230 -0.6447 -0.2021
    7MOL   H240 4092   6.633   7.108   1.075  0.8488 -1.7057  0.8213
    7MOL   H241 4093   6.649   7.114   0.900 -1.5536  1.1716  0.5264
    7MOL   H242 4094   6.569   6.871   0.905 -0.6384  0.4632 -0.2840
    7MOL   H243 4095   6.596   6.862   1.075 -0.8659  0.6429  0.8836
    7MOL   H244 4096   6.411   7.021   1.120  3.0620 -0.2574  0.2739
    7MOL   H245 4097   6.359   6.883   1.026 -0.1360 -0.2323  1.7370
    7MOL   H246 4098   6.410   7.134   0.882  1.2054 -1.9199 -0.6424
    7MOL   H247 4099   6.268   7.093   0.960 -0.5980 -0.0125 -0.6967
    7MOL   H248 4100   6.207   7.140   0.744 -0.8594  0.2350  0.0586
    7MOL   H249 4101   6.050   7.048   0.603  0.6836  1.7432 -1.9008
    7MOL   H250 4102   6.133   6.895   0.590  1.4367  0.3528 -2.5303
    7MOL   H251 4103   6.211   7.164   0.477  1.9332 -0.0618 -1.6777
    7MOL   H252 4104   6.330   7.035   0.489 -0.2494  0.9610  2.1902
    7MOL   H253 4105   6.085   7.051   0.316 -0.7936 -2.0765 -0.7362
    7MOL   H254 4106   6.173   6.899   0.349 -1.5125  0.6891  0.2732
    7MOL   H255 4107   6.263   6.988   0.134 -2.0551  0.6037  0.6987
    7MOL   H256 4108   6.378   6.988   0.274 -0.6617  0.0436  1.3646
    7MOL   H257 4109   6.226   7.223   0.153 -2.4074 -2.2802  2.2539
    7MOL   C258 4110   6.381   7.264   0.262  0.5805  0.1656 -0.6402
    7MOL   O259 4111   6.448   7.227   0.357 -0.0633  0.2364 -0.5943
    7MOL   C260 4112   6.375   7.422   0.233 -0.0650 -0.6261  0.1557
    7MOL   C261 4113   6.240   7.477   0.177  0.3976 -0.4064  0.1619
    7MOL   C262 4114   6.209   7.459   0.024 -0.1646  0.3152 -0.3065
    7MOL   C263 4115   6.060   7.459   0.000  0.0453  0.0443  0.4184
    7MOL   C264 4116   5.996   7.329   0.029  0.2024 -0.5336 -0.3874
    7MOL   O265 4117   5.993   7.286   0.144  0.1100 -0.7838  0.5263
    7MOL   N266 4118   5.944   7.255   7.623  0.2597  0.3261 -0.6178
    7MOL   C267 4119   5.869   7.129   7.622  0.3595  0.3300  0.1783
    7MOL   C268 4120   5.733   7.150   7.681  0.4026 -0.4304  0.5074
    7MOL   C269 4121   5.633   7.028   7.680  0.2340 -0.4947  0.0744
    7MOL   C270 4122   5.504   7.070   0.055 -0.4159 -0.6989  0.0107
    7MOL   N271 4123   5.403   6.967   0.038 -0.5079  0.0215  0.4808
    7MOL   H272 4124   6.390   7.462   0.333  0.6898  0.7853 -0.5104
    7MOL   H273 4125   6.463   7.455   0.179 -0.1750  0.3328  0.5593
    7MOL   H274 4126   6.169   7.419   0.236 -1.1986 -0.8700 -2.1625
    7MOL   H275 4127   6.228   7.582   0.204  2.4549  0.4391 -2.0703
    7MOL   H276 4128   6.256   7.365   7.697  1.6214  0.9319  0.5768
    7MOL   H277 4129   6.265   7.536   7.672  2.4983 -1.2106  0.1679
    7MOL   H278 4130   6.036   7.477   7.597 -0.1782 -0.4675  0.3770
    7MOL   H279 4131   6.002   7.524   0.065 -1.6059 -0.3930 -0.5958
    7MOL   H280 4132   5.961   7.283   7.528 -0.7076  0.6655 -0.6931
    7MOL   H281 4133   5.930   7.054   7.672  0.2108 -1.2001 -1.8560
    7MOL   H282 4134   5.871   7.098   7.518  0.2076  2.8217 -0.5849
    7MOL   H283 4135   5.737   7.164   0.088 -1.6845 -0.4404  0.5933
    7MOL   H284 4136   5.672   7.232   7.644  0.9005 -0.9213 -1.4651
    7MOL   H285 4137   5.686   6.944   0.025 -1.2002  0.5298  3.7563
    7MOL   H286 4138   5.604   7.006   7.578  0.9342 -0.1303 -0.2042
    7MOL   H287 4139   5.466   7.165   0.018  0.7258 -0.2614 -0.0574
    7MOL   H288 4140   5.520   7.074   0.163 -1.2047 -0.5676  0.1264
    7MOL   H289 4141   5.417   6.871   0.064  0.0114 -0.6203 -1.9931
    7MOL   C290 4142   5.282   6.985   7.683 -0.0523 -0.0362 -0.5302
    7MOL   O291 4143   5.247   7.086   7.632 -0.8545  0.1487 -0.4582
    7MOL   C292 4144   5.191   6.853   7.687  0.9847 -0.5947  0.0223
    7MOL   C293 4145   5.113   6.819   7.564  0.0882  0.0795  0.7577
    7MOL   C294 4146   5.005   6.909   7.517  0.5623  0.0649  0.3517
    7MOL   C295 4147   4.924   6.851   7.402  0.6891 -0.6831 -0.2228
    7MOL   C296 4148   4.853   6.953   7.315 -0.1268  0.1429 -0.2175
    7MOL   O297 4149   4.747   7.001   7.347  0.8022 -0.8894 -0.0349
    7MOL   N298 4150   4.904   6.970   7.190 -0.1295  0.0140  0.0430
    7MOL   C299 4151   4.853   7.077   7.115  0.9473  0.0426  0.0636
    7MOL   C300 4152   4.791   7.025   6.979 -0.0269  0.0607  0.1878
    7MOL   C301 4153   4.686   6.909   6.993 -0.1958 -0.4149  0.2055
    7MOL   C302 4154   4.650   6.833   6.870 -0.4774 -0.3403  0.5419
    7MOL   N303 4155   4.756   6.731   6.842 -0.7569 -0.0653 -0.1441
    7MOL   H304 4156   5.256   6.772   0.016  2.1948  0.5684  0.5698
    7MOL   H305 4157   5.112   6.864   0.060 -0.5543  2.5377 -1.9665
    7MOL   H306 4158   5.182   6.808   7.480 -0.7620  1.9823 -0.2229
    7MOL   H307 4159   5.073   6.718   7.571 -1.3274  0.3366 -2.3990
    7MOL   H308 4160   5.045   7.004   7.481  1.2553 -0.0504  0.8196
    7MOL   H309 4161   4.942   6.943   7.600  0.7630 -0.2039  0.6126
    7MOL   H310 4162   4.848   6.791   7.453  0.1275 -0.1345 -0.4197
    7MOL   H311 4163   4.978   6.785   7.334  0.4116 -0.1603 -0.9565
    7MOL   H312 4164   4.984   6.922   7.151 -0.6735 -1.2145  0.4132
    7MOL   H313 4165   4.942   7.135   7.090  1.0684 -0.7120 -1.2820
    7MOL   H314 4166   4.780   7.141   7.165 -0.5726  0.7747 -2.9275
    7MOL   H315 4167   4.742   7.103   6.921 -1.2267 -1.7913 -1.3532
    7MOL   H316 4168   4.874   6.991   6.918  0.3919  0.2758  0.6277
    7MOL   H317 4169   4.592   6.950   7.030  0.7363  1.2873  0.6794
    7MOL   H318 4170   4.718   6.829   7.060  3.4144 -0.1015 -1.0527
    7MOL   H319 4171   4.644   6.895   6.781  1.7135 -1.3345 -0.3207
    7MOL   H320 4172   4.553   6.782   6.866 -0.0189 -1.3045  1.3697
    7MOL   H321 4173   4.826   6.758   6.775 -0.9596  1.5270  0.2522
    7MOL   C322 4174   4.750   6.601   6.865 -0.0552  0.0392 -0.4068
    7MOL   O323 4175   4.677   6.548   6.951  0.5496  1.0089  0.2061
    7MOL   C324 4176   4.848   6.515   6.781 -0.1713  0.6976 -0.6421
    7MOL   C325 4177   4.922   6.414   6.874 -0.3021  0.2705  0.2876
    7MOL   C326 4178   5.020   6.310   6.810 -0.0848 -0.1030 -0.4762
    7MOL   C327 4179   5.093   6.218   6.906  0.4172  0.2278  0.4609
    7MOL   C328 4180   5.009   6.085   6.928 -0.9374 -0.0370 -0.5754
    7MOL   O329 4181   5.006   6.005   6.834  0.0311 -0.1319 -0.2791
    7MOL   N330 4182   4.937   6.074   7.037 -0.4928  0.6303 -0.3739
    7MOL   C331 4183   4.839   5.960   7.055 -0.4478 -0.9074  0.6841
    7MOL   C332 4184   4.791   5.951   7.204  0.1513 -0.4057 -0.5000
    7MOL   C333 4185   4.699   5.831   7.219  0.7693  0.6408  0.0949
    7MOL   C334 4186   4.603   5.852   7.334 -0.0866 -0.1581 -0.0240
    7MOL   N335 4187   4.674   5.906   7.454 -0.4478 -0.4387 -0.2171
    7MOL   H336 4188   4.772   6.471   6.717 -0.8528  2.3877 -1.0259
    7MOL   H337 4189   4.920   6.559   6.711  0.0702 -2.5393 -2.5310
    7MOL   H338 4190   4.978   6.472   6.948 -1.1932  0.8325  0.5302
    7MOL   H339 4191   4.850   6.347   6.922 -0.3748 -0.1888 -0.4612
    7MOL   H340 4192   5.092   6.364   6.749 -2.3731 -0.1181 -3.2731
    7MOL   H341 4193   4.961   6.255   6.737 -0.2560  0.5244 -0.8160
    7MOL   H342 4194   5.108   6.269   7.001 -3.5378  2.8141 -0.1698
    7MOL   H343 4195   5.197   6.198   6.882  0.7613  1.9135  0.5224
    7MOL   H344 4196   4.971   6.135   7.109  1.9443 -1.1212  0.0327
    7MOL   H345 4197   4.900   5.872   7.035  1.5698  0.0894  2.2060
    7MOL   H346 4198   4.758   5.968   6.984  0.3394  1.5666 -0.0039
    7MOL   H347 4199   4.875   5.957   7.273  0.2536 -1.1761 -0.5568
    7MOL   H348 4200   4.739   6.044   7.228  1.2032 -0.0615  0.5028
    7MOL   H349 4201   4.752   5.736   7.230  1.1263  0.9433  0.9723
    7MOL   H350 4202   4.635   5.824   7.130 -0.6387 -1.2510  1.2183
    7MOL   H351 4203   4.561   5.756   7.364 -0.1927 -0.8296 -2.2568
    7MOL   H352 4204   4.519   5.918   7.315  0.4968  0.4689 -0.4689
    7MOL   H353 4205   4.775   5.912   7.454 -0.5260  1.7148  0.9365
    7MOL   C354 4206   4.608   5.946   7.562  1.1858  0.7522 -0.3016
    7MOL   O355 4207   4.481   5.940   7.569  0.0434 -0.1699  0.3381
    7MOL   C356 4208   4.684   5.982   7.689  0.4199  0.0702 -0.0437
    7MOL   C357 4209   4.651   6.118   0.044  0.0404  0.2784  0.4614
    7MOL   C358 4210   4.670   6.239   7.644  0.3354  0.2781 -0.3080
    7MOL   C359 4211   4.670   6.377   0.007 -0.3874 -0.3434 -0.3559
    7MOL   C360 4212   4.796   6.407   0.084  0.4933 -0.4369  0.3228
    7MOL   O361 4213   4.807   6.364   0.194 -0.5372  0.6704  0.2577
    7MOL   N362 4214   4.886   6.492   0.034 -0.1728  0.0451 -0.1122
    7MOL   C363 4215   5.014   6.529   0.095 -0.0751  0.7785  0.4317
    7MOL   C364 4216   5.117   6.470   0.007  0.0924 -0.4163 -0.2363
    7MOL   C365 4217   5.140   6.321   0.003  0.3219 -0.7850 -0.5658
    7MOL   C366 4218   5.190   6.267   7.570  0.3821  0.4313 -0.6073
    7MOL   N367 4219   5.311   6.336   7.524  0.1002  0.4763 -0.1666
    7MOL   H368 4220   4.657   5.903   0.058 -1.9915 -0.0207 -1.0033
    7MOL   H369 4221   4.790   5.983   7.664  0.8388  0.2931  1.6813
    7MOL   H370 4222   4.551   6.119   0.086 -0.2014 -1.5240 -0.0411
    7MOL   H371 4223   4.712   6.145   0.130  0.4516 -1.0481  0.5980
    7MOL   H372 4224   4.590   6.235   7.570  1.1169  0.2667 -1.1513
    7MOL   H373 4225   4.761   6.219   7.587  0.0681 -0.4666 -0.4844
    7MOL   H374 4226   4.581   6.391   0.068 -0.2700  1.7691 -0.6067
    7MOL   H375 4227   4.662   6.457   7.634 -0.6007  1.3116  1.4062
    7MOL   H376 4228   4.872   6.518   7.639  0.8150 -0.1490 -0.3114
    7MOL   H377 4229   5.020   6.507   0.202 -0.9722 -0.2214  0.2887
    7MOL   H378 4230   5.032   6.636   0.089  1.2517  0.4590 -1.8559
    7MOL   H379 4231   5.087   6.504   7.609  0.4423 -0.3415 -0.3182
    7MOL   H380 4232   5.212   6.524   0.017 -0.0415 -0.2750  0.2545
    7MOL   H381 4233   5.051   6.268   0.036  0.2133 -0.1373  0.1972
    7MOL   H382 4234   5.212   6.293   0.080  1.1496 -2.2727 -1.8479
    7MOL   H383 4235   5.109   6.267   7.498 -1.3774 -1.2194  1.3183
    7MOL   H384 4236   5.225   6.167   7.596  2.8555  1.6800  1.0841
    7MOL   H385 4237   5.292   6.431   7.495 -0.6101  0.5228  0.4296
    7MOL   C386 4238   5.431   6.281   7.517 -0.1856  0.4375 -0.7039
    7MOL   O387 4239   5.455   6.162   7.547 -0.3668  0.1634  0.1022
    7MOL   C388 4240   5.544   6.370   7.459  0.2462  0.0844 -0.2074
    7MOL   C389 4241   5.672   6.285   7.424  0.2613 -0.1960  0.3257
    7MOL   C390 4242   5.772   6.384   7.366  0.2121 -0.0347  0.7720
    7MOL   C391 4243   5.904   6.334   7.305  0.5734 -0.4741 -0.7170
    7MOL   C392 4244   5.907   6.304   7.152  0.3198  0.6936 -0.0669
    7MOL   O393 4245   5.861   6.382   7.069  0.0208  0.8106 -0.4892
    7MOL   N394 4246   5.978   6.198   7.116 -0.0385 -0.4936  0.1724
    7MOL   C395 4247   5.998   6.149   6.979  0.0003 -0.1356  0.4576
    7MOL   C396 4248   6.020   5.999   6.970 -0.0004 -0.3039 -0.5912
    7MOL   C397 4249   5.900   5.914   7.020 -0.3470  0.1000 -0.5133
    7MOL   C398 4250   5.919   5.763   7.000  0.0275 -0.0407  0.3041
    7MOL   N399 4251   6.025   5.709   7.080  0.7400  0.4152  0.4799
    7MOL   H400 4252   5.516   6.413   7.363  1.5016  0.4511 -0.4176
    7MOL   H401 4253   5.575   6.445   7.532 -0.7482 -0.5708  0.9236
    7MOL   H402 4254   5.711   6.231   7.510  1.6426  2.8507  1.7002
    7MOL   H403 4255   5.646   6.208   7.352 -2.5475  0.2456  0.8073
    7MOL   H404 4256   5.792   6.461   7.441 -0.8435  0.9886  0.0186
    7MOL   H405 4257   5.723   6.432   7.281  1.5121 -0.0628 -0.0000
    7MOL   H406 4258   5.955   6.252   7.355  3.8076  1.6914 -0.2966
    7MOL   H407 4259   5.978   6.414   7.311  1.9388 -1.7847  0.1829
    7MOL   H408 4260   6.037   6.156   7.186 -0.7454 -0.0683  1.0246
    7MOL   H409 4261   6.071   6.200   6.917  0.4175 -0.6892  0.4941
    7MOL   H410 4262   5.903   6.169   6.929  1.2672  1.3022 -1.4290
    7MOL   H411 4263   6.064   5.965   6.876 -0.2887  0.7452 -1.1191
    7MOL   H412 4264   6.098   5.969   7.040  0.5637  1.4112 -0.4454
    7MOL   H413 4265   5.811   5.953   6.971 -0.0651 -2.6646 -3.4335
    7MOL   H414 4266   5.876   5.935   7.124 -0.4671  3.0520 -1.1050
    7MOL   H415 4267   5.946   5.750   6.895  1.2610  0.7748  0.5037
    7MOL   H416 4268   5.822   5.716   7.015  0.3717 -1.0998 -0.7178
    7MOL   H417 4269   6.120   5.732   7.054  0.4727 -1.1176 -2.0781
    7MOL   C418 4270   6.018   5.612   7.173  0.1302 -0.3247 -0.3952
    7MOL   O419 4271   5.919   5.561   7.219 -0.2479 -0.4623 -0.3459
    7MOL   C420 4272   6.158   5.560   7.215  0.3214 -0.0846 -0.8487
    7MOL   C421 4273   6.182   5.412   7.184 -0.5480 -0.7781 -0.0961
    7MOL   C422 4274   6.310   5.364   7.258  0.3370  0.5140 -0.2436
    7MOL   C423 4275   6.355   5.218   7.228 -0.8562 -0.5447 -0.4937
    7MOL   C424 4276   6.267   5.114   7.301  0.7292 -0.1426  0.0205
    7MOL   O425 4277   6.148   5.098   7.271  0.1144 -0.7486  0.0758
    7MOL   N426 4278   6.328   5.049   7.397 -0.2526  0.3854 -1.0084
    7MOL   C427 4279   6.282   4.946   7.488  0.0640  0.5978  0.0216
    7MOL   C428 4280   6.397   4.912   7.581  0.2998 -0.7913 -0.0550
    7MOL   C429 4281   6.367   4.819   7.696  0.1519  0.5085 -0.3952
    7MOL   C430 4282   6.336   4.677   7.649  0.1888  0.7506  0.4361
    7MOL   N431 4283   6.275   4.589   0.050  0.4480 -0.1942  0.0393
    7MOL   H432 4284   6.236   5.621   7.168  0.1582  0.8661  0.0886
    7MOL   H433 4285   6.167   5.587   7.320  0.6346 -2.1567 -0.3363
    7MOL   H434 4286   6.097   5.351   7.212 -0.5797 -0.2621  0.9510
    7MOL   H435 4287   6.196   5.412   7.076  0.1677  1.7037 -0.0366
    7MOL   H436 4288   6.318   5.401   7.360  0.2692  0.2108 -0.1265
    7MOL   H437 4289   6.390   5.421   7.213  2.1900 -0.9058  1.1694
    7MOL   H438 4290   6.461   5.207   7.252 -0.3435  1.4531 -1.7193
    7MOL   H439 4291   6.369   5.197   7.122 -0.8125 -0.8940 -0.4180
    7MOL   H440 4292   6.427   5.069   7.397  0.5158 -2.5366  3.9076
    7MOL   H441 4293   6.248   4.871   7.417 -1.3274  0.4212  0.8499
    7MOL   H442 4294   6.201   4.977   7.554 -1.2179  1.3679 -1.8665
    7MOL   H443 4295   6.486   4.868   7.536  0.8003 -0.9957  1.1176
    7MOL   H444 4296   6.437   5.003   7.625  0.0663 -0.4850 -0.4725
    7MOL   H445 4297   6.283   4.859   0.051 -0.6390 -1.1391 -0.3871
    7MOL   H446 4298   6.459   4.804   0.050  0.5160 -0.3621 -1.2231
    7MOL   H447 4299   6.412   4.623   7.593 -0.5935  0.9856 -0.8691
    7MOL   H448 4300   6.257   4.682   7.575 -1.0869 -1.4802  1.6066
    7MOL   H449 4301   6.175   4.589   0.057  0.3717 -2.8204 -0.3546
    7MOL   C450 4302   6.343   4.507   0.131 -0.0078  0.3746  0.0134
    7MOL   O451 4303   6.467   4.497   0.127  0.1212  0.4821  0.2987
    7MOL   C452 4304   6.261   4.431   0.231 -0.1761  0.5466  0.0734
    7MOL   C453 4305   6.179   4.322   0.172  0.2095 -0.1127  0.8489
    7MOL   C454 4306   6.099   4.237   0.275 -0.4201 -0.1093  0.8036
    7MOL   C455 4307   6.020   4.132   0.198 -0.4801  0.2692 -0.5987
    7MOL   C456 4308   5.985   4.000   0.266  0.6036  0.0818 -0.1503
    7MOL   O457 4309   6.077   3.925   0.294  0.1971  0.5765  0.0660
    7MOL   N458 4310   5.853   3.974   0.284  0.8442 -0.2818  0.9887
    7MOL   C459 4311   5.794   3.850   0.332 -0.6097  0.4262 -0.5132
    7MOL   C460 4312   5.689   3.798   0.234  0.1407 -0.3120 -0.3065
    7MOL   C461 4313   5.633   3.662   0.266  0.4092  0.1924 -0.5461
    7MOL   C462 4314   5.553   3.612   0.152 -0.6393 -0.3514  0.6947
    7MOL   N463 4315   5.437   3.693   0.121  0.1087  0.0440  0.2316
    7MOL   H464 4316   6.324   4.385   0.306 -0.0514  2.4556  1.1682
    7MOL   H465 4317   6.191   4.497   0.282  1.2025  0.7282  1.7692
    7MOL   H466 4318   6.116   4.372   0.098  0.4634  0.9289  1.3169
    7MOL   H467 4319   6.243   4.253   0.118  0.6744  1.5446 -0.7362
    7MOL   H468 4320   6.043   4.314   0.328 -1.6937 -2.5528  3.1660
    7MOL   H469 4321   6.161   4.181   0.345  0.2498 -1.2936 -0.6969
    7MOL   H470 4322   6.065   4.092   0.107 -1.6464 -0.1065 -1.0272
    7MOL   H471 4323   5.929   4.185   0.168 -0.9805 -1.8250 -2.9516
    7MOL   H472 4324   5.791   4.053   0.284  0.4122 -0.6163 -0.7517
    7MOL   H473 4325   5.739   3.871   0.424 -0.5713  0.6369 -0.5404
    7MOL   H474 4326   5.869   3.770   0.342 -1.3962 -0.5268 -2.1039
    7MOL   H475 4327   5.611   3.874   0.229  1.2528  1.2933  4.2725
    7MOL   H476 4328   5.726   3.796   0.131  2.2995  3.4518  0.2635
    7MOL   H477 4329   5.576   3.666   0.358  1.5279  1.7590  0.0986
    7MOL   H478 4330   5.716   3.597   0.292 -0.8270 -1.0936  0.2720
    7MOL   H479 4331   5.522   3.514   0.188 -1.3070  0.3970  2.2278
    7MOL   H480 4332   5.611   3.596   0.061 -0.3775 -4.4311  1.4752
    7MOL   H481 4333   5.362   3.688   0.188 -0.8162  2.0806 -0.6136
    7MOL   C482 4334   5.409   3.757   0.007  0.0429  0.9393  0.1648
    7MOL   O483 4335   5.485   3.759   7.613 -0.0487  0.7429 -0.0395
    7MOL   C484 4336   5.270   3.824   7.688  0.0143 -0.3031 -1.3458
    7MOL   C485 4337   5.270   3.980   7.677  0.4085 -0.8084 -0.0926
    7MOL   C486 4338   5.127   4.045   7.670 -0.2690  0.2491 -0.1787
    7MOL   C487 4339   5.127   4.197   7.681  0.2831  0.1159  1.2346
    7MOL   C488 4340   4.992   4.250   7.621  0.3984  0.0213 -0.0227
    7MOL   O489 4341   4.887   4.197   7.665  0.4324  0.8139  0.0124
    7MOL   N490 4342   4.984   4.348   7.529  0.1269  0.2536 -0.4397
    7MOL   C491 4343   4.859   4.409   7.471 -0.6841  0.5615 -0.6610
    7MOL   C492 4344   4.838   4.349   7.335  0.5872  0.4468  0.5939
    7MOL   C493 4345   4.755   4.218   7.338 -0.0177 -0.6895 -0.0437
    7MOL   C494 4346   4.694   4.183   7.200  0.3152  0.1153  0.0088
    7MOL   N495 4347   4.637   4.046   7.199 -0.4377 -0.1551  0.1515
    7MOL   H496 4348   5.222   3.776   7.603 -2.2580  2.4018 -1.6464
    7MOL   H497 4349   5.219   3.802   0.081  0.2728 -0.1152 -1.1617
    7MOL   H498 4350   5.324   4.011   0.065  0.1601  0.2445 -0.3038
    7MOL   H499 4351   5.333   4.004   7.591 -0.3550 -0.8364 -0.6681
    7MOL   H500 4352   5.064   3.998   0.045  1.7584  0.9586  1.9995
    7MOL   H501 4353   5.076   4.020   7.577 -0.2811 -0.8677  0.1136
    7MOL   H502 4354   5.209   4.236   7.620  0.3217 -0.4104  0.9388
    7MOL   H503 4355   5.129   4.238   0.080  2.0837 -0.5971  1.5008
    7MOL   H504 4356   5.075   4.390   7.519 -0.4251  2.2649  2.4161
    7MOL   H505 4357   4.856   4.517   7.460  0.3884  0.7857  1.1693
    7MOL   H506 4358   4.776   4.400   7.541 -1.1671  0.5113 -1.2284
    7MOL   H507 4359   4.785   4.425   7.277 -0.5320  0.6725  1.8951
    7MOL   H508 4360   4.924   4.340   7.268 -2.0365 -1.4852 -2.6941
    7MOL   H509 4361   4.676   4.228   7.413  0.3789  1.2872  0.1467
    7MOL   H510 4362   4.816   4.131   7.360  0.1617 -0.1121  1.8888
    7MOL   H511 4363   4.775   4.186   7.127 -0.6868  2.7255 -1.0272
    7MOL   H512 4364   4.619   4.254   7.166  1.0828  0.8544 -0.1504
    7MOL   H513 4365   4.637   4.002   7.290 -1.6451 -0.4631 -0.0015
    7MOL   C514 4366   4.549   4.007   7.105  0.3789  0.9430 -0.6091
    7MOL   O515 4367   4.536   4.068   6.995 -0.0588 -1.0985 -0.2076
    7MOL   C516 4368   4.457   3.883   7.130  0.0422 -0.6518 -0.1846
    7MOL   C517 4369   4.399   3.818   7.010  0.0203  0.2531  0.1465
    7MOL   C518 4370   4.342   3.679   7.043  1.1274  0.3845  0.3259
    7MOL   C519 4371   4.251   3.615   6.932  0.3022 -0.0452  0.1848
    7MOL   C520 4372   4.105   3.674   6.924 -0.0635  0.3584 -0.2286
    7MOL   O521 4373   4.063   3.763   6.999  0.4248  0.5260 -0.0361
    7MOL   N522 4374   4.029   3.603   6.843 -0.0061 -0.0538  0.0079
    7MOL   C523 4375   3.894   3.636   6.796  0.8993  0.0558  0.3987
    7MOL   C524 4376   3.902   3.736   6.684  0.2840 -0.3515 -0.1025
    7MOL   C525 4377   3.986   3.678   6.563 -0.2712  0.5062  0.3627
    7MOL   C526 4378   3.985   3.766   6.443 -0.4704  0.2825 -0.3594
    7MOL   N527 4379   4.064   3.713   6.332 -0.0557  0.3228  0.0083
    7MOL   H528 4380   4.519   3.808   7.179  0.5970  0.5402  0.9720
    7MOL   H529 4381   4.380   3.918   7.200  1.0340 -0.0822  0.6284
    7MOL   H530 4382   4.322   3.881   6.966 -1.1263 -0.7474  0.6844
    7MOL   H531 4383   4.474   3.814   6.931  0.1754  0.9009  0.2610
    7MOL   H532 4384   4.279   3.685   7.131 -3.3587 -3.0133 -2.3824
    7MOL   H533 4385   4.426   3.611   7.059  0.4996 -0.5707 -0.3036
    7MOL   H534 4386   4.245   3.506   6.943 -4.1205  0.0450 -0.6899
    7MOL   H535 4387   4.303   3.633   6.838 -1.1648  2.0308 -0.2371
    7MOL   H536 4388   4.070   3.530   6.787 -0.2164  2.4047 -3.5400
    7MOL   H537 4389   3.836   3.683   6.876 -0.2273  1.1143 -1.0093
    7MOL   H538 4390   3.845   3.540   6.781 -0.9056  0.8860  0.8534
    7MOL   H539 4391   3.800   3.766   6.662 -0.0548 -1.1121  0.3885
    7MOL   H540 4392   3.950   3.831   6.707  2.1013 -1.1743 -0.4125
    7MOL   H541 4393   3.935   3.587   6.533  1.5248 -0.8657  1.3787
    7MOL   H542 4394   4.089   3.653   6.589  0.2481 -0.3050 -2.3317
    7MOL   H543 4395   4.028   3.861   6.473  1.2436 -0.9564  1.1868
    7MOL   H544 4396   3.881   3.779   6.412  0.0627  2.3663 -1.3134
    7MOL   H545 4397   4.155   3.672   6.349 -0.1103 -0.5852 -1.8016
    7MOL   C546 4398   4.022   3.697   6.208 -0.3528  0.8769  0.0979
    7MOL   O547 4399   3.913   3.734   6.168  0.0119 -0.4803  0.0138
    7MOL   C548 4400   4.100   3.608   6.112 -0.1793 -0.7461  0.0709
    7MOL   C549 4401   4.121   3.670   5.974 -0.5314 -0.1555 -0.3466
    7MOL   C550 4402   4.168   3.812   5.966 -0.3795 -0.0210 -0.1700
    7MOL   C551 4403   4.247   3.840   5.841  0.8466  0.0419  0.8012
    7MOL   C552 4404   4.163   3.835   5.711 -0.6026 -0.6728 -0.9755
    7MOL   O553 4405   4.103   3.935   5.673  0.3308 -0.0381 -0.2310
    7MOL   N554 4406   4.173   3.717   5.638  0.7370 -0.3661 -0.2039
    7MOL   C555 4407   4.096   3.685   5.514 -0.2053  0.9195  0.1882
    7MOL   C556 4408   4.014   3.562   5.534  0.1939 -0.0329  0.3899
    7MOL   C557 4409   3.919   3.566   5.417  0.5170  0.3604 -0.7197
    7MOL   C558 4410   3.812   3.449   5.415 -0.3427 -0.5079 -0.2499
    7MOL   N559 4411   3.703   3.463   5.512 -0.0209 -1.0391  0.1552
    7MOL   H560 4412   4.199   3.575   6.143  0.2823 -0.6168 -1.2186
    7MOL   H561 4413   4.040   3.518   6.098  0.3354 -1.5901  2.8863
    7MOL   H562 4414   4.192   3.608   5.918 -1.5432  0.9711 -2.9247
    7MOL   H563 4415   4.033   3.654   5.912 -0.3245  2.4404 -1.3690
    7MOL   H564 4416   4.225   3.833   6.057 -0.5823  0.6064 -0.1917
    7MOL   H565 4417   4.080   3.875   5.965  0.7212  1.5539  0.9050
    7MOL   H566 4418   4.339   3.781   5.837  1.0591  0.4752 -0.7945
    7MOL   H567 4419   4.283   3.941   5.863 -0.2843  0.8112 -0.7908
    7MOL   H568 4420   4.228   3.644   5.680 -0.1721 -0.5016  0.7822
    7MOL   H569 4421   4.172   3.670   5.437 -1.9906  0.6837 -1.5855
    7MOL   H570 4422   4.034   3.770   5.486 -1.0771  0.6252  1.1916
    7MOL   H571 4423   4.068   3.468   5.544 -0.6953 -0.7717 -1.6161
    7MOL   H572 4424   3.956   3.573   5.626 -3.6202 -4.7050 -1.2117
    7MOL   H573 4425   3.985   3.568   5.329 -2.4943 -0.5094 -3.0644
    7MOL   H574 4426   3.856   3.654   5.406 -1.1467 -0.9229 -1.7490
    7MOL   H575 4427   3.842   3.349   5.449  2.1163 -0.3129 -1.7625
    7MOL   H576 4428   3.762   3.441   5.319  1.4221  1.5910 -1.3595
    7MOL   H577 4429   3.717   3.534   5.582  1.9911 -0.6138 -0.6375
    7MOL   C578 4430   3.597   3.379   5.512  0.2810  0.5003  0.7206
    7MOL   O579 4431   3.577   3.296   5.425  0.1033  0.0615  0.3457
    7MOL   C580 4432   3.514   3.379   5.633  0.2680 -0.0745  0.2230
    7MOL   C581 4433   3.358   3.398   5.601  0.0308  0.5532 -0.4475
    7MOL   C582 4434   3.323   3.534   5.530 -0.7315  0.7882 -0.6122
    7MOL   C583 4435   3.341   3.663   5.616  0.1440  0.1783  0.1220
    7MOL   C584 4436   3.256   3.779   5.569 -0.9585 -0.0701 -0.7007
    7MOL   O585 4437   3.239   3.789   5.449 -0.0079  0.0008  0.1742
    7MOL   N586 4438   3.217   3.869   5.657  1.1240 -0.4112 -0.6449
    7MOL   C587 4439   3.141   3.990   5.630 -0.3417  0.5621  0.9352
    7MOL   C588 4440   3.234   4.110   5.657  0.1274  0.3145 -0.2413
    7MOL   C589 4441   3.267   4.121   5.808  0.3391  0.1831  0.3700
    7MOL   C590 4442   3.348   4.248   5.848  0.5558  0.2649  1.0088
    7MOL   N591 4443   3.477   4.248   5.782  0.1775 -0.3191  0.2376
    7MOL   H592 4444   3.542   3.285   5.680 -0.2650 -0.8703 -1.0032
    7MOL   H593 4445   3.547   3.467   5.688  1.0924  0.1098 -0.5476
    7MOL   H594 4446   3.307   3.318   5.547 -0.3877 -2.1222  3.6919
    7MOL   H595 4447   3.316   3.396   5.701  0.0983  2.5655 -0.3618
    7MOL   H596 4448   3.219   3.524   5.500 -0.7940  0.6691 -0.3555
    7MOL   H597 4449   3.388   3.537   5.443 -0.2101  1.0369 -0.2164
    7MOL   H598 4450   3.444   3.692   5.638 -0.9362  3.4569  1.1884
    7MOL   H599 4451   3.304   3.640   5.716  0.2905  2.4604  0.7199
    7MOL   H600 4452   3.239   3.853   5.754  0.2873  1.3122 -0.1456
    7MOL   H601 4453   3.063   3.992   5.706  0.4127  0.5960  1.7148
    7MOL   H602 4454   3.106   3.985   5.527 -1.7091 -0.0848  1.4227
    7MOL   H603 4455   3.328   4.088   5.605  0.2473 -0.8819  0.4763
    7MOL   H604 4456   3.200   4.207   5.620  0.5283  0.7547  0.5223
    7MOL   H605 4457   3.324   4.036   5.844  1.9009  1.4477  0.9295
    7MOL   H606 4458   3.174   4.115   5.866 -1.0443 -0.5843 -1.8400
    7MOL   H607 4459   3.353   4.257   5.956  0.3152  0.5078  1.0014
    7MOL   H608 4460   3.298   4.341   5.820 -0.3397 -0.2483  0.8664
    7MOL   H609 4461   3.465   4.232   5.683 -1.3397 -0.4847  0.4393
    7MOL   C610 4462   3.597   4.251   5.843 -0.2098  0.0083 -0.4046
    7MOL   O611 4463   3.604   4.252   5.970  0.2389  0.3227  0.8739
    7MOL   C612 4464   3.726   4.241   5.759 -0.3439  0.0184  0.2670
    7MOL   C613 4465   3.811   4.109   5.790  0.1464 -0.5094  0.0420
    7MOL   C614 4466   3.736   3.973   5.784  0.0140 -0.1766 -0.2476
    7MOL   C615 4467   3.818   3.860   5.838 -0.7032  0.1440 -0.1036
    7MOL   C616 4468   3.759   3.718   5.833  0.1807 -0.1212 -0.0623
    7MOL   O617 4469   3.707   3.673   5.734 -0.0086  0.6288 -0.0855
    7MOL   N618 4470   3.760   3.646   5.947  0.4668 -0.5710  0.3266
    7MOL   C619 4471   3.705   3.509   5.950  0.1840 -0.2967  0.0802
    7MOL   C620 4472   3.557   3.507   5.991 -0.0638 -0.9059 -0.2075
    7MOL   C621 4473   3.505   3.366   5.983  0.4091 -0.5621 -0.2950
    7MOL   C622 4474   3.357   3.366   6.021 -0.4059 -0.5779 -0.2995
    7MOL   N623 4475   3.294   3.238   5.993 -0.0609 -0.6044 -0.7545
    7MOL   H624 4476   3.686   4.230   5.658  1.1587 -2.7639 -0.0693
    7MOL   H625 4477   3.785   4.333   5.760  0.4032 -0.4532  2.6349
    7MOL   H626 4478   3.884   4.101   5.709  0.7903 -0.7758  0.6466
    7MOL   H627 4479   3.869   4.120   5.881 -1.6521 -1.4579  1.3229
    7MOL   H628 4480   3.701   3.938   5.687  0.4793  0.7735 -0.7562
    7MOL   H629 4481   3.646   3.981   5.844 -0.3508  0.4434 -0.8787
    7MOL   H630 4482   3.843   3.884   5.941  2.2965 -1.6260 -0.3409
    7MOL   H631 4483   3.917   3.855   5.791  0.1554  3.6048  1.1746
    7MOL   H632 4484   3.804   3.682   6.031  0.3919  3.3544 -1.2154
    7MOL   H633 4485   3.761   3.447   6.020 -2.3235 -0.7404  1.7587
    7MOL   H634 4486   3.709   3.456   5.854 -0.1042  5.1497 -3.1673
    7MOL   H635 4487   3.551   3.550   6.091 -2.9286  0.7557 -1.0459
    7MOL   H636 4488   3.513   3.571   5.915 -0.1732 -0.6928  0.0379
    7MOL   H637 4489   3.567   3.298   6.040  0.6097  0.1962  0.4024
    7MOL   H638 4490   3.509   3.317   5.885  1.7169 -2.0496  0.4918
    7MOL   H639 4491   3.299   3.443   5.969  0.0847  0.9760  1.4083
    7MOL   H640 4492   3.343   3.403   6.122  0.0067 -0.5311 -0.2584
    7MOL   H641 4493   3.220   3.255   6.059  2.1880  0.8184  1.4937
    7MOL   H642 4494   3.357   3.168   6.028  2.1252  0.3011 -2.7303
    8MOL     C1 4495   2.099   4.784   6.903 -0.0792 -0.5051  0.8505
    8MOL     O2 4496   1.997   4.764   6.835  0.3473 -0.1147 -0.6783
    8MOL     C3 4497   2.100   4.814   7.052  0.5410 -0.4465  0.4658
    8MOL     C4 4498   1.965   4.824   7.124  1.1808 -0.1435 -0.4050
    8MOL     C5 4499   1.969   4.909   7.253  0.4480  0.1943 -0.1758
    8MOL     C6 4500   1.827   4.935   7.298  0.1043 -0.8261  0.0172
    8MOL     C7 4501   1.758   4.813   7.347  0.1531 -0.2794  0.0897
    8MOL     O8 4502   1.819   4.727   7.404 -0.3664 -0.0499 -0.2360
    8MOL     N9 4503   1.625   4.822   7.339  0.5047 -0.6238 -0.3292
    8MOL    C10 4504   1.522   4.735   7.399  0.1596 -0.3260 -0.3382
    8MOL    C11 4505   1.485   4.772   7.545 -0.3699 -0.7769  0.1645
    8MOL    C12 4506   1.437   4.921   7.556  0.0047  0.1456  0.1946
    8MOL    C13 4507   1.388   4.954   7.697 -0.3756 -0.1506  0.1000
    8MOL    N14 4508   1.353   5.096   0.009 -0.0021 -0.0293  0.1062
    8MOL    H15 4509   2.151   4.732   7.102  0.4853  0.1587  1.5459
    8MOL    H16 4510   2.158   4.905   7.065 -0.6356  0.3169  0.4820
    8MOL    H17 4511   1.889   4.863   7.056 -0.1781  1.4194  1.9378
    8MOL    H18 4512   1.919   4.728   7.146 -0.8618  0.9019  0.0199
    8MOL    H19 4513   2.019   5.004   7.235  1.3968 -0.3691 -0.5689
    8MOL    H20 4514   2.029   4.872   7.336  1.5478  2.1491 -0.0846
    8MOL    H21 4515   1.774   4.957   7.206 -1.9169 -1.2188  1.0537
    8MOL    H22 4516   1.828   5.027   7.358  0.7127  1.8329 -3.9135
    8MOL    H23 4517   1.588   4.912   7.312  0.1469 -0.0014  2.1166
    8MOL    H24 4518   1.552   4.630   7.392 -0.1119 -0.3529 -1.1993
    8MOL    H25 4519   1.447   4.758   7.324  1.1066  1.9549 -0.6244
    8MOL    H26 4520   1.408   4.712   7.593 -0.7479 -1.1894 -0.9557
    8MOL    H27 4521   1.576   4.753   7.603  1.0281  0.4330 -1.5998
    8MOL    H28 4522   1.358   4.937   7.482  0.2471  0.1841 -0.0534
    8MOL    H29 4523   1.507   4.996   7.522 -0.4832  1.3618  1.7827
    8MOL    H30 4524   1.469   4.942   0.068  1.1384 -0.5587 -1.6499
    8MOL    H31 4525   1.306   4.889   0.025  0.6335 -2.5313 -2.2188
    8MOL    H32 4526   1.427   5.151   0.050 -0.2311  0.4524 -0.1271
    8MOL    H33 4527   2.191   4.788   6.844 -0.7023  0.4739 -0.0863
    8MOL    C34 4528   1.228   5.138   7.695  0.3853 -0.0326  0.0596
    8MOL    O35 4529   1.134   5.064   7.675 -0.3319  0.0027  0.2753
    8MOL    C36 4530   1.202   5.287   7.688 -0.0289 -0.8285 -0.1174
    8MOL    C37 4531   1.088   5.334   0.080 -0.0147 -0.0210  0.3549
    8MOL    C38 4532   1.129   5.351   0.221 -0.3448  0.3470  0.2356
    8MOL    C39 4533   1.012   5.383   0.326 -0.1256 -0.0102  0.5955
    8MOL    C40 4534   1.048   5.322   0.468 -0.6383 -0.1269 -0.2950
    8MOL    O41 4535   1.042   5.203   0.491 -0.8396 -0.1762 -0.2935
    8MOL    N42 4536   1.082   5.410   0.566 -0.0595 -0.1797 -0.1524
    8MOL    C43 4537   1.139   5.382   0.701  0.2110  0.3368  0.5346
    8MOL    C44 4538   1.283   5.417   0.714 -0.2342 -0.3427  0.0572
    8MOL    C45 4539   1.341   5.371   0.850  0.1043  0.0892  0.7163
    8MOL    C46 4540   1.489   5.417   0.854 -0.5394 -0.0312 -0.2272
    8MOL    N47 4541   1.550   5.412   0.989  0.2083  0.1469 -0.1679
    8MOL    H48 4542   1.294   5.340   0.015  0.2416 -1.4230  0.1278
    8MOL    H49 4543   1.184   5.302   7.581  1.9965  1.9936 -0.1464
    8MOL    H50 4544   1.047   5.430   0.048  0.3857 -0.1816 -0.6640
    8MOL    H51 4545   1.013   5.256   0.072  2.6171 -2.7718  1.5012
    8MOL    H52 4546   1.203   5.430   0.230  0.7850 -0.8014  1.1221
    8MOL    H53 4547   1.176   5.257   0.252  0.0089  0.3165 -0.3920
    8MOL    H54 4548   0.920   5.328   0.307 -0.8054  0.8383  1.3784
    8MOL    H55 4549   0.994   5.489   0.345 -2.4945 -0.2199 -0.2303
    8MOL    H56 4550   1.080   5.510   0.550  2.1343 -0.0677  0.0303
    8MOL    H57 4551   1.121   5.276   0.718 -1.3591  0.1767 -1.8896
    8MOL    H58 4552   1.071   5.427   0.774  0.0439  1.1236 -0.0975
    8MOL    H59 4553   1.341   5.383   0.629  0.0459  3.1438 -1.2571
    8MOL    H60 4554   1.296   5.525   0.703  1.9606 -0.6928 -0.8380
    8MOL    H61 4555   1.346   5.262   0.852 -0.9987  0.0046 -0.7430
    8MOL    H62 4556   1.280   5.386   0.939 -1.8922  0.9853 -0.7923
    8MOL    H63 4557   1.492   5.524   0.832 -0.2136  0.1875  0.8435
    8MOL    H64 4558   1.556   5.364   0.786  2.4539  1.0973  1.7086
    8MOL    H65 4559   1.604   5.330   1.012 -1.5195 -1.1398 -0.5357
    8MOL    C66 4560   1.539   5.502   1.083  0.2288  0.4696  1.1598
    8MOL    O67 4561   1.453   5.593   1.072 -0.2734 -0.2780 -0.2246
    8MOL    C68 4562   1.630   5.488   1.205  0.1874  0.2415  0.0466
    8MOL    C69 4563   1.695   5.620   1.253 -0.1248 -0.2629 -0.0103
    8MOL    C70 4564   1.615   5.670   1.372 -0.6251 -0.0121  0.2898
    8MOL    C71 4565   1.668   5.803   1.433  0.4976 -0.4018 -0.5725
    8MOL    C72 4566   1.640   5.920   1.342  0.2765 -0.2319 -0.2635
    8MOL    O73 4567   1.531   5.972   1.360  0.3402 -0.0999  0.2379
    8MOL    N74 4568   1.715   5.956   1.234  0.6816  0.5414  0.1326
    8MOL    C75 4569   1.676   6.041   1.126  0.0860 -0.3639 -0.2144
    8MOL    C76 4570   1.631   5.960   1.001  0.1536 -0.3882 -0.6959
    8MOL    C77 4571   1.566   6.040   0.887 -0.5793 -0.4184 -0.2991
    8MOL    C78 4572   1.424   5.990   0.852  0.3287  0.1646  0.1907
    8MOL    N79 4573   1.355   6.072   0.744  0.4656 -0.0748 -0.1542
    8MOL    H80 4574   1.579   5.443   1.290  0.3251 -1.0988 -0.5662
    8MOL    H81 4575   1.710   5.421   1.174  0.1411  0.3923 -0.4046
    8MOL    H82 4576   1.800   5.605   1.279  0.3147  0.3871 -1.3545
    8MOL    H83 4577   1.698   5.705   1.185 -2.4618 -0.8963 -0.9325
    8MOL    H84 4578   1.642   5.599   1.450  1.4692  1.0959  0.6292
    8MOL    H85 4579   1.509   5.668   1.350  0.0419  0.0381 -3.1688
    8MOL    H86 4580   1.774   5.802   1.456 -0.1710  3.7769  3.5276
    8MOL    H87 4581   1.617   5.827   1.527 -1.0421  0.8599 -1.6924
    8MOL    H88 4582   1.797   5.900   1.214  0.6977  0.4805  0.3756
    8MOL    H89 4583   1.755   6.110   1.099  1.4836 -1.2121  1.5783
    8MOL    H90 4584   1.594   6.111   1.144 -0.0518 -0.3868 -0.7627
    8MOL    H91 4585   1.717   5.904   0.965  0.7157 -0.2549  0.4096
    8MOL    H92 4586   1.552   5.892   1.034  0.0242  0.2085  0.2382
    8MOL    H93 4587   1.631   6.038   0.799  1.3928 -2.9765  1.1264
    8MOL    H94 4588   1.555   6.146   0.907 -1.4855 -0.5213 -0.2432
    8MOL    H95 4589   1.366   6.014   0.941 -0.2370  0.2730 -0.2049
    8MOL    H96 4590   1.425   5.885   0.822  0.2963  0.9375 -2.6656
    8MOL    H97 4591   1.275   6.127   0.774  0.7240  0.5245 -0.5651
    8MOL    C98 4592   1.385   6.081   0.610  0.7619  0.6343 -0.1981
    8MOL    O99 4593   1.488   6.033   0.560  0.1450 -0.0350 -0.5536
    8MOL   C100 4594   1.296   6.162   0.517 -0.6012 -0.0812 -0.9594
    8MOL   C101 4595   1.344   6.190   0.377  0.2786  0.2265 -0.0399
    8MOL   C102 4596   1.242   6.270   0.294 -0.1906 -0.2539  0.6063
    8MOL   C103 4597   1.288   6.285   0.151  0.1660 -0.4177  0.1321
    8MOL   C104 4598   1.214   6.390   0.062 -0.5066  0.8737 -0.7906
    8MOL   O105 4599   1.134   6.471   0.107 -0.3505  0.0456 -0.4486
    8MOL   N106 4600   1.233   6.377   7.632 -0.3490 -0.2038 -0.3683
    8MOL   C107 4601   1.174   6.457   7.527  0.1114 -0.9010 -0.6793
    8MOL   C108 4602   1.112   6.369   7.421 -0.1549 -0.1489  0.1164
    8MOL   C109 4603   1.000   6.445   7.333 -0.4332  0.0020 -0.2624
    8MOL   C110 4604   0.953   6.359   7.219 -0.0170 -0.0048  0.0945
    8MOL   N111 4605   0.873   6.254   7.262  0.6349  0.0295  0.7031
    8MOL   H112 4606   1.202   6.107   0.518  0.6284 -2.2690  2.1681
    8MOL   H113 4607   1.283   6.261   0.560 -0.4379  0.8058 -2.9250
    8MOL   H114 4608   1.440   6.241   0.392 -0.0233  1.4291 -2.0472
    8MOL   H115 4609   1.360   6.095   0.326 -0.1845 -0.2128  0.6333
    8MOL   H116 4610   1.217   6.358   0.352 -1.2591  0.9970 -1.7021
    8MOL   H117 4611   1.147   6.217   0.293 -0.2879 -0.0712 -1.2047
    8MOL   H118 4612   1.277   6.191   0.097 -4.1551 -0.1031  0.2896
    8MOL   H119 4613   1.389   6.325   0.143 -0.1268  0.4047  0.5348
    8MOL   H120 4614   1.301   6.305   7.609  0.6757  0.6559 -0.0575
    8MOL   H121 4615   1.243   6.529   7.483 -2.7823  1.5958 -1.3239
    8MOL   H122 4616   1.101   6.530   7.563  1.7821  1.3493 -1.6555
    8MOL   H123 4617   1.197   6.334   7.362 -1.2027 -0.0287 -1.5015
    8MOL   H124 4618   1.072   6.283   7.475 -0.2177 -1.2786 -1.6783
    8MOL   H125 4619   1.021   6.542   7.289  1.2022  0.0741  0.6557
    8MOL   H126 4620   0.916   6.467   7.400  0.2822 -0.4319  0.7934
    8MOL   H127 4621   1.035   6.311   7.167 -0.2355 -1.3973  1.0059
    8MOL   H128 4622   0.899   6.421   7.147 -0.0023 -0.3133 -0.1782
    8MOL   H129 4623   0.921   6.170   7.291 -0.4342 -0.7524  0.2237
    8MOL   C130 4624   0.739   6.255   7.280 -1.2929  0.7187 -0.3172
    8MOL   O131 4625   0.666   6.345   7.246  0.2011 -0.7044 -0.0974
    8MOL   C132 4626   0.679   6.126   7.336 -0.2128  0.0252 -0.5112
    8MOL   C133 4627   0.532   6.095   7.293  0.2394  0.3202  0.8122
    8MOL   C134 4628   0.428   6.174   7.385  0.4290  0.2455  0.5198
    8MOL   C135 4629   0.276   6.143   7.366  0.1822  0.1205  0.0084
    8MOL   C136 4630   0.188   6.268   7.346  0.2499  0.6720 -0.1102
    8MOL   O137 4631   0.217   6.352   7.261 -0.2681 -0.2646  0.5831
    8MOL   N138 4632   0.082   6.284   7.426  0.1877 -0.4609 -0.4801
    8MOL   C139 4633   7.700   6.405   7.431  0.2403  0.0253  0.1143
    8MOL   C140 4634   0.071   6.510   7.515 -0.5115  0.2170 -0.3382
    8MOL   C141 4635   7.686   6.636   7.550 -0.1048 -0.2332  0.4055
    8MOL   C142 4636   7.535   6.605   7.583 -0.1394  0.6839 -1.0622
    8MOL   N143 4637   7.529   6.508   7.696 -0.7440 -0.1968  0.2784
    8MOL   H144 4638   0.736   6.038   7.306 -0.8929 -0.5972 -0.0078
    8MOL   H145 4639   0.689   6.130   7.444  0.8896  4.0388 -0.6963
    8MOL   H146 4640   0.520   6.106   7.185  0.5466  0.9302  0.8379
    8MOL   H147 4641   0.508   5.989   7.301 -0.0499  0.4307  1.4054
    8MOL   H148 4642   0.442   6.280   7.363 -2.7787  0.5983  0.0393
    8MOL   H149 4643   0.465   6.165   7.487  0.5812 -1.1498  0.3627
    8MOL   H150 4644   0.237   6.066   7.433  1.3181  0.3799  0.9743
    8MOL   H151 4645   0.277   6.104   7.264 -0.9010  1.9157 -0.7036
    8MOL   H152 4646   0.056   6.206   7.485 -0.8190  0.7293  0.6898
    8MOL   H153 4647   7.612   6.366   7.482 -0.0623 -1.4144 -1.4437
    8MOL   H154 4648   7.672   6.441   7.332  1.4632  0.6128 -0.0202
    8MOL   H155 4649   0.100   6.453   7.604 -0.6677  0.7498  0.0522
    8MOL   H156 4650   0.159   6.555   7.471  1.2290 -1.4278  1.3185
    8MOL   H157 4651   7.696   6.697   7.460 -3.4280  1.7900  1.3369
    8MOL   H158 4652   0.040   6.694   7.624  0.4987 -1.0876  0.6208
    8MOL   H159 4653   7.482   6.575   7.493  0.4603  1.4979 -1.6982
    8MOL   H160 4654   7.492   6.699   7.620 -0.5038  0.4238 -0.8208
    8MOL   H161 4655   7.612   6.453   0.009  0.3762  1.2455 -0.4419
    8MOL   C162 4656   7.430   6.482   0.077 -0.3625  0.5547  0.0504
    8MOL   O163 4657   7.314   6.526   0.062 -0.1648  0.9091 -0.0909
    8MOL   C164 4658   7.472   6.399   0.199 -0.1283  0.1137  0.9036
    8MOL   C165 4659   7.506   6.463   0.333  0.4555  0.2400  0.1693
    8MOL   C166 4660   7.623   6.564   0.325  0.0598 -0.0006  0.8426
    8MOL   C167 4661   7.575   6.707   0.294 -0.0711  0.1605 -0.3434
    8MOL   C168 4662   7.513   6.781   0.411 -0.4296 -0.1046  0.2714
    8MOL   O169 4663   7.515   6.730   0.525 -0.2344 -0.1706  0.2953
    8MOL   N170 4664   7.459   6.901   0.398 -0.3314  0.6122 -0.3241
    8MOL   C171 4665   7.415   6.985   0.504 -0.0391 -0.0161  0.2408
    8MOL   C172 4666   7.310   7.086   0.450 -0.5264  0.5582  0.1991
    8MOL   C173 4667   7.252   7.167   0.564  0.5445 -1.1868 -0.0998
    8MOL   C174 4668   7.132   7.245   0.505  0.4077  0.1971  0.2989
    8MOL   N175 4669   7.059   7.319   0.611  0.1434 -1.1108 -0.1167
    8MOL   H176 4670   7.384   6.335   0.209 -0.4360  0.4273  0.1600
    8MOL   H177 4671   7.559   6.343   0.163  0.5032  1.1449  0.8096
    8MOL   H178 4672   7.421   6.500   0.391 -0.8407 -1.7234 -0.4275
    8MOL   H179 4673   7.543   6.382   0.394 -1.0554 -0.5836  0.0340
    8MOL   H180 4674   0.003   6.540   0.257  0.6582  0.6368  1.3254
    8MOL   H181 4675   7.677   6.571   0.420  0.5193 -0.3775  0.6087
    8MOL   H182 4676   7.500   6.700   0.215  0.6927 -2.7012 -0.8651
    8MOL   H183 4677   7.655   6.764   0.247 -1.5928  1.5744 -1.2801
    8MOL   H184 4678   7.472   6.956   0.314 -0.4699  0.8087 -0.2164
    8MOL   H185 4679   7.493   7.055   0.535  0.9566 -0.2025 -1.8080
    8MOL   H186 4680   7.394   6.935   0.599  1.5407  0.0747  0.6534
    8MOL   H187 4681   7.350   7.148   0.371 -0.1105 -0.7236 -0.6150
    8MOL   H188 4682   7.234   7.027   0.398 -0.0697 -0.2488  0.4342
    8MOL   H189 4683   7.324   7.234   0.610  0.6808 -0.5303 -1.2661
    8MOL   H190 4684   7.219   7.099   0.643  0.4427 -2.6306 -1.3717
    8MOL   H191 4685   7.063   7.172   0.463 -1.3877  0.1810  3.0938
    8MOL   H192 4686   7.151   7.310   0.419 -0.6099 -0.4783 -0.4483
    8MOL   H193 4687   6.968   7.289   0.642 -0.1171  0.3698  0.6095
    8MOL   C194 4688   7.101   7.438   0.653  0.0561  1.0562 -0.2559
    8MOL   O195 4689   7.203   7.486   0.606 -0.6254 -0.1358  0.2653
    8MOL   C196 4690   7.009   7.501   0.759  0.2360 -0.0976 -0.2557
    8MOL   C197 4691   7.083   7.590   0.855 -0.2113  0.7092 -0.2972
    8MOL   C198 4692   7.164   7.509   0.960 -0.2150 -0.4060 -0.0804
    8MOL   C199 4693   7.210   7.603   1.068 -0.0477  0.4159  0.4646
    8MOL   C200 4694   7.327   7.697   1.020  0.6346  0.4326  0.6250
    8MOL   O201 4695   7.300   0.112   1.000 -0.0892  0.0481  0.5488
    8MOL   N202 4696   7.442   7.637   1.001  0.2704 -0.5399 -0.0108
    8MOL   C203 4697   7.565   7.682   0.927 -0.7184 -0.0379  0.1545
    8MOL   C204 4698   7.579   7.599   0.798 -0.4411  0.3452  0.3380
    8MOL   C205 4699   7.592   7.441   0.810  0.6402 -0.9461  0.0222
    8MOL   C206 4700   7.632   7.391   0.669  0.6619 -0.4384 -0.6165
    8MOL   N207 4701   7.537   7.421   0.569  0.2819 -0.7058  0.2125
    8MOL   H208 4702   6.935   7.553   0.699  3.1596  0.7032 -3.3365
    8MOL   H209 4703   6.942   7.429   0.805  0.9107 -1.5496 -1.4785
    8MOL   H210 4704   7.146   7.666   0.809  0.4417  0.9687  1.0005
    8MOL   H211 4705   7.001   7.642   0.905 -0.1597  0.1365  0.3986
    8MOL   H212 4706   7.248   7.455   0.915 -0.3915 -0.5607 -0.2268
    8MOL   H213 4707   7.104   7.433   1.010 -0.4584  0.0183  0.2792
    8MOL   H214 4708   7.245   7.544   1.153  0.9880 -2.1626 -1.7022
    8MOL   H215 4709   7.121   7.657   1.103 -0.3661  0.3522 -0.2463
    8MOL   H216 4710   7.453   7.549   1.049  0.8655 -0.3812  0.1415
    8MOL   H217 4711   7.658   7.662   0.979 -0.4239  1.8908  0.3946
    8MOL   H218 4712   7.565   0.087   0.903  0.8088 -0.1069 -0.2232
    8MOL   H219 4713   7.493   7.627   0.737 -1.2185 -0.1430  1.1818
    8MOL   H220 4714   7.668   7.628   0.744 -1.5386  2.6978 -0.2572
    8MOL   H221 4715   7.496   7.403   0.846 -0.0440 -0.6598 -1.4427
    8MOL   H222 4716   7.668   7.424   0.886 -0.2159  2.2956  1.6753
    8MOL   H223 4717   7.645   7.283   0.666 -1.7717 -0.7518 -0.5018
    8MOL   H224 4718   0.033   7.419   0.645  0.4136  1.2191  0.1977
    8MOL   H225 4719   7.440   7.423   0.597 -0.4782 -2.1523 -2.1709
    8MOL   C226 4720   7.567   7.473   0.453  0.8692  0.2639  0.5159
    8MOL   O227 4721   7.679   7.459   0.406 -0.1302  0.1552 -0.8345
    8MOL   C228 4722   7.462   7.545   0.373 -0.3808 -0.2098  0.1814
    8MOL   C229 4723   7.389   7.453   0.276 -0.4405 -0.1400  0.1887
    8MOL   C230 4724   7.475   7.402   0.158  0.1680  0.5939  0.4778
    8MOL   C231 4725   7.482   7.493   0.041 -0.4795  0.2273  0.0306
    8MOL   C232 4726   7.555   7.439   7.627  0.0770 -0.5109  0.3849
    8MOL   O233 4727   7.592   7.324   7.619 -0.0420  0.1270 -0.3517
    8MOL   N234 4728   7.578   7.527   7.529  0.6456  0.5692 -0.0376
    8MOL   C235 4729   7.593   7.499   7.385  0.1981 -0.0478  0.3848
    8MOL   C236 4730   0.039   7.508   7.339 -0.7591  0.5756 -0.1979
    8MOL   C237 4731   0.068   7.468   7.191  0.8191  0.5284 -0.2370
    8MOL   C238 4732   0.208   7.493   7.138  0.2369 -0.5164 -0.0492
    8MOL   N239 4733   0.214   7.449   6.996  0.4331 -0.2605  0.4194
    8MOL   H240 4734   7.391   7.600   0.434 -2.1301 -0.1959 -1.8070
    8MOL   H241 4735   7.512   7.623   0.314  1.1419 -0.7166  0.7770
    8MOL   H242 4736   7.348   7.367   0.329  0.0410 -1.1124 -0.9921
    8MOL   H243 4737   7.304   7.511   0.239  0.7078  1.3647 -0.1581
    8MOL   H244 4738   7.417   7.320   0.116 -2.9558  2.3667  1.1843
    8MOL   H245 4739   7.572   7.358   0.182  0.5559  1.3273  0.2882
    8MOL   H246 4740   7.526   7.586   0.076  0.6940  0.2031 -1.3614
    8MOL   H247 4741   7.380   7.511   0.005 -0.0982 -0.2410 -1.3087
    8MOL   H248 4742   7.551   7.622   7.550 -0.3362  0.0218  1.2843
    8MOL   H249 4743   7.521   7.562   7.332 -0.2938  0.2221  1.3579
    8MOL   H250 4744   7.549   7.403   7.359 -0.3637  1.5634 -5.3968
    8MOL   H251 4745   0.063   7.613   7.353 -1.6255  0.2979  4.1221
    8MOL   H252 4746   0.114   7.457   7.400 -1.9890 -0.3719  0.5395
    8MOL   H253 4747   0.000   7.533   7.135  1.0131  0.3911 -0.6346
    8MOL   H254 4748   0.024   7.370   7.173  1.3408  0.4230 -0.9648
    8MOL   H255 4749   0.282   7.434   7.192  0.6637 -0.1602 -0.2399
    8MOL   H256 4750   0.239   7.597   7.144 -3.0244  0.4696  0.4654
    8MOL   H257 4751   0.125   7.423   6.956 -0.5089 -3.0911  4.1683
    8MOL   C258 4752   0.319   7.441   6.921 -0.3277  0.3500 -0.3742
    8MOL   O259 4753   0.435   7.447   6.970 -0.1584  0.0513 -0.6602
    8MOL   C260 4754   0.296   7.410   6.774 -0.3960 -0.6534  0.3120
    8MOL   C261 4755   0.414   7.339   6.697  0.4115  0.7836  0.0745
    8MOL   C262 4756   0.354   7.281   6.565  0.2213 -0.0080 -0.4679
    8MOL   C263 4757   0.330   7.386   6.457 -0.1078 -0.3633  0.4277
    8MOL   C264 4758   0.454   7.434   6.385  1.1561  1.1493 -0.2699
    8MOL   O265 4759   0.519   7.353   6.316 -0.0147  0.5292  0.0071
    8MOL   N266 4760   0.484   7.566   6.387 -0.4201  0.4059 -0.2130
    8MOL   C267 4761   0.581   7.628   6.290  0.2112 -0.8799 -0.0345
    8MOL   C268 4762   0.727   7.619   6.349 -0.0296  0.1276  0.4958
    8MOL   C269 4763   0.830   7.620   6.239 -0.2296 -0.6356 -0.9365
    8MOL   C270 4764   0.978   7.609   6.286  0.2014 -0.5657 -0.1929
    8MOL   N271 4765   1.077   7.629   6.183 -0.0805 -0.0675  0.0858
    8MOL   H272 4766   0.204   7.353   6.760 -0.7273  0.1694 -0.9208
    8MOL   H273 4767   0.272   7.506   6.729 -3.5652 -2.1711 -1.4201
    8MOL   H274 4768   0.501   7.404   6.682  0.0277  1.3839  0.4097
    8MOL   H275 4769   0.459   7.257   6.754  0.3075 -2.6073 -4.4800
    8MOL   H276 4770   0.259   7.237   6.597 -0.5978  3.3329  1.9580
    8MOL   H277 4771   0.422   7.207   6.524 -0.0566  0.9393 -2.6861
    8MOL   H278 4772   0.266   7.471   6.480  0.3023  0.4585 -1.3823
    8MOL   H279 4773   0.278   7.337   6.375 -2.2697  1.0777  0.8983
    8MOL   H280 4774   0.431   7.619   6.455  1.7009  2.6936 -0.2742
    8MOL   H281 4775   0.546   0.029   6.280 -0.2840 -1.0177  0.2505
    8MOL   H282 4776   0.580   7.565   6.201  1.6298 -0.4896 -0.3340
    8MOL   H283 4777   0.743   0.000   6.418 -3.3395 -0.1053  1.6511
    8MOL   H284 4778   0.742   7.534   6.415  0.2549 -2.0188 -2.2243
    8MOL   H285 4779   0.822   0.007   6.176 -0.5870  1.4509  1.9215
    8MOL   H286 4780   0.808   7.534   6.176 -4.0625  0.8995 -1.8038
    8MOL   H287 4781   1.004   7.518   6.339 -2.7986 -0.8757  0.8620
    8MOL   H288 4782   0.992   7.693   6.354 -1.6424 -0.3768 -0.0083
    8MOL   H289 4783   1.032   7.621   6.093 -0.5386  1.7179  0.1265
    8MOL   C290 4784   1.190   7.686   6.196  1.0764 -0.6937  0.0001
    8MOL   O291 4785   1.230   0.017   6.307  0.1067  0.1829 -0.0421
    8MOL   C292 4786   1.261   0.035   6.077  0.9998 -0.4427 -0.2230
    8MOL   C293 4787   1.234   0.185   6.032  0.8654 -0.6697 -0.2300
    8MOL   C294 4788   1.262   0.290   6.132  0.6810 -0.3869  0.2758
    8MOL   C295 4789   1.218   0.423   6.086  0.0630  0.5107 -0.8015
    8MOL   C296 4790   1.220   0.532   6.192  0.0493  0.3132 -0.1300
    8MOL   O297 4791   1.185   0.507   6.306  0.8183 -0.1751  0.3923
    8MOL   N298 4792   1.245   0.655   6.143 -0.5498  0.4575  0.2613
    8MOL   C299 4793   1.204   0.776   6.218  0.4267 -0.3260  0.1326
    8MOL   C300 4794   1.230   0.900   6.139  0.6111 -0.1334 -0.7131
    8MOL   C301 4795   1.168   0.906   6.000  0.6465 -0.1382 -0.5987
    8MOL   C302 4796   1.018   0.940   5.998  0.3561  0.2188  0.2674
    8MOL   N303 4797   0.939   0.829   6.057  0.4627 -0.0040 -0.0315
    8MOL   H304 4798   1.369   0.029   6.091  0.7462  0.9683  2.6142
    8MOL   H305 4799   1.240   7.667   5.996  2.2327 -0.8320 -0.2179
    8MOL   H306 4800   1.296   0.203   5.944  1.4692  1.6351  0.6350
    8MOL   H307 4801   1.131   0.197   5.999  0.4320  0.1660  1.3793
    8MOL   H308 4802   1.369   0.304   6.147  0.6413  0.5756 -0.3544
    8MOL   H309 4803   1.222   0.284   6.234  0.9473 -0.0314  0.4050
    8MOL   H310 4804   1.111   0.409   6.071 -0.6773  0.6065  3.7590
    8MOL   H311 4805   1.270   0.462   5.999 -1.1744  1.3225 -1.1797
    8MOL   H312 4806   1.260   0.660   6.043  0.8120 -1.3047  0.3603
    8MOL   H313 4807   1.249   0.783   6.316  0.8764  2.3334 -0.2364
    8MOL   H314 4808   1.095   0.786   6.227  0.3534  0.4557 -1.3495
    8MOL   H315 4809   1.187   0.983   6.195 -0.2848  0.1771 -1.8530
    8MOL   H316 4810   1.338   0.914   6.134  0.5118  0.3991 -1.4224
    8MOL   H317 4811   1.189   0.822   5.934 -0.4816  0.6319 -1.9708
    8MOL   H318 4812   1.191   1.000   5.950  2.1983 -0.9533 -1.4261
    8MOL   H319 4813   0.991   0.953   5.894 -1.3695 -0.7464  0.5796
    8MOL   H320 4814   1.001   1.036   6.047 -1.0124  0.5006 -0.7489
    8MOL   H321 4815   0.907   0.838   6.152 -0.4794 -0.0058 -0.3323
    8MOL   C322 4816   0.911   0.714   6.008 -0.8586 -0.2567  0.0126
    8MOL   O323 4817   0.973   0.676   5.910  0.1355 -0.3449  0.3827
    8MOL   C324 4818   0.816   0.626   6.086 -0.6541  0.4190 -0.2902
    8MOL   C325 4819   0.809   0.481   6.025  0.7272  0.4028 -0.0169
    8MOL   C326 4820   0.714   0.382   6.089 -1.1341 -0.0283  0.0939
    8MOL   C327 4821   0.716   0.367   6.244  0.1144 -0.2403  0.1820
    8MOL   C328 4822   0.842   0.305   6.294 -0.5835  0.1605 -0.3052
    8MOL   O329 4823   0.908   0.229   6.223 -0.4014  0.4019  0.0929
    8MOL   N330 4824   0.868   0.334   6.424  0.1960  0.3076  0.9080
    8MOL   C331 4825   0.987   0.286   6.502 -0.4476  0.1000  0.0259
    8MOL   C332 4826   1.006   0.366   6.633 -0.3432  0.6577  0.0648
    8MOL   C333 4827   0.885   0.357   6.726  0.0590 -0.7215  0.3292
    8MOL   C334 4828   0.914   0.421   6.864  0.6753  0.5823  0.2572
    8MOL   N335 4829   0.792   0.408   6.937  0.3184 -0.5017 -0.1354
    8MOL   H336 4830   0.851   0.627   6.189  0.8534 -1.2831 -0.7504
    8MOL   H337 4831   0.719   0.676   6.092 -0.2176  1.1771  0.5659
    8MOL   H338 4832   0.785   0.490   5.919  0.7183 -2.0406 -0.2406
    8MOL   H339 4833   0.907   0.434   6.032 -0.1590 -1.7643 -1.5542
    8MOL   H340 4834   0.725   0.288   6.034  0.3804  0.0496  0.2304
    8MOL   H341 4835   0.612   0.416   6.072 -1.2132 -0.3500 -0.0891
    8MOL   H342 4836   0.622   0.320   6.275  0.1236  1.0664  2.3430
    8MOL   H343 4837   0.708   0.467   6.287 -0.0016  0.0202 -0.4346
    8MOL   H344 4838   0.800   0.396   6.465  0.0042  1.3613 -0.9189
    8MOL   H345 4839   1.078   0.295   6.443 -0.7011  0.1993 -0.3581
    8MOL   H346 4840   0.977   0.181   6.527 -1.5117  0.5256  1.4090
    8MOL   H347 4841   1.099   0.338   6.682 -0.8530 -0.0680  0.6346
    8MOL   H348 4842   1.021   0.471   6.607  2.6067  0.3095  0.1886
    8MOL   H349 4843   0.882   0.249   6.740 -2.6426 -0.8779 -1.1805
    8MOL   H350 4844   0.795   0.382   6.671  0.7246 -1.7040 -1.2381
    8MOL   H351 4845   0.934   0.527   6.847  1.2936  0.3834 -0.2628
    8MOL   H352 4846   1.000   0.378   6.915  0.4576 -0.4828 -0.2541
    8MOL   H353 4847   0.718   0.359   6.889  0.4006  0.3465 -1.1318
    8MOL   C354 4848   0.762   0.474   7.047  0.3411 -0.2776  0.0260
    8MOL   O355 4849   0.844   0.541   7.106 -0.1933 -0.5435  0.0857
    8MOL   C356 4850   0.620   0.461   7.096 -0.1223  0.0867 -0.8349
    8MOL   C357 4851   0.577   0.566   7.197  0.0842  0.2276 -0.4339
    8MOL   C358 4852   0.425   0.553   7.244 -0.4435 -0.3946 -0.9591
    8MOL   C359 4853   0.341   0.661   7.185  0.2553 -0.7201  0.6454
    8MOL   C360 4854   0.260   0.622   7.064  0.0609  0.0105  0.1330
    8MOL   O361 4855   0.315   0.574   6.970  0.1420 -0.1499  0.3575
    8MOL   N362 4856   0.123   0.626   7.074 -0.0321  0.8716 -0.1190
    8MOL   C363 4857   0.033   0.555   6.993 -0.3184 -0.0055  0.1672
    8MOL   C364 4858   0.037   0.580   6.845  0.5232  0.5317  0.3309
    8MOL   C365 4859   7.631   0.504   6.766 -0.3068  0.5323 -0.3674
    8MOL   C366 4860   7.637   0.550   6.615 -1.0032 -0.3385  0.0913
    8MOL   N367 4861   7.520   0.513   6.538 -0.8580  0.4356 -0.2029
    8MOL   H368 4862   0.554   0.475   7.010 -1.0154 -0.4067 -0.2409
    8MOL   H369 4863   0.609   0.365   7.147 -0.1628  0.6832  0.2919
    8MOL   H370 4864   0.637   0.568   7.288  0.2129 -1.6852 -0.4551
    8MOL   H371 4865   0.592   0.665   7.153 -0.1380  0.5403  0.1777
    8MOL   H372 4866   0.420   0.553   7.352 -1.0256  2.1383 -0.9491
    8MOL   H373 4867   0.378   0.459   7.215  0.7858 -0.8976 -1.3492
    8MOL   H374 4868   0.384   0.760   7.169 -0.3484 -0.1365  2.5259
    8MOL   H375 4869   0.263   0.684   7.256 -0.6822  0.6326 -0.7881
    8MOL   H376 4870   0.078   0.662   7.157 -0.4874 -0.7727  0.3527
    8MOL   H377 4871   7.632   0.566   7.029 -1.3758 -4.1146 -1.3372
    8MOL   H378 4872   0.041   0.447   7.003  2.2843  0.1414  0.0471
    8MOL   H379 4873   0.040   0.687   6.822 -1.2189  0.9503  1.9698
    8MOL   H380 4874   0.134   0.548   6.806 -0.8259 -1.9210 -1.1054
    8MOL   H381 4875   7.530   0.522   6.803 -0.9035 -1.5392 -0.9511
    8MOL   H382 4876   7.639   0.396   6.763  0.2573  0.6137 -2.1553
    8MOL   H383 4877   0.030   0.518   6.569 -0.3763 -0.2488  1.2929
    8MOL   H384 4878   7.642   0.659   6.613  0.1521 -0.3837 -0.2915
    8MOL   H385 4879   7.436   0.568   6.537 -0.2724  1.3413  0.0163
    8MOL   C386 4880   7.514   0.401   6.468  0.4594 -0.5642  0.3704
    8MOL   O387 4881   7.610   0.322   6.462 -0.4037 -0.3938 -0.5563
    8MOL   C388 4882   7.377   0.376   6.407  0.0309  0.4203 -0.2916
    8MOL   C389 4883   7.299   0.290   6.497  0.1563 -0.1859 -0.3295
    8MOL   C390 4884   7.167   0.221   6.437  0.5141 -0.5101 -0.9376
    8MOL   C391 4885   7.193   0.118   6.325  0.1761 -0.0478  0.0455
    8MOL   C392 4886   7.262   7.690   6.369  0.3464  0.3306  0.4497
    8MOL   O393 4887   7.258   7.656   6.484  0.3361 -0.3959  0.3870
    8MOL   N394 4888   7.340   7.630   6.276  0.8500  0.5551  0.5632
    8MOL   C395 4889   7.426   7.510   6.307  0.1320 -0.2953 -0.3590
    8MOL   C396 4890   7.583   7.543   6.320 -0.2674 -0.5465  0.2639
    8MOL   C397 4891   7.598   7.666   6.416  0.1955  0.0253  1.0076
    8MOL   C398 4892   0.045   7.687   6.433  0.1385  0.4163 -0.5142
    8MOL   N399 4893   0.082   0.115   6.501  0.2876  0.1063 -0.4622
    8MOL   H400 4894   7.322   0.466   6.376  1.9193  0.7909 -2.7513
    8MOL   H401 4895   7.384   0.321   6.313  0.4568 -1.4109  0.7981
    8MOL   H402 4896   7.368   0.214   6.535 -1.2200 -0.4172  1.8087
    8MOL   H403 4897   7.270   0.344   6.587 -1.2096  1.7649 -1.9012
    8MOL   H404 4898   7.106   0.304   6.401 -0.9926 -0.2172  2.1528
    8MOL   H405 4899   7.106   0.161   6.504 -1.2346 -0.4526 -2.4262
    8MOL   H406 4900   7.266   0.160   6.256  1.8532 -1.0264  1.1808
    8MOL   H407 4901   7.102   0.097   6.269 -1.0010 -1.3378  2.3547
    8MOL   H408 4902   7.346   7.671   6.184  2.1206  0.5024  0.6086
    8MOL   H409 4903   7.406   7.444   6.223 -1.5819 -0.1232 -0.1061
    8MOL   H410 4904   7.396   7.454   6.397 -0.9232  0.4984 -0.2123
    8MOL   H411 4905   7.637   7.461   6.367  2.0184  2.7261  3.5882
    8MOL   H412 4906   7.626   7.571   6.224  0.7604  0.5494  1.0296
    8MOL   H413 4907   7.555   7.644   6.514 -1.6627  0.1324  0.2494
    8MOL   H414 4908   7.532   0.048   6.392  0.1744 -0.3969 -0.4365
    8MOL   H415 4909   0.097   7.696   6.338 -1.1622 -0.9196 -1.3810
    8MOL   H416 4910   0.085   7.611   6.500 -0.3087  0.1675 -0.5285
    8MOL   H417 4911   0.017   0.191   6.490 -0.6566 -0.5427  0.4629
    8MOL   C418 4912   0.213   0.143   6.541 -0.2771  0.2673  0.2839
    8MOL   O419 4913   0.302   0.060   6.546  0.2497  0.2009 -0.2540
    8MOL   C420 4914   0.247   0.289   6.560 -0.3317  0.5167  0.1641
    8MOL   C421 4915   0.389   0.330   6.498  0.7935 -0.6724 -0.1591
    8MOL   C422 4916   0.492   0.353   6.606  0.6453  0.8551 -0.1648
    8MOL   C423 4917   0.461   0.457   6.717 -0.3699 -0.2974  0.1956
    8MOL   C424 4918   0.543   0.584   6.711 -0.1999 -0.8254  0.4316
    8MOL   O425 4919   0.640   0.591   6.637  0.0018 -0.1408  0.4976
    8MOL   N426 4920   0.514   0.679   6.795  0.1607 -0.7386  0.0235
    8MOL   C427 4921   0.580   0.811   6.796 -0.1093  0.3872  0.7688
    8MOL   C428 4922   0.600   0.863   6.939 -0.0816 -0.2111 -0.5224
    8MOL   C429 4923   0.693   0.995   6.936  0.0898  0.0539 -0.4877
    8MOL   C430 4924   0.737   1.038   7.076 -0.0765  0.3108 -0.5975
    8MOL   N431 4925   0.633   1.105   7.142  0.5522  0.3369  0.1721
    8MOL   H432 4926   0.178   0.359   6.513  1.6469  1.8338 -0.8149
    8MOL   H433 4927   0.235   0.311   6.666  1.4513 -1.6624  0.8583
    8MOL   H434 4928   0.407   0.248   6.428  2.1156 -3.0861  2.9182
    8MOL   H435 4929   0.389   0.425   6.444  2.0633  0.1654  1.2973
    8MOL   H436 4930   0.586   0.380   6.556 -1.0156 -0.3331 -4.1281
    8MOL   H437 4931   0.520   0.261   6.656 -1.8862  1.5706  2.6917
    8MOL   H438 4932   0.469   0.410   6.815 -1.2396  0.0338  0.4307
    8MOL   H439 4933   0.357   0.489   6.729 -0.6841 -1.2383  0.0340
    8MOL   H440 4934   0.441   0.661   6.863  0.9426 -1.3644  0.7142
    8MOL   H441 4935   0.533   0.883   6.730 -1.5050 -0.1877  1.1085
    8MOL   H442 4936   0.675   0.798   6.743 -0.3011 -0.0120  0.5221
    8MOL   H443 4937   0.514   0.879   7.003  0.1229  1.7330 -0.7098
    8MOL   H444 4938   0.661   0.790   6.993  0.3559  0.1911 -0.4689
    8MOL   H445 4939   0.651   1.078   6.879  0.7769  1.3969  0.9130
    8MOL   H446 4940   0.790   0.967   6.896  0.1446 -0.3557 -0.0721
    8MOL   H447 4941   0.820   1.109   7.074  0.3391 -0.0968  1.3361
    8MOL   H448 4942   0.780   0.949   7.122 -0.5779  0.5937  0.4330
    8MOL   H449 4943   0.560   1.145   7.085 -0.2125  0.3238  1.1272
    8MOL   C450 4944   0.622   1.145   7.268 -0.7473 -0.3563 -0.9068
    8MOL   O451 4945   0.709   1.114   7.355 -0.2790 -0.0687 -0.3406
    8MOL   C452 4946   0.509   1.239   7.289  0.2290  0.4946  0.1804
    8MOL   C453 4947   0.386   1.174   7.371  0.5356  0.1441  0.4191
    8MOL   C454 4948   0.290   1.095   7.279 -0.2473 -0.1304  0.2735
    8MOL   C455 4949   0.166   1.039   7.347 -0.2045 -0.5051 -0.2586
    8MOL   C456 4950   0.043   1.135   7.355 -0.0983 -0.1518  0.1375
    8MOL   O457 4951   0.021   1.209   7.265 -0.2473 -0.2166 -0.1151
    8MOL   N458 4952   7.657   1.119   7.456  0.1558  0.5120  0.0517
    8MOL   C459 4953   7.539   1.196   7.472  0.6716  0.5654  0.1762
    8MOL   C460 4954   7.413   1.105   7.462  0.2192  0.2212  0.4272
    8MOL   C461 4955   7.287   1.152   7.538  0.3849 -0.0279 -0.1176
    8MOL   C462 4956   7.178   1.054   7.515 -0.2682  1.2652  0.2698
    8MOL   N463 4957   7.051   1.094   7.573  0.1020 -0.6707  0.2405
    8MOL   H464 4958   0.556   1.320   7.345 -0.5507  0.2796  1.1779
    8MOL   H465 4959   0.471   1.293   7.203  0.5395 -1.6843 -1.3847
    8MOL   H466 4960   0.409   1.101   7.449 -0.8437 -0.5513  0.2002
    8MOL   H467 4961   0.336   1.250   7.431 -0.8947  0.4884 -1.1541
    8MOL   H468 4962   0.350   1.013   7.239  1.0820  0.9339  0.0706
    8MOL   H469 4963   0.253   1.154   7.195  0.9311 -1.1566 -1.0011
    8MOL   H470 4964   0.189   0.992   7.442 -1.4697  2.0615  1.3815
    8MOL   H471 4965   0.128   0.966   7.276  2.7994 -1.7085 -0.7087
    8MOL   H472 4966   7.680   1.045   7.520  0.7266  1.9989  1.6064
    8MOL   H473 4967   7.523   1.286   7.413  1.3083  0.1319 -0.6589
    8MOL   H474 4968   7.529   1.229   7.576  0.2369 -0.1516  0.3687
    8MOL   H475 4969   7.404   1.083   7.355  2.9691  1.3969 -0.0695
    8MOL   H476 4970   7.445   1.008   7.501 -0.0050  0.1611  0.4648
    8MOL   H477 4971   7.256   1.245   7.490 -0.7494  0.2652  1.1573
    8MOL   H478 4972   7.312   1.175   7.641  1.6956  2.1397 -0.8684
    8MOL   H479 4973   7.199   0.954   7.553  1.8926  0.7334 -2.1838
    8MOL   H480 4974   7.151   1.040   7.410  0.2057 -1.5091  0.4716
    8MOL   H481 4975   6.984   1.126   7.505  3.6123  0.6194 -2.7458
    8MOL   C482 4976   7.013   1.110   0.000 -0.9082 -0.3940  0.2563
    8MOL   O483 4977   7.094   1.104   0.092  0.7490  0.4283  0.0481
    8MOL   C484 4978   6.864   1.146   0.028  0.0149 -1.1999  0.3075
    8MOL   C485 4979   6.843   1.282   0.089  0.0458  0.6390 -0.2629
    8MOL   C486 4980   6.846   1.403   7.694  0.6183  0.2161 -0.2168
    8MOL   C487 4981   6.822   1.538   0.057  0.5953  0.0607  0.0712
    8MOL   C488 4982   6.950   1.605   0.114 -0.0835 -0.1719 -1.1549
    8MOL   O489 4983   7.066   1.586   0.071  0.7213  0.3968 -0.0175
    8MOL   N490 4984   6.937   1.672   0.228 -0.3900 -0.0150  0.1558
    8MOL   C491 4985   7.042   1.701   0.330  0.1791  0.2561  0.1856
    8MOL   C492 4986   7.040   1.855   0.362  0.4036  0.0123 -0.7050
    8MOL   C493 4987   7.042   1.947   0.231  0.1546  0.0214  0.1356
    8MOL   C494 4988   7.029   2.091   0.278 -0.0463 -0.2565  0.1271
    8MOL   N495 4989   7.022   2.188   0.170  0.1948  0.2860 -0.8512
    8MOL   H496 4990   6.804   1.143   7.639  0.5105  0.3375 -0.0914
    8MOL   H497 4991   6.833   1.069   0.098 -1.4522 -0.6760  0.2391
    8MOL   H498 4992   6.744   1.280   0.133  0.2294  2.4306  0.2936
    8MOL   H499 4993   6.912   1.292   0.173  0.5834 -0.0758 -0.6147
    8MOL   H500 4994   6.767   1.389   7.620  0.7652  0.6405 -0.4540
    8MOL   H501 4995   6.936   1.387   7.635  0.7049 -0.4997  0.1129
    8MOL   H502 4996   6.753   1.538   0.142  0.4276  0.7571 -0.0586
    8MOL   H503 4997   6.781   1.605   7.683 -0.1750 -2.6768 -2.0112
    8MOL   H504 4998   6.839   1.682   0.250 -0.1283 -0.7796  1.7747
    8MOL   H505 4999   7.143   1.682   0.293 -0.2122 -1.0260 -0.2462
    8MOL   H506 5000   7.025   1.636   0.416  1.5320  2.7723  2.4270
    8MOL   H507 5001   6.948   1.869   0.420 -0.1789  0.4206 -1.7152
    8MOL   H508 5002   7.120   1.878   0.432 -1.1754 -0.5316  1.3680
    8MOL   H509 5003   6.960   1.923   0.163 -0.3852  0.2876  0.6846
    8MOL   H510 5004   7.130   1.929   0.170  0.3643  1.3834  0.0294
    8MOL   H511 5005   7.122   2.105   0.332  1.0691 -0.7948 -1.5835
    8MOL   H512 5006   6.937   2.090   0.335 -0.3087 -1.2670 -0.2985
    8MOL   H513 5007   7.100   2.243   0.137  0.3279  0.3139 -0.4894
    8MOL   C514 5008   6.901   2.217   0.110  0.0171  0.2240 -0.5833
    8MOL   O515 5009   6.802   2.154   0.139  0.4340 -0.0557 -0.2737
    8MOL   C516 5010   6.892   2.333   0.008  0.6770  0.6853  0.3020
    8MOL   C517 5011   6.861   2.284   7.568  0.2167  0.3606 -0.9501
    8MOL   C518 5012   6.855   2.394   7.455  0.2835 -0.6717  0.5192
    8MOL   C519 5013   6.886   2.349   7.306 -0.3875 -0.2652  0.1281
    8MOL   C520 5014   6.782   2.246   7.249 -0.1487 -0.2565 -0.7038
    8MOL   O521 5015   6.664   2.246   7.283 -0.0886  0.0078 -0.0882
    8MOL   N522 5016   6.824   2.181   7.147  0.1596 -0.4622 -0.0737
    8MOL   C523 5017   6.748   2.072   7.085  0.0934  0.2005 -0.1529
    8MOL   C524 5018   6.847   1.995   6.996  0.6221 -0.0477  0.7019
    8MOL   C525 5019   6.807   1.852   6.966 -0.6914 -0.6624  0.0724
    8MOL   C526 5020   6.907   1.782   6.868 -0.3258  0.4430  0.6057
    8MOL   N527 5021   6.870   1.642   6.858  0.1414 -0.0052  0.1099
    8MOL   H528 5022   6.821   2.408   0.042  1.4240  1.5986 -0.1398
    8MOL   H529 5023   6.983   2.392   0.000  0.7337  0.5705  0.1046
    8MOL   H530 5024   6.930   2.209   7.529 -1.1551 -0.8741 -1.0549
    8MOL   H531 5025   6.766   2.231   7.570  0.4209  0.0229  0.4044
    8MOL   H532 5026   6.925   2.474   7.477 -0.8933  0.5790 -0.2652
    8MOL   H533 5027   6.754   2.432   7.465  1.6371  3.5160 -0.6655
    8MOL   H534 5028   6.987   2.308   7.301 -0.7964 -1.2172 -0.6336
    8MOL   H535 5029   6.875   2.434   7.240 -0.1869 -0.3300  0.0127
    8MOL   H536 5030   6.910   2.206   7.101 -0.4281  2.2146  0.1937
    8MOL   H537 5031   6.655   2.108   7.042  0.1482  0.1048 -0.3485
    8MOL   H538 5032   6.714   2.006   7.165 -2.0103  1.1975 -0.1933
    8MOL   H539 5033   6.850   2.039   6.897  0.9858  0.4810  0.9405
    8MOL   H540 5034   6.945   1.996   7.044 -0.0559  2.2123  2.1143
    8MOL   H541 5035   6.701   1.853   6.943 -1.0518 -2.7987  1.5551
    8MOL   H542 5036   6.807   1.800   7.061 -1.7144  0.0388  0.4621
    8MOL   H543 5037   7.012   1.782   6.898  0.0043  2.8181 -0.4511
    8MOL   H544 5038   6.901   1.827   6.769 -0.6651 -1.2561 -0.1809
    8MOL   H545 5039   6.949   1.580   6.873 -0.1253 -1.0214 -2.4381
    8MOL   C546 5040   6.756   1.576   6.821 -0.2611 -0.1443  0.1887
    8MOL   O547 5041   6.658   1.630   6.773 -0.3192 -0.1917 -0.2545
    8MOL   C548 5042   6.762   1.422   6.845 -0.4517 -0.3876 -0.0189
    8MOL   C549 5043   6.627   1.348   6.810  0.1909  0.3548 -0.5605
    8MOL   C550 5044   6.635   1.196   6.803  0.5748 -0.3366 -0.6119
    8MOL   C551 5045   6.503   1.130   6.760  0.3528  0.0844 -0.1552
    8MOL   C552 5046   6.375   1.166   6.845  0.1144 -0.1028  0.0599
    8MOL   O553 5047   6.387   1.194   6.964 -0.1279 -0.1114  0.0975
    8MOL   N554 5048   6.259   1.183   6.774 -0.0437 -0.1410 -0.1042
    8MOL   C555 5049   6.140   1.250   6.812 -0.1411  0.0588  0.5503
    8MOL   C556 5050   6.035   1.143   6.867 -0.0225  0.1337 -0.1804
    8MOL   C557 5051   5.905   1.207   6.908  0.1430  0.1098  0.2010
    8MOL   C558 5052   5.799   1.109   6.950 -0.2364  0.0061  0.2548
    8MOL   N559 5053   5.674   1.191   6.961  0.1678 -0.1773  0.1371
    8MOL   H560 5054   6.841   1.385   6.779 -0.8963 -0.9499 -0.2439
    8MOL   H561 5055   6.787   1.407   6.950 -0.3562 -0.5618 -0.0660
    8MOL   H562 5056   6.571   1.365   6.902 -0.2363 -1.7322 -0.4142
    8MOL   H563 5057   6.565   1.390   6.730 -0.9691 -0.0683  0.1041
    8MOL   H564 5058   6.672   1.149   6.894  0.7663 -0.2034 -0.6207
    8MOL   H565 5059   6.710   1.166   6.730 -0.4249 -0.9935 -1.3749
    8MOL   H566 5060   6.520   1.023   6.756 -2.1279 -0.3543 -0.0111
    8MOL   H567 5061   6.488   1.166   6.658  3.0555  3.3262  0.5017
    8MOL   H568 5062   6.260   1.161   6.676  0.3154  1.9114 -0.5695
    8MOL   H569 5063   6.091   1.286   6.721  1.1046 -0.0953 -0.2033
    8MOL   H570 5064   6.162   1.339   6.872  1.1652  0.0400  0.1276
    8MOL   H571 5065   6.018   1.074   6.785  3.7651  0.9750 -1.7953
    8MOL   H572 5066   6.065   1.078   6.949  3.3098  2.0205  0.2229
    8MOL   H573 5067   5.876   1.271   6.824  2.3915 -1.7129 -2.0506
    8MOL   H574 5068   5.938   1.260   6.997  1.1013 -0.4410  0.1740
    8MOL   H575 5069   5.829   1.064   7.044  0.3869  0.2883  0.1937
    8MOL   H576 5070   5.769   1.039   6.872  1.7474 -0.4823 -0.0970
    8MOL   H577 5071   5.643   1.238   6.877  1.0783  0.6284  0.2461
    8MOL   C578 5072   5.575   1.175   7.048 -0.7636  0.5706  0.6854
    8MOL   O579 5073   5.592   1.104   7.150  0.5068  0.1949  0.3706
    8MOL   C580 5074   5.446   1.244   7.011 -0.1107  0.2994 -0.1440
    8MOL   C581 5075   5.330   1.212   7.105 -0.4132  0.1257 -0.0162
    8MOL   C582 5076   5.331   1.293   7.232  0.4358  0.3879  0.5730
    8MOL   C583 5077   5.194   1.271   7.310 -0.5778  0.5498  0.3840
    8MOL   C584 5078   5.202   1.351   7.441 -0.4709  0.4361  0.1601
    8MOL   O585 5079   5.268   1.456   7.447 -0.2230  0.5459  0.4652
    8MOL   N586 5080   5.122   1.311   7.543 -0.1900  0.5707  0.7973
    8MOL   C587 5081   5.060   1.393   7.646 -0.0333  0.1828  0.2422
    8MOL   C588 5082   4.935   1.459   7.580  0.5552  0.7674  1.0170
    8MOL   C589 5083   4.837   1.352   7.522 -0.7830  0.0927  0.8117
    8MOL   C590 5084   4.701   1.415   7.499  0.6007  0.0635 -0.4443
    8MOL   N591 5085   4.693   1.543   7.421  0.4538 -0.1342  0.9016
    8MOL   H592 5086   5.464   1.351   7.003  1.2375  0.2254  1.6899
    8MOL   H593 5087   5.410   1.219   6.911 -0.1494 -0.4818  0.0620
    8MOL   H594 5088   5.237   1.234   7.054 -0.4450 -1.9544 -0.9017
    8MOL   H595 5089   5.330   1.107   7.135 -2.4398  0.7898  2.4277
    8MOL   H596 5090   5.344   1.399   7.208  1.0602  0.4128  1.0138
    8MOL   H597 5091   5.407   1.256   7.301  0.3460 -0.8379  0.0293
    8MOL   H598 5092   5.178   1.165   7.329  1.9008 -0.0645 -0.7045
    8MOL   H599 5093   5.114   1.313   7.249 -2.2405 -0.4454  1.8235
    8MOL   H600 5094   5.083   1.219   7.531 -0.7201  1.0587 -1.4126
    8MOL   H601 5095   5.133   1.468   7.675  0.9290  0.3959 -2.6692
    8MOL   H602 5096   5.030   1.354   0.043  0.2600  0.8987  0.6173
    8MOL   H603 5097   4.879   1.531   7.638 -0.9013  1.0099 -0.6355
    8MOL   H604 5098   4.965   1.520   7.495 -0.0378  1.8250  1.5625
    8MOL   H605 5099   4.837   1.272   7.595 -1.7351 -0.0753  0.6288
    8MOL   H606 5100   4.887   1.325   7.429  1.9952 -0.4430  2.4008
    8MOL   H607 5101   4.649   1.426   7.594 -1.1856 -0.8175 -1.2948
    8MOL   H608 5102   4.635   1.338   7.459 -0.7841  0.6033  0.7840
    8MOL   H609 5103   4.690   1.634   7.465 -1.3914  0.8192 -1.1038
    8MOL   C610 5104   4.678   1.538   7.285 -0.1723 -0.7344 -0.2014
    8MOL   O611 5105   4.669   1.426   7.232  0.4722  0.3020 -0.2547
    8MOL   C612 5106   4.687   1.671   7.207 -0.0778  0.1078 -1.0556
    8MOL   C613 5107   4.641   1.674   7.059 -0.1512  0.4455 -0.4635
    8MOL   C614 5108   4.502   1.638   7.024 -0.0638  0.3118  0.3084
    8MOL   C615 5109   4.387   1.670   7.128  0.3691 -0.2343  0.2840
    8MOL   C616 5110   4.350   1.817   7.134 -0.1183 -0.1158 -0.2699
    8MOL   O617 5111   4.276   1.857   7.041  0.4577 -0.6051  0.0752
    8MOL   N618 5112   4.387   1.881   7.241 -0.4719 -0.1611 -0.7345
    8MOL   C619 5113   4.336   2.005   7.292 -0.1543  0.1134  1.0038
    8MOL   C620 5114   4.410   2.124   7.232  0.0946  0.1492 -0.6623
    8MOL   C621 5115   4.349   2.256   7.277  0.4397  0.2096 -0.7301
    8MOL   C622 5116   4.422   2.376   7.211 -0.4309 -0.4886 -0.3980
    8MOL   N623 5117   4.549   2.396   7.286 -0.2713 -0.0412  0.5622
    8MOL   H624 5118   4.624   1.742   7.260 -0.9748 -0.6095 -1.1434
    8MOL   H625 5119   4.790   1.707   7.212 -0.0758 -0.2155  2.7396
    8MOL   H626 5120   4.653   1.774   7.017 -0.4834  1.4577  1.7680
    8MOL   H627 5121   4.716   1.615   7.007  0.9243  0.5878  0.8989
    8MOL   H628 5122   4.501   1.530   7.014  0.4934  0.1391  1.9733
    8MOL   H629 5123   4.469   1.683   6.930  0.9851  0.4337 -0.0128
    8MOL   H630 5124   4.412   1.632   7.227 -0.4198 -1.2038  0.1093
    8MOL   H631 5125   4.306   1.604   7.099  1.8549 -1.5210 -1.0136
    8MOL   H632 5126   4.441   1.833   7.312 -3.3012 -0.7825  1.0570
    8MOL   H633 5127   4.350   2.004   7.400 -0.5584  2.4164  1.1143
    8MOL   H634 5128   4.229   2.007   7.274  0.1789 -0.8280 -1.2296
    8MOL   H635 5129   4.515   2.110   7.256 -0.2617 -1.3231  0.1132
    8MOL   H636 5130   4.396   2.113   7.125 -0.9241  0.1748 -0.5362
    8MOL   H637 5131   4.355   2.271   7.385  1.3627 -2.7988 -0.3073
    8MOL   H638 5132   4.243   2.263   7.249  0.3669 -0.8781 -0.7406
    8MOL   H639 5133   4.365   2.469   7.207 -0.8602 -0.7331 -0.0350
    8MOL   H640 5134   4.449   2.369   7.106 -0.3561 -0.5724 -0.3728
    8MOL   H641 5135   4.596   2.477   7.249  1.9749 -1.6551 -0.2490
    8MOL   H642 5136   4.527   2.415   7.382 -2.0051 -2.2918  0.6578
    9MOL     C1 5137   6.016   3.567   4.298  0.2938  0.9797 -0.2790
    9MOL     O2 5138   6.045   3.451   4.340 -0.1700  0.0991 -0.1044
    9MOL     C3 5139   6.005   3.601   4.149  0.4656 -0.0437 -0.0170
    9MOL     C4 5140   6.118   3.553   4.050  0.4783 -0.0222  0.3884
    9MOL     C5 5141   6.113   3.398   4.032  0.2796  0.5248 -0.0738
    9MOL     C6 5142   6.228   3.344   3.944  0.0570 -0.8917 -0.0999
    9MOL     C7 5143   6.371   3.400   3.989  0.2941 -0.4919  0.3176
    9MOL     O8 5144   6.399   3.420   4.106 -0.4293  0.2830 -0.2519
    9MOL     N9 5145   6.456   3.423   3.887 -0.3912  0.0878  0.6932
    9MOL    C10 5146   6.602   3.438   3.905 -0.4835  0.4838 -0.4868
    9MOL    C11 5147   6.665   3.301   3.941  0.4457 -0.2960 -0.3663
    9MOL    C12 5148   6.818   3.303   3.964 -0.4862 -0.1103 -0.5249
    9MOL    C13 5149   6.868   3.159   3.959  0.4204 -1.0244  0.2146
    9MOL    N14 5150   6.807   3.081   4.059 -0.3466  0.3435 -0.2062
    9MOL    H15 5151   5.902   3.583   4.119  0.3271  0.4256  0.1642
    9MOL    H16 5152   6.011   3.710   4.141  1.3869  0.0927  2.0663
    9MOL    H17 5153   6.108   3.610   3.958 -2.1027 -1.6955 -0.4152
    9MOL    H18 5154   6.207   3.585   4.103  0.5882 -0.0863  0.2399
    9MOL    H19 5155   6.020   3.372   3.982 -0.5580  1.2654  1.0716
    9MOL    H20 5156   6.117   3.340   4.125 -0.8126  1.1445  0.3694
    9MOL    H21 5157   6.216   3.368   3.839 -1.1781 -1.6740 -0.1406
    9MOL    H22 5158   6.230   3.235   3.940  0.0066 -0.8979  0.0232
    9MOL    H23 5159   6.409   3.423   3.797  0.2828  1.3785  0.3247
    9MOL    H24 5160   6.621   3.504   3.989 -1.6234  0.8814 -0.5397
    9MOL    H25 5161   6.649   3.478   3.815  1.0157  3.2680  1.4522
    9MOL    H26 5162   6.630   3.269   4.039 -0.5391  1.7059 -0.0600
    9MOL    H27 5163   6.639   3.227   3.865  0.8266  0.3565 -1.1385
    9MOL    H28 5164   6.853   3.348   4.056 -0.1754  2.2139 -1.7366
    9MOL    H29 5165   6.872   3.341   3.877  0.8431  2.3530  1.3168
    9MOL    H30 5166   6.975   3.162   3.981  0.1718 -0.9361  1.5002
    9MOL    H31 5167   6.856   3.107   3.864  0.1602  1.8857 -1.4005
    9MOL    H32 5168   6.809   3.124   4.151  1.8320 -1.4111  0.5936
    9MOL    H33 5169   5.993   3.644   4.372  0.2546 -0.3615  1.1257
    9MOL    C34 5170   6.720   2.985   4.056  0.3116  0.8150  0.2112
    9MOL    O35 5171   6.664   2.945   3.952 -0.4525 -0.5451  0.1646
    9MOL    C36 5172   6.679   2.924   4.193  0.1170  0.0113 -0.0332
    9MOL    C37 5173   6.531   2.943   4.216 -0.9391 -0.9476 -0.3169
    9MOL    C38 5174   6.488   2.881   4.353  0.4755 -0.2130 -0.0125
    9MOL    C39 5175   6.341   2.896   4.399  0.2525 -0.0690 -0.5588
    9MOL    C40 5176   6.235   2.850   4.300  0.1030  0.0477 -0.7171
    9MOL    O41 5177   6.230   2.734   4.259 -0.2114 -0.7763 -0.0381
    9MOL    N42 5178   6.147   2.937   4.250  0.2971  0.8105 -0.4485
    9MOL    C43 5179   6.034   2.912   4.161  0.3566  0.2616 -0.6184
    9MOL    C44 5180   6.002   3.044   4.080  0.4552  0.9080 -0.3481
    9MOL    C45 5181   5.905   3.026   3.965  0.6118  0.5324  0.4404
    9MOL    C46 5182   5.862   3.156   3.899 -0.0853 -0.2519 -0.2932
    9MOL    N47 5183   5.770   3.122   3.785 -0.1300 -0.1960  0.1286
    9MOL    H48 5184   6.695   2.816   4.193 -1.3049 -0.2274  1.6634
    9MOL    H49 5185   6.730   2.972   4.277 -0.9362  2.8975 -1.0043
    9MOL    H50 5186   6.506   3.049   4.226 -1.2736 -1.0587  0.0678
    9MOL    H51 5187   6.478   2.885   4.141 -1.2754  0.2532 -1.0180
    9MOL    H52 5188   6.545   2.921   4.438  0.0713 -0.7607  0.5178
    9MOL    H53 5189   6.526   2.779   4.353  2.0015  0.3247 -1.7951
    9MOL    H54 5190   6.327   2.992   4.450  0.9272 -0.8174  1.0917
    9MOL    H55 5191   6.327   2.838   4.490  0.5534 -0.3058 -0.6611
    9MOL    H56 5192   6.179   3.033   4.253  0.0566  1.0272 -3.3846
    9MOL    H57 5193   5.946   2.889   4.221  0.0853  1.2534 -0.6207
    9MOL    H58 5194   6.051   2.833   4.088 -0.0732  1.5643 -2.1852
    9MOL    H59 5195   5.969   3.126   4.144  1.3322 -0.4565  1.9480
    9MOL    H60 5196   6.097   3.079   4.040  0.3979 -0.0762 -1.3490
    9MOL    H61 5197   5.815   2.987   4.011  0.3022 -0.0362 -0.6315
    9MOL    H62 5198   5.928   2.952   3.889 -0.2791  1.5026 -0.7917
    9MOL    H63 5199   5.946   3.204   3.848  0.9332 -1.6988 -0.0080
    9MOL    H64 5200   5.815   3.227   3.966 -1.0633  1.2413 -2.4821
    9MOL    H65 5201   5.671   3.123   3.805 -0.2270 -1.4662 -0.2914
    9MOL    C66 5202   5.793   3.134   3.651 -0.1580  0.2395 -0.4956
    9MOL    O67 5203   5.901   3.168   3.602  0.0509  0.0998 -0.2368
    9MOL    C68 5204   5.674   3.120   3.560  0.8707  0.2804 -0.6229
    9MOL    C69 5205   5.611   3.256   3.505  0.0184  0.0451 -0.4741
    9MOL    C70 5206   5.569   3.353   3.606  0.6778  0.3043  0.3591
    9MOL    C71 5207   5.502   3.469   3.538  0.4026 -0.3961 -0.5388
    9MOL    C72 5208   5.579   3.555   3.448 -0.1040 -0.3980  0.1157
    9MOL    O73 5209   5.671   3.621   3.499  0.5521 -0.2110 -0.0469
    9MOL    N74 5210   5.544   3.563   3.315 -0.6616 -0.1992  0.8483
    9MOL    C75 5211   5.587   3.667   3.224 -0.2303  0.3438  0.4075
    9MOL    C76 5212   5.702   3.605   3.139 -0.6352 -0.4032  0.5643
    9MOL    C77 5213   5.773   3.701   3.036  0.3523  0.0932 -0.6361
    9MOL    C78 5214   5.675   3.744   2.934 -0.5090 -0.4113 -0.5367
    9MOL    N79 5215   5.738   3.851   2.862 -0.2188 -0.2644  0.0675
    9MOL    H80 5216   5.704   3.058   3.475  1.3826  0.0936 -0.3093
    9MOL    H81 5217   5.595   3.065   3.610  0.3909  0.3983 -1.2469
    9MOL    H82 5218   5.683   3.305   3.440 -1.6889 -0.9824 -3.2341
    9MOL    H83 5219   5.527   3.227   3.442 -0.8302 -1.9348  1.4963
    9MOL    H84 5220   5.653   3.392   3.665 -0.0506 -1.2405  2.4863
    9MOL    H85 5221   5.507   3.322   3.690 -1.5098  3.1139 -0.1523
    9MOL    H86 5222   5.468   3.528   3.623  1.3354 -0.3130 -0.2268
    9MOL    H87 5223   5.410   3.440   3.486  0.1341 -0.8841  0.2004
    9MOL    H88 5224   5.464   3.506   3.292 -0.6180  0.1884 -0.2985
    9MOL    H89 5225   5.624   3.754   3.278  0.0878  0.8151 -0.5562
    9MOL    H90 5226   5.501   3.687   3.161 -0.6914 -1.7288  0.3393
    9MOL    H91 5227   5.788   3.571   3.196  0.3893 -0.5523 -1.0362
    9MOL    H92 5228   5.674   3.517   3.082  1.2905  0.6719 -2.1523
    9MOL    H93 5229   5.852   3.641   2.991  0.8720  1.0526 -1.0238
    9MOL    H94 5230   5.802   3.789   3.094  1.3870 -0.8101  0.2396
    9MOL    H95 5231   5.586   3.781   2.985  0.7202  0.0107  1.3511
    9MOL    H96 5232   5.647   3.653   2.882 -1.9298  0.0696 -0.6401
    9MOL    H97 5233   5.808   3.909   2.905  0.6847 -1.3180  0.0350
    9MOL    C98 5234   5.726   3.878   2.732  0.1148  0.2926  0.0977
    9MOL    O99 5235   5.660   3.812   2.649 -0.1070  0.4277  0.1901
    9MOL   C100 5236   5.819   3.984   2.681 -0.1727 -0.0704 -0.1042
    9MOL   C101 5237   5.880   3.971   2.540  0.4619  0.1610  0.8820
    9MOL   C102 5238   6.001   3.880   2.531  0.1158 -0.1994 -0.4247
    9MOL   C103 5239   6.068   3.879   2.392 -0.4165  0.2114  0.0026
    9MOL   C104 5240   5.984   3.829   2.276 -0.4252  0.5042 -0.2179
    9MOL   O105 5241   5.988   3.705   2.243 -0.6420  0.2892 -0.1961
    9MOL   N106 5242   5.918   3.925   2.208 -0.0221 -0.5256 -0.0078
    9MOL   C107 5243   5.823   3.904   2.095  0.4752 -0.0064  0.2369
    9MOL   C108 5244   5.722   4.023   2.082 -0.6677  0.1491  0.4545
    9MOL   C109 5245   5.637   4.040   2.208 -0.4230  0.2965  0.6720
    9MOL   C110 5246   5.535   3.927   2.233  0.1864  0.2493 -0.4878
    9MOL   N111 5247   5.445   3.914   2.116 -0.2791  0.3176  0.4309
    9MOL   H112 5248   5.761   4.074   2.703 -0.8350 -0.5583  0.1598
    9MOL   H113 5249   5.906   4.000   2.744  1.0765 -2.7225 -1.0657
    9MOL   H114 5250   5.803   3.943   2.468  1.6918 -1.1958  0.0688
    9MOL   H115 5251   5.902   4.074   2.512 -0.1445  0.0635  0.0380
    9MOL   H116 5252   5.971   3.778   2.556  1.6493 -0.8307 -1.1228
    9MOL   H117 5253   6.066   3.906   2.614 -1.4654  0.1806  0.7256
    9MOL   H118 5254   6.153   3.813   2.411 -0.2725  0.3500 -0.1592
    9MOL   H119 5255   6.107   3.978   2.367 -0.6199 -0.0283 -1.3339
    9MOL   H120 5256   5.933   4.021   2.235  2.5714 -1.5402  2.4170
    9MOL   H121 5257   5.774   3.808   2.113 -0.7436  0.8872  1.8860
    9MOL   H122 5258   5.872   3.887   1.999  1.8175 -0.9964  1.0860
    9MOL   H123 5259   5.779   4.113   2.059 -0.6818  0.0059 -0.1426
    9MOL   H124 5260   5.665   4.012   1.990 -0.1829 -0.6672  0.2535
    9MOL   H125 5261   5.594   4.140   2.207 -0.2406  0.3812  1.2441
    9MOL   H126 5262   5.715   4.054   2.282  0.3678  0.6863 -0.2251
    9MOL   H127 5263   5.478   3.928   2.325  0.0047  3.0673 -0.5879
    9MOL   H128 5264   5.597   3.841   2.256 -1.7493 -1.1449 -0.4101
    9MOL   H129 5265   5.366   3.976   2.107 -2.8917 -2.8130  0.8918
    9MOL   C130 5266   5.450   3.816   2.020 -0.2683 -0.1880 -0.3013
    9MOL   O131 5267   5.539   3.731   2.025 -0.5709  0.7227  0.3934
    9MOL   C132 5268   5.349   3.823   1.910  0.1483 -0.3879 -0.2145
    9MOL   C133 5269   5.411   3.826   1.771 -0.0871  0.3335 -0.0311
    9MOL   C134 5270   5.309   3.875   1.667 -0.4605 -0.0906  0.1409
    9MOL   C135 5271   5.348   3.867   1.515 -0.1253  0.0927  0.5492
    9MOL   C136 5272   5.463   3.957   1.469 -0.5489  0.2286 -0.0850
    9MOL   O137 5273   5.469   4.071   1.515  0.4712 -0.8690  0.0180
    9MOL   N138 5274   5.544   3.914   1.374 -0.5358  0.0820  0.1739
    9MOL   C139 5275   5.628   4.009   1.287  0.5768  0.0975 -0.2783
    9MOL   C140 5276   5.548   4.078   1.181  0.1989  0.4476 -0.3776
    9MOL   C141 5277   5.657   4.137   1.077  0.0938  0.0239 -0.4288
    9MOL   C142 5278   5.601   4.224   0.967 -0.0399 -0.2097 -0.9834
    9MOL   N143 5279   5.712   4.284   0.902 -0.2004  0.2397 -0.4142
    9MOL   H144 5280   5.285   3.735   1.914 -0.6106  0.1216 -1.0404
    9MOL   H145 5281   5.290   3.914   1.926  0.6252 -0.6603  3.6845
    9MOL   H146 5282   5.504   3.883   1.772  0.0188  0.3182 -2.7788
    9MOL   H147 5283   5.436   3.722   1.753 -2.2470 -0.2223  0.0963
    9MOL   H148 5284   5.292   3.979   1.697  1.6078 -0.0471  1.2725
    9MOL   H149 5285   5.214   3.822   1.675 -0.3328 -0.6013 -1.6256
    9MOL   H150 5286   5.262   3.898   1.456  0.3174  2.4761  1.1396
    9MOL   H151 5287   5.383   3.765   1.494 -1.6576 -0.4319  0.4835
    9MOL   H152 5288   5.564   3.818   1.353  4.0455  0.9480 -0.0617
    9MOL   H153 5289   5.702   3.937   1.250 -1.2362 -1.0358 -1.7742
    9MOL   H154 5290   5.680   4.085   1.345 -0.8943  3.2057 -2.8868
    9MOL   H155 5291   5.482   4.001   1.140 -1.2620  0.6646  1.4459
    9MOL   H156 5292   5.477   4.153   1.216 -0.3246  0.0004 -0.4718
    9MOL   H157 5293   5.707   4.055   1.026 -0.8478 -0.5998 -0.3729
    9MOL   H158 5294   5.739   4.186   1.130  1.8598 -1.7823 -1.4443
    9MOL   H159 5295   5.541   4.301   1.016  1.9866  1.2014 -0.6775
    9MOL   H160 5296   5.543   4.158   0.902  1.8889 -0.6720 -2.2614
    9MOL   H161 5297   5.749   4.368   0.944 -1.8897 -0.8962  3.5600
    9MOL   C162 5298   5.772   4.237   0.792  0.4388 -0.1193  0.1952
    9MOL   O163 5299   5.728   4.134   0.737 -0.5559 -0.4467  0.4245
    9MOL   C164 5300   5.883   4.318   0.724  0.1144 -0.1481  0.1064
    9MOL   C165 5301   5.980   4.224   0.649  0.0150 -0.2639  0.3190
    9MOL   C166 5302   6.048   4.133   0.748 -0.0202  0.2134 -0.4793
    9MOL   C167 5303   6.154   4.043   0.680 -0.2293  0.5573 -0.2520
    9MOL   C168 5304   6.288   4.100   0.639  0.3859  0.3043  0.2307
    9MOL   O169 5305   6.352   4.171   0.717  0.4065  0.3192  0.4814
    9MOL   N170 5306   6.329   4.062   0.518 -0.1721 -0.2091 -0.0814
    9MOL   C171 5307   6.450   4.101   0.447 -0.0382  0.9667  0.5635
    9MOL   C172 5308   6.445   4.062   0.299 -0.1786 -0.0008  0.1457
    9MOL   C173 5309   6.502   3.926   0.269 -0.2379  0.0151 -0.8686
    9MOL   C174 5310   6.463   3.884   0.137  0.1213 -0.3092  0.4748
    9MOL   N175 5311   6.324   3.832   0.133  0.3609 -0.4923 -0.2705
    9MOL   H176 5312   5.830   4.380   0.651 -1.0407 -1.3438 -0.1041
    9MOL   H177 5313   5.918   4.389   0.798  0.4441 -0.9951  0.7668
    9MOL   H178 5314   5.924   4.169   0.573 -0.8931  1.1783 -0.0539
    9MOL   H179 5315   6.042   4.288   0.587  0.4140 -1.4350 -0.5138
    9MOL   H180 5316   5.982   4.074   0.812  2.7278 -1.3153  1.0583
    9MOL   H181 5317   6.102   4.192   0.822  1.5673 -3.0770  1.0772
    9MOL   H182 5318   6.112   3.995   0.592  0.4693 -3.5809  1.5680
    9MOL   H183 5319   6.178   3.968   0.755  0.0460  1.3477  0.4630
    9MOL   H184 5320   6.273   3.984   0.486  0.3842 -0.9574  0.7479
    9MOL   H185 5321   6.537   4.055   0.493 -0.1854  0.4751  0.3533
    9MOL   H186 5322   6.478   4.203   0.472 -1.8561  1.2038  1.7314
    9MOL   H187 5323   6.346   4.071   0.254  0.1945  0.0706 -0.6775
    9MOL   H188 5324   6.523   4.116   0.246 -0.2210 -1.1248 -1.1002
    9MOL   H189 5325   6.461   3.856   0.341  0.1105 -2.0046 -2.5699
    9MOL   H190 5326   6.611   3.924   0.270 -0.2298  0.4525 -0.6766
    9MOL   H191 5327   6.533   3.806   0.108 -0.4464 -1.1560  1.3437
    9MOL   H192 5328   6.478   3.970   0.072  1.1941 -1.4037 -0.7691
    9MOL   H193 5329   6.256   3.879   0.190 -0.5749 -0.6474 -1.2512
    9MOL   C194 5330   6.285   3.731   0.057  0.8028  0.3562 -0.3554
    9MOL   O195 5331   6.353   3.669   7.684 -0.2580 -0.3921  0.0655
    9MOL   C196 5332   6.142   3.693   0.080 -0.7276 -0.4110  0.6952
    9MOL   C197 5333   6.089   3.557   0.029 -0.5457  1.0802 -0.2510
    9MOL   C198 5334   5.941   3.526   0.056  0.4221  0.0352 -0.4283
    9MOL   C199 5335   5.894   3.389   0.003  0.9249 -0.0449  0.1963
    9MOL   C200 5336   5.938   3.264   0.079 -0.3983  0.3576 -0.4758
    9MOL   O201 5337   5.949   3.267   0.202 -0.6699  0.3833 -0.0974
    9MOL   N202 5338   5.955   3.156   0.004 -0.2068 -1.0756  0.1965
    9MOL   C203 5339   6.007   3.032   0.057  0.8748 -0.3763  0.0468
    9MOL   C204 5340   6.100   2.959   7.660  0.3257 -0.1931 -0.1211
    9MOL   C205 5341   6.136   2.811   0.005 -0.4425 -0.0373  0.1647
    9MOL   C206 5342   6.244   2.746   7.622 -0.1286  0.5659 -0.4164
    9MOL   N207 5343   6.379   2.812   7.631  0.0507  0.2207  0.0024
    9MOL   H208 5344   6.107   3.706   0.182  1.0117  1.1418  1.1165
    9MOL   H209 5345   6.097   3.781   0.033  0.5738  0.7518  1.5908
    9MOL   H210 5346   6.118   3.557   7.626  0.6100 -2.1571 -0.0102
    9MOL   H211 5347   6.147   3.482   0.083 -1.4051  0.3388 -0.3491
    9MOL   H212 5348   5.878   3.605   0.016 -1.1706 -1.2680 -0.5870
    9MOL   H213 5349   5.924   3.519   0.164 -0.2816  0.8824 -0.4800
    9MOL   H214 5350   5.936   3.387   7.604 -2.7721  2.7736 -1.5455
    9MOL   H215 5351   5.787   3.379   7.686  0.9233  2.0674 -1.0551
    9MOL   H216 5352   5.933   3.159   7.606  2.5609 -1.0879 -0.4600
    9MOL   H217 5353   5.921   2.972   0.085  0.1699 -0.5406 -2.3702
    9MOL   H218 5354   6.066   3.044   0.148  0.6824  1.5462 -0.0595
    9MOL   H219 5355   6.041   2.956   7.568 -0.4866 -1.0445  0.4142
    9MOL   H220 5356   6.196   3.010   7.655  0.3978 -0.2742  0.4666
    9MOL   H221 5357   6.044   2.753   0.006 -0.5464  0.1294  0.2399
    9MOL   H222 5358   6.174   2.822   0.106  0.1403  0.9015 -0.1529
    9MOL   H223 5359   6.208   2.757   7.520 -2.2815 -0.5472  0.2041
    9MOL   H224 5360   6.249   2.640   7.649  2.5430  1.0713  1.2075
    9MOL   H225 5361   6.390   2.892   7.571 -0.3756 -0.4735 -0.9992
    9MOL   C226 5362   6.485   2.755   7.684  0.1200 -0.1605  0.2383
    9MOL   O227 5363   6.479   2.649   0.048 -0.1215 -0.3346 -0.0348
    9MOL   C228 5364   6.625   2.822   7.682  0.4141  0.2070 -0.1326
    9MOL   C229 5365   6.732   2.733   7.624 -0.0703  0.0424 -0.1389
    9MOL   C230 5366   6.869   2.799   7.602 -0.6071  0.4273 -0.5184
    9MOL   C231 5367   6.861   2.872   7.464 -0.3562  0.1728  0.2285
    9MOL   C232 5368   6.982   2.948   7.422  0.3174 -0.0758 -0.2421
    9MOL   O233 5369   7.089   2.888   7.394 -0.9664 -0.2389 -0.6864
    9MOL   N234 5370   6.972   3.077   7.424  0.5366 -0.0734  0.2204
    9MOL   C235 5371   7.055   3.179   7.368 -0.0528  0.5594 -0.4649
    9MOL   C236 5372   7.045   3.310   7.450  0.0733  0.1801 -0.3663
    9MOL   C237 5373   7.120   3.418   7.375 -0.1724  0.2843 -0.5631
    9MOL   C238 5374   7.115   3.558   7.440  0.0811 -0.1580  0.1918
    9MOL   N239 5375   7.208   3.651   7.374  0.6652  0.5223 -0.3696
    9MOL   H240 5376   6.623   2.913   7.622  0.5064 -1.2059 -2.3700
    9MOL   H241 5377   6.640   2.839   0.087  0.9687 -1.3341  0.0488
    9MOL   H242 5378   6.746   2.660   0.003 -0.2423  0.9340  0.7204
    9MOL   H243 5379   6.694   2.684   7.535  0.2475 -1.6938  0.6594
    9MOL   H244 5380   6.950   2.728   7.617 -0.7714  0.1412 -0.9722
    9MOL   H245 5381   6.893   2.866   7.685  0.7225  1.2347 -1.5169
    9MOL   H246 5382   6.779   2.943   7.451 -0.8744 -0.4706 -0.0411
    9MOL   H247 5383   6.846   2.796   7.387 -0.1469  0.1563  0.2066
    9MOL   H248 5384   6.878   3.110   7.440 -0.0088 -1.1944 -0.6093
    9MOL   H249 5385   7.026   3.202   7.265  0.4840 -2.2183 -1.2920
    9MOL   H250 5386   7.155   3.138   7.381 -0.7969 -0.8504  1.0572
    9MOL   H251 5387   6.945   3.350   7.468  0.3383  0.1965  1.1242
    9MOL   H252 5388   7.080   3.291   7.551  0.2802  0.7340 -0.3306
    9MOL   H253 5389   7.089   3.431   7.271  2.6527  1.9111 -1.2787
    9MOL   H254 5390   7.229   3.405   7.375 -0.0934  0.7575 -2.8754
    9MOL   H255 5391   7.138   3.540   7.545 -1.2020 -1.7874  0.2195
    9MOL   H256 5392   7.017   3.606   7.431  0.8605  1.1145 -2.0628
    9MOL   H257 5393   7.261   3.616   7.295 -0.4466 -1.0515 -0.4503
    9MOL   C258 5394   7.207   3.779   7.387 -0.0888 -0.2384  0.4511
    9MOL   O259 5395   7.123   3.839   7.455  0.1249 -0.1987  0.3103
    9MOL   C260 5396   7.308   3.859   7.308  0.5689  0.1481 -0.6364
    9MOL   C261 5397   7.289   4.018   7.316  0.0662 -0.4309 -0.4607
    9MOL   C262 5398   7.392   4.109   7.252 -1.0549 -0.3788 -0.3937
    9MOL   C263 5399   7.369   4.253   7.290 -0.7463  0.7412  0.0366
    9MOL   C264 5400   7.495   4.341   7.289 -0.0358  0.2972  0.2754
    9MOL   O265 5401   7.599   4.320   7.228  0.3776  0.0638  0.2549
    9MOL   N266 5402   7.490   4.449   7.371  0.4335  0.3232  0.4262
    9MOL   C267 5403   7.600   4.548   7.390 -0.6142  0.5470 -0.5425
    9MOL   C268 5404   7.537   4.682   7.424 -0.4268  0.8653  0.1491
    9MOL   C269 5405   7.626   4.802   7.482  0.9135  0.3675 -0.9500
    9MOL   C270 5406   7.642   4.787   7.632  0.0209 -0.4329  0.0442
    9MOL   N271 5407   0.002   4.906   7.684  0.4080  0.0124 -0.8157
    9MOL   H272 5408   7.408   3.821   7.328  0.6177  0.4886 -0.2332
    9MOL   H273 5409   7.291   3.821   7.207 -1.2488  2.2676 -1.1672
    9MOL   H274 5410   7.189   4.060   7.303 -0.2302  0.0733  2.8803
    9MOL   H275 5411   7.296   4.045   7.421 -3.3337 -1.8306  0.2030
    9MOL   H276 5412   7.380   4.094   7.144  0.2358 -1.8310 -0.3472
    9MOL   H277 5413   7.496   4.077   7.260 -0.4692  1.7182  0.6747
    9MOL   H278 5414   7.330   4.260   7.391 -0.6292  1.2895  0.0462
    9MOL   H279 5415   7.293   4.300   7.227  0.0254  1.6776 -0.2076
    9MOL   H280 5416   7.409   4.463   7.428  0.7951  0.7567  0.8405
    9MOL   H281 5417   7.659   4.551   7.298  1.8511  0.6930  0.9804
    9MOL   H282 5418   7.669   4.513   7.467  0.4371  0.9388 -1.2989
    9MOL   H283 5419   7.497   4.733   7.336 -0.8255 -1.1513 -0.8868
    9MOL   H284 5420   7.456   4.665   7.494 -1.5222  0.7026 -1.1397
    9MOL   H285 5421   7.576   4.897   7.467  0.1559 -0.1102 -1.4587
    9MOL   H286 5422   0.021   4.794   7.432  0.8538  2.2231 -1.3966
    9MOL   H287 5423   7.698   4.694   7.647 -0.7229 -0.9507 -0.3590
    9MOL   H288 5424   7.547   4.771   7.683 -1.0366 -0.3131 -1.8579
    9MOL   H289 5425   7.651   4.989   7.658 -0.1464  0.5043  1.7725
    9MOL   C290 5426   0.116   4.920   0.047  0.1837  0.0293 -0.2403
    9MOL   O291 5427   0.187   4.821   0.072 -0.6598 -0.2366 -0.2013
    9MOL   C292 5428   0.154   5.056   0.107 -0.1914  0.2619  0.1495
    9MOL   C293 5429   0.163   5.059   0.258 -0.1793  0.0667 -0.3799
    9MOL   C294 5430   0.203   5.197   0.313  0.1540  0.7480  0.1688
    9MOL   C295 5431   0.207   5.189   0.472 -0.2476 -0.2764  0.2195
    9MOL   C296 5432   0.062   5.176   0.520 -0.1703  0.5629  0.0156
    9MOL   O297 5433   7.670   5.224   0.460 -0.7850  0.2327 -0.4224
    9MOL   N298 5434   0.046   5.113   0.634 -0.4973  0.1734  0.6337
    9MOL   C299 5435   7.639   5.102   0.729  0.3999  0.1196  0.5969
    9MOL   C300 5436   7.606   4.960   0.768 -0.0984 -0.5065 -0.1380
    9MOL   C301 5437   7.499   4.954   0.878  1.0600  0.7388  0.0106
    9MOL   C302 5438   7.453   4.811   0.908 -0.3583  0.5974  0.2846
    9MOL   N303 5439   7.349   4.808   1.012  0.0590 -0.4799 -0.1181
    9MOL   H304 5440   0.239   5.100   0.054 -1.0660  3.0439  0.9912
    9MOL   H305 5441   0.072   5.121   0.075 -0.0894 -0.2231 -1.1345
    9MOL   H306 5442   0.065   5.024   0.291  1.5728 -2.6993  2.1830
    9MOL   H307 5443   0.232   4.979   0.286 -0.9652  0.1814  1.9956
    9MOL   H308 5444   0.138   5.271   0.265 -0.8033  0.5154  1.0972
    9MOL   H309 5445   0.299   5.228   0.272 -1.2814  3.1657 -1.5545
    9MOL   H310 5446   0.253   5.282   0.505 -0.7496 -0.1248  0.4979
    9MOL   H311 5447   0.271   5.106   0.500  0.8873  0.1440 -1.0384
    9MOL   H312 5448   0.130   5.061   0.658 -0.8850 -0.6226  0.2782
    9MOL   H313 5449   7.556   5.154   0.681  1.6645  0.3770 -1.3715
    9MOL   H314 5450   7.675   5.165   0.811  1.7450 -0.1772  0.2361
    9MOL   H315 5451   7.571   4.914   0.676 -0.3967 -0.3927 -0.0817
    9MOL   H316 5452   7.701   4.917   0.800  0.1647  0.9209  1.0851
    9MOL   H317 5453   7.413   5.003   0.831  0.5311 -1.5931 -1.5235
    9MOL   H318 5454   7.519   5.013   0.967  1.3998 -2.0239  1.8264
    9MOL   H319 5455   7.535   4.742   0.931 -0.0718  0.3969 -1.3053
    9MOL   H320 5456   7.407   4.773   0.817  1.0943  1.2503 -0.7423
    9MOL   H321 5457   7.307   4.897   1.036 -1.0468 -0.9045 -0.4754
    9MOL   C322 5458   7.297   4.708   1.081 -0.2786  0.4992  0.5845
    9MOL   O323 5459   7.324   4.590   1.069  0.1853  0.2373  0.2826
    9MOL   C324 5460   7.191   4.746   1.182  0.1299 -0.8038  0.5053
    9MOL   C325 5461   7.049   4.744   1.116 -0.4906 -0.0476  0.1168
    9MOL   C326 5462   6.949   4.834   1.187 -0.8895 -0.8413  0.5227
    9MOL   C327 5463   6.951   4.988   1.163  0.2910 -0.5611 -1.0184
    9MOL   C328 5464   6.928   5.020   1.021  0.0417 -0.0459  0.1779
    9MOL   O329 5465   6.822   4.975   0.972 -0.1619  0.0456 -0.1446
    9MOL   N330 5466   7.013   5.098   0.955  0.4372 -0.2966 -0.6874
    9MOL   C331 5467   7.002   5.132   0.817  0.0021 -0.4145  0.0230
    9MOL   C332 5468   7.113   5.233   0.756  0.4998  0.1222 -0.3511
    9MOL   C333 5469   7.123   5.234   0.597 -0.3877  0.1067 -0.2210
    9MOL   C334 5470   7.231   5.329   0.545  0.6604  0.1413 -0.4636
    9MOL   N335 5471   7.198   5.472   0.566  0.2186 -0.3073 -0.5526
    9MOL   H336 5472   7.182   4.677   1.266 -1.4001 -2.4962 -1.0263
    9MOL   H337 5473   7.212   4.844   1.226  1.1623 -0.3559 -0.9666
    9MOL   H338 5474   7.063   4.782   1.014  0.0406  2.8709  1.2334
    9MOL   H339 5475   7.000   4.648   1.099 -3.4860  1.4451 -0.1213
    9MOL   H340 5476   6.954   4.811   1.294  0.6096 -1.8395  0.2595
    9MOL   H341 5477   6.848   4.803   1.161 -0.7825 -0.8797  0.1564
    9MOL   H342 5478   7.041   5.031   1.206 -1.5960  1.4731  1.0212
    9MOL   H343 5479   6.873   5.034   1.223  1.5153  1.7468 -1.1432
    9MOL   H344 5480   7.078   5.150   1.012 -0.6470  0.1850  0.1294
    9MOL   H345 5481   6.907   5.176   0.789 -0.4671 -1.3506  0.1403
    9MOL   H346 5482   7.010   5.047   0.748  0.6274 -0.9106  0.6963
    9MOL   H347 5483   7.088   5.336   0.784 -1.0547 -1.2262  3.5594
    9MOL   H348 5484   7.208   5.208   0.802 -1.4204 -6.0501  0.6449
    9MOL   H349 5485   7.030   5.248   0.543  0.9207  0.0751 -2.5197
    9MOL   H350 5486   7.158   5.133   0.576 -1.4790 -0.3682  0.2104
    9MOL   H351 5487   7.251   5.309   0.440  2.1608 -1.0161  0.0286
    9MOL   H352 5488   7.325   5.298   0.592  0.7022  0.5104 -0.3026
    9MOL   H353 5489   7.104   5.496   0.593  0.1907 -1.0311  0.0012
    9MOL   C354 5490   7.288   5.569   0.569 -0.0720 -0.0960  0.4511
    9MOL   O355 5491   7.409   5.551   0.550  0.7653 -0.0570 -0.0966
    9MOL   C356 5492   7.231   5.713   0.586 -0.2729 -0.7822 -0.7318
    9MOL   C357 5493   7.325   5.832   0.576  0.0939  0.6059 -0.1143
    9MOL   C358 5494   7.386   5.857   0.443  0.1335 -0.1390  0.6309
    9MOL   C359 5495   7.490   5.975   0.439 -0.0733  0.4417 -0.0966
    9MOL   C360 5496   7.434   6.104   0.488  0.3537  0.0608 -0.7452
    9MOL   O361 5497   7.381   6.173   0.403 -0.5721 -0.2308  0.0080
    9MOL   N362 5498   7.453   6.134   0.617  0.1303 -0.3312 -0.7596
    9MOL   C363 5499   7.417   6.267   0.665  0.3599 -0.0231  0.0701
    9MOL   C364 5500   7.276   6.278   0.711 -0.6084 -0.9850  0.0858
    9MOL   C365 5501   7.227   6.175   0.811  0.2580  0.3649 -0.3357
    9MOL   C366 5502   7.316   6.149   0.939 -0.0483 -0.7152 -0.5140
    9MOL   N367 5503   7.263   6.042   1.025  0.2208 -0.6586 -0.0493
    9MOL   H368 5504   7.158   5.732   0.508  0.5783  0.6196 -1.2127
    9MOL   H369 5505   7.184   5.711   0.684  1.0052  0.0289 -0.0873
    9MOL   H370 5506   7.272   5.925   0.598  0.7236  0.5580  1.6850
    9MOL   H371 5507   7.406   5.817   0.647 -0.8794 -0.8264  0.7374
    9MOL   H372 5508   7.306   5.880   0.373 -1.2388 -0.0813  2.2021
    9MOL   H373 5509   7.425   5.761   0.411 -2.1261 -0.6455 -0.6964
    9MOL   H374 5510   7.530   5.993   0.339 -0.0228  2.7451  0.3084
    9MOL   H375 5511   7.574   5.962   0.507 -0.1407  1.2500  0.1519
    9MOL   H376 5512   7.498   6.064   0.673 -2.1046 -2.4951 -1.5478
    9MOL   H377 5513   7.440   6.344   0.592  0.3542  0.4062  0.5133
    9MOL   H378 5514   7.483   6.288   0.750  1.3490 -1.3069 -0.3667
    9MOL   H379 5515   7.268   6.380   0.748 -0.3048 -0.5404 -1.0492
    9MOL   H380 5516   7.201   6.282   0.632 -1.4221  1.4746  0.9138
    9MOL   H381 5517   7.215   6.080   0.760  1.6739  0.6232 -1.1759
    9MOL   H382 5518   7.131   6.209   0.850  0.0433  0.1749 -0.6948
    9MOL   H383 5519   7.306   6.240   0.997  0.1011 -1.0868  0.0982
    9MOL   H384 5520   7.422   6.132   0.919 -0.0355  0.3807 -1.4562
    9MOL   H385 5521   7.180   5.994   0.993 -0.2841 -0.6844  1.2625
    9MOL   C386 5522   7.319   5.993   1.133  0.6258  0.0209  0.4866
    9MOL   O387 5523   7.416   6.043   1.181  0.3160  0.3482  0.0136
    9MOL   C388 5524   7.249   5.864   1.183  0.5915  0.4172  0.0357
    9MOL   C389 5525   7.332   5.733   1.160  0.0767  0.1810 -0.0433
    9MOL   C390 5526   7.251   5.612   1.175 -0.1588 -0.6222  0.7066
    9MOL   C391 5527   7.171   5.561   1.055 -0.2504  1.0840 -0.1962
    9MOL   C392 5528   7.074   5.448   1.103  0.1307  0.0978 -0.6527
    9MOL   O393 5529   7.114   5.331   1.100  0.7448  0.6282  0.4889
    9MOL   N394 5530   6.945   5.477   1.129 -0.4462  0.5007  0.7463
    9MOL   C395 5531   6.839   5.385   1.171 -0.3146  0.6913 -0.6639
    9MOL   C396 5532   6.841   5.343   1.319  0.2555 -0.0974  0.4752
    9MOL   C397 5533   6.832   5.473   1.403  0.4237  0.1793 -0.2090
    9MOL   C398 5534   6.806   5.441   1.552  0.3912  0.4079 -0.5141
    9MOL   N399 5535   6.794   5.563   1.634  0.2401  0.9509  0.0496
    9MOL   H400 5536   7.252   5.888   1.289 -0.7188  2.4353 -0.3528
    9MOL   H401 5537   7.146   5.852   1.152  0.3394 -1.1488  1.4582
    9MOL   H402 5538   7.370   5.735   1.058 -0.4973  0.7422 -0.2455
    9MOL   H403 5539   7.423   5.726   1.219 -1.0593  2.5070  2.0557
    9MOL   H404 5540   7.185   5.639   1.258  0.9584  2.5033  0.6446
    9MOL   H405 5541   7.316   5.537   1.220 -0.9534  0.0623  3.1140
    9MOL   H406 5542   7.233   5.532   0.970  0.6729 -0.3105  0.9202
    9MOL   H407 5543   7.100   5.638   1.026 -2.0359  0.0595  1.3753
    9MOL   H408 5544   6.912   5.572   1.121  2.3284  1.3296 -1.4356
    9MOL   H409 5545   6.840   5.296   1.109  0.6159 -0.2597  0.7039
    9MOL   H410 5546   6.744   5.436   1.153  0.3299  1.3723 -2.1606
    9MOL   H411 5547   6.761   5.274   1.347  0.9105 -1.0680 -0.0095
    9MOL   H412 5548   6.927   5.280   1.342 -0.6272 -0.7230  2.1845
    9MOL   H413 5549   6.750   5.538   1.371 -1.3879 -0.7008  2.4497
    9MOL   H414 5550   6.929   5.522   1.390  1.5502 -2.2483 -1.2615
    9MOL   H415 5551   6.882   5.372   1.587 -0.5801 -0.4956 -0.1613
    9MOL   H416 5552   6.714   5.383   1.563  0.4002  0.2173 -1.3963
    9MOL   H417 5553   6.706   5.580   1.680 -0.8352 -0.9336 -1.2292
    9MOL   C418 5554   6.897   5.631   1.687 -0.2711  0.1343  0.4825
    9MOL   O419 5555   7.016   5.601   1.669 -0.5404  0.1059  0.2650
    9MOL   C420 5556   6.860   5.761   1.760 -0.2978  0.3279 -0.0683
    9MOL   C421 5557   6.976   5.827   1.828 -0.3561 -0.0720  0.2850
    9MOL   C422 5558   7.076   5.882   1.725  0.4054 -0.2382  0.1387
    9MOL   C423 5559   7.187   5.977   1.779 -0.0546  0.7192 -0.2243
    9MOL   C424 5560   7.265   6.035   1.665  0.6726 -0.1619 -0.5969
    9MOL   O425 5561   7.384   6.005   1.653 -0.0794 -0.1537  0.6551
    9MOL   N426 5562   7.201   6.131   1.592  0.2260 -0.2323  0.0790
    9MOL   C427 5563   7.271   6.204   1.487 -0.2644 -0.2146  0.0283
    9MOL   C428 5564   7.322   6.322   1.558 -0.2021  0.2322 -0.1774
    9MOL   C429 5565   7.358   6.431   1.454  0.5094  0.0281 -0.2758
    9MOL   C430 5566   7.407   6.561   1.512 -0.3518 -0.4467 -0.4070
    9MOL   N431 5567   7.371   6.674   1.427  0.0160  0.5035 -0.2533
    9MOL   H432 5568   6.815   5.833   1.691  0.0929  2.4463  1.8159
    9MOL   H433 5569   6.781   5.733   1.830  0.3117  0.4865  0.6836
    9MOL   H434 5570   6.934   5.909   1.887 -1.4612 -0.0310 -0.5524
    9MOL   H435 5571   7.027   5.764   1.902  2.6447  2.8496  0.8300
    9MOL   H436 5572   7.016   5.934   1.650 -0.7092 -2.5538 -0.5946
    9MOL   H437 5573   7.124   5.796   1.677  0.3999 -0.5847  0.7544
    9MOL   H438 5574   7.246   5.933   1.859 -0.5322 -0.0154 -0.2631
    9MOL   H439 5575   7.142   6.062   1.830 -1.0373 -1.0451  1.9287
    9MOL   H440 5576   7.108   6.167   1.608  1.1562  2.3642 -0.1342
    9MOL   H441 5577   7.198   6.226   1.410 -0.4727  0.8707  0.5313
    9MOL   H442 5578   7.350   6.144   1.440 -1.9731 -1.4519 -1.3179
    9MOL   H443 5579   7.241   6.373   1.611 -0.8541 -0.1809 -0.7800
    9MOL   H444 5580   7.400   6.311   1.634 -0.4957 -0.9968 -0.0546
    9MOL   H445 5581   7.272   6.452   1.390  0.0285  2.8014  1.2050
    9MOL   H446 5582   7.433   6.394   1.384 -2.0505 -3.1848 -1.4879
    9MOL   H447 5583   7.511   6.559   1.544 -1.1462 -2.7549  2.3191
    9MOL   H448 5584   7.342   6.577   1.598  0.2738  0.5346 -0.1052
    9MOL   H449 5585   7.443   6.704   1.363  0.9251 -2.1811 -0.5155
    9MOL   C450 5586   7.260   6.749   1.422  0.2795 -0.2795  0.9262
    9MOL   O451 5587   7.157   6.720   1.483 -0.1167  0.2722 -0.3993
    9MOL   C452 5588   7.260   6.845   1.311  0.3462  0.2823 -0.0931
    9MOL   C453 5589   7.138   6.942   1.312 -0.1637  0.3594 -0.3181
    9MOL   C454 5590   7.143   7.061   1.410  0.3985 -0.1163 -0.7896
    9MOL   C455 5591   7.228   7.181   1.361  0.2966  0.4706 -0.2826
    9MOL   C456 5592   7.244   7.303   1.453 -0.4704 -0.0558  0.2183
    9MOL   O457 5593   7.174   7.313   1.555 -0.1594  0.4167  0.2022
    9MOL   N458 5594   7.325   7.403   1.415  0.3498 -0.3963  1.1647
    9MOL   C459 5595   7.334   7.532   1.484 -0.2418  0.2231  0.1248
    9MOL   C460 5596   7.413   7.542   1.614  0.1439  1.0801 -0.2801
    9MOL   C461 5597   7.437   7.681   1.672  0.5121  0.6002  0.1954
    9MOL   C462 5598   7.528   7.679   1.798 -0.0224 -0.0202  0.5391
    9MOL   N463 5599   7.458   7.616   1.905  0.1523  0.2463 -0.0596
    9MOL   H464 5600   7.352   6.901   1.293  0.3499 -0.1147 -1.3314
    9MOL   H465 5601   7.242   6.776   1.229  3.6030 -0.0223 -0.5877
    9MOL   H466 5602   7.112   6.970   1.210 -1.9760 -0.2745 -0.0478
    9MOL   H467 5603   7.046   6.887   1.333  0.9451 -1.0985  0.7878
    9MOL   H468 5604   7.176   7.047   1.512 -0.5076  2.1088 -0.1464
    9MOL   H469 5605   7.039   7.095   1.405  0.8820  1.4387 -0.7171
    9MOL   H470 5606   7.164   7.215   1.279 -1.3407 -3.1288 -0.6156
    9MOL   H471 5607   7.327   7.150   1.328  1.6401  1.5472  2.6035
    9MOL   H472 5608   7.357   7.397   1.319  0.6680  1.5667  1.1408
    9MOL   H473 5609   7.235   7.575   1.499  0.0506  0.9945 -0.1343
    9MOL   H474 5610   7.381   7.591   1.405  0.0381 -1.7221 -1.1977
    9MOL   H475 5611   7.362   7.484   1.691  1.8619  0.0728  0.1336
    9MOL   H476 5612   7.500   7.476   1.606 -1.9595 -2.3915  3.2815
    9MOL   H477 5613   7.342   0.031   1.691  0.1621 -0.4057  1.2128
    9MOL   H478 5614   7.481   0.042   1.595  0.7282 -1.0840 -1.0634
    9MOL   H479 5615   7.548   0.082   1.825 -2.5070  0.9940 -1.3497
    9MOL   H480 5616   7.621   7.631   1.768 -0.0116  0.4314 -0.1785
    9MOL   H481 5617   7.357   7.620   1.903  0.0185 -2.1247  0.6339
    9MOL   C482 5618   7.521   7.570   2.011  0.3596 -0.8064  0.1084
    9MOL   O483 5619   7.641   7.577   2.020 -0.5238  0.4038  0.6032
    9MOL   C484 5620   7.433   7.505   2.119  0.3649  0.3857  0.2969
    9MOL   C485 5621   7.437   7.353   2.130  0.1980 -0.1779  0.2484
    9MOL   C486 5622   7.573   7.300   2.185 -1.1619 -0.2921  0.3793
    9MOL   C487 5623   7.584   7.147   2.219 -0.3969 -0.0159  0.0955
    9MOL   C488 5624   7.508   7.109   2.348  0.4155  0.4639  0.5006
    9MOL   O489 5625   7.538   7.166   2.454 -0.0242 -0.2295  0.0855
    9MOL   N490 5626   7.422   7.006   2.337  0.1113 -0.8049  0.2966
    9MOL   C491 5627   7.338   6.943   2.437  0.2490  0.0166 -0.5046
    9MOL   C492 5628   7.277   6.815   2.372  0.5032 -0.5524  0.2503
    9MOL   C493 5629   7.178   6.745   2.463 -0.2554 -0.6429 -0.3637
    9MOL   C494 5630   7.117   6.623   2.381  0.0681 -0.4642 -0.3433
    9MOL   N495 5631   7.017   6.549   2.451  0.3867  0.2868  0.3666
    9MOL   H496 5632   7.471   7.556   2.207 -3.5195 -2.0097  3.5439
    9MOL   H497 5633   7.327   7.532   2.121  0.4543  0.6753  1.7010
    9MOL   H498 5634   7.358   7.324   2.200  0.4412 -1.8143 -0.1393
    9MOL   H499 5635   7.418   7.298   2.039 -1.0277  1.4044 -0.4865
    9MOL   H500 5636   7.593   7.362   2.272 -0.0765 -0.0860 -0.0042
    9MOL   H501 5637   7.651   7.326   2.113  0.6691 -0.3119  2.3074
    9MOL   H502 5638   7.692   7.130   2.226  0.4484  3.7812 -1.9123
    9MOL   H503 5639   7.549   7.098   2.128 -2.1931 -0.4818  1.0227
    9MOL   H504 5640   7.409   6.970   2.244 -1.4778  0.3828  0.0238
    9MOL   H505 5641   7.258   7.000   2.483  0.3766 -1.0644  1.0829
    9MOL   H506 5642   7.412   6.908   2.510  1.1124  1.9215 -0.4217
    9MOL   H507 5643   7.218   6.839   2.283 -0.5267  0.7831  1.2763
    9MOL   H508 5644   7.351   6.746   2.332 -2.1573 -3.1772 -0.2813
    9MOL   H509 5645   7.103   6.820   2.490 -0.1006 -1.5982  3.0047
    9MOL   H510 5646   7.235   6.706   2.547 -0.5421 -0.1984  0.0387
    9MOL   H511 5647   7.194   6.559   2.337 -0.2296 -1.6026  0.7504
    9MOL   H512 5648   7.065   6.668   2.296  0.4500 -1.0977 -0.9173
    9MOL   H513 5649   6.986   6.596   2.534 -2.9741  2.2902 -1.8807
    9MOL   C514 5650   6.966   6.436   2.406 -0.6075 -0.5481 -0.7416
    9MOL   O515 5651   6.988   6.399   2.291  1.1013 -0.5397 -0.3356
    9MOL   C516 5652   6.860   6.377   2.499  0.3499  0.6378 -0.3881
    9MOL   C517 5653   6.892   6.233   2.545 -0.7740 -0.1337  0.5793
    9MOL   C518 5654   7.016   6.221   2.644  0.4549 -0.1440  0.0477
    9MOL   C519 5655   7.055   6.076   2.664 -0.0448 -0.3270 -0.2614
    9MOL   C520 5656   7.119   6.004   2.545  0.7771 -0.0112 -0.5165
    9MOL   O521 5657   7.068   6.005   2.434  0.1416  0.6535 -0.3705
    9MOL   N522 5658   7.239   5.946   2.565 -0.2745  0.1275 -0.3193
    9MOL   C523 5659   7.295   5.841   2.478 -0.6916 -0.0423 -0.1520
    9MOL   C524 5660   7.220   5.711   2.496  0.0107 -0.2433 -0.5943
    9MOL   C525 5661   7.286   5.588   2.439  0.1981  0.1643  0.3556
    9MOL   C526 5662   7.201   5.466   2.465  0.7794  0.3150  0.4212
    9MOL   N527 5663   7.287   5.344   2.452  0.4765  0.0061  0.1114
    9MOL   H528 5664   6.851   6.437   2.590  2.4499 -1.2723  1.1346
    9MOL   H529 5665   6.760   6.382   2.456 -0.6955  1.6825  2.0592
    9MOL   H530 5666   6.810   6.180   2.595 -2.5607  2.3373  0.3158
    9MOL   H531 5667   6.903   6.177   2.452  1.6162 -0.4892  1.0400
    9MOL   H532 5668   7.006   6.274   2.738  1.5959  0.6053 -0.2375
    9MOL   H533 5669   7.100   6.270   2.594  0.2585  0.4123  0.2629
    9MOL   H534 5670   6.962   6.024   2.688 -0.6300  1.4719  1.5024
    9MOL   H535 5671   7.120   6.078   2.751  2.0001  2.1001 -1.7870
    9MOL   H536 5672   7.256   5.938   2.664 -1.2374  1.3768 -0.0396
    9MOL   H537 5673   7.400   5.819   2.496 -0.5880 -0.2806 -1.0032
    9MOL   H538 5674   7.303   5.875   2.375  2.0191  0.6964  0.2463
    9MOL   H539 5675   7.218   5.693   2.604 -1.6684 -0.0722 -0.5729
    9MOL   H540 5676   7.115   5.713   2.465  0.3901 -2.3918 -2.1030
    9MOL   H541 5677   7.377   5.578   2.497 -0.1322 -0.2928  0.7969
    9MOL   H542 5678   7.319   5.594   2.335 -1.2447 -0.0742 -0.1239
    9MOL   H543 5679   7.118   5.460   2.395 -1.9604  0.1265  3.5265
    9MOL   H544 5680   7.147   5.484   2.558 -1.4126  2.5430 -1.2216
    9MOL   H545 5681   7.338   5.318   2.535 -1.2100  1.3752  1.6224
    9MOL   C546 5682   7.293   5.264   2.348  0.3734  0.2009  0.3502
    9MOL   O547 5683   7.237   5.285   2.240  0.6458 -0.3877 -0.2760
    9MOL   C548 5684   7.365   5.131   2.367  0.4698 -0.0023  0.1012
    9MOL   C549 5685   7.515   5.155   2.324 -0.6822 -0.8968  0.3493
    9MOL   C550 5686   7.594   5.256   2.415  0.6897 -0.1290 -0.3121
    9MOL   C551 5687   0.036   5.282   2.366 -0.7769 -0.1078  0.1572
    9MOL   C552 5688   0.132   5.168   2.399  1.1817  0.3693 -0.5910
    9MOL   O553 5689   0.165   5.145   2.514  0.1063  0.5802 -0.3069
    9MOL   N554 5690   0.168   5.092   2.302 -0.0328 -0.2688 -0.2183
    9MOL   C555 5691   0.244   4.972   2.304  0.3195 -0.2557 -0.0197
    9MOL   C556 5692   0.170   4.876   2.218  0.3432  0.6970  0.4889
    9MOL   C557 5693   0.226   4.738   2.213  0.1356  1.0545 -0.0066
    9MOL   C558 5694   0.165   4.643   2.117 -1.0591 -0.4454 -0.9510
    9MOL   N559 5695   0.216   4.505   2.130  0.0630 -0.1894  0.2193
    9MOL   H560 5696   7.353   5.091   2.468 -0.6027  1.7896  0.6982
    9MOL   H561 5697   7.315   5.054   2.308  0.9892 -2.2431  2.4929
    9MOL   H562 5698   7.571   5.061   2.324 -3.2296 -2.4846 -1.5600
    9MOL   H563 5699   7.511   5.199   2.225 -2.2352 -0.4343  0.5968
    9MOL   H564 5700   7.601   5.217   2.516 -1.8552 -1.6649 -0.6941
    9MOL   H565 5701   7.542   5.350   2.433  1.4668  0.0379  1.1240
    9MOL   H566 5702   0.086   5.375   2.390  0.5092 -1.1420  1.5857
    9MOL   H567 5703   0.021   5.273   2.258 -0.7213  0.0651  0.1366
    9MOL   H568 5704   0.119   5.120   2.218  0.7026  1.5076 -0.0811
    9MOL   H569 5705   0.262   4.927   2.402 -1.0723 -1.5570 -0.3336
    9MOL   H570 5706   0.345   4.973   2.264  0.7018  0.0986  0.9354
    9MOL   H571 5707   0.064   4.880   2.245  0.3878 -1.8761  1.1779
    9MOL   H572 5708   0.182   4.921   2.119 -1.5102 -0.0180 -0.0819
    9MOL   H573 5709   0.214   4.677   2.302  0.0135 -0.1578 -0.8366
    9MOL   H574 5710   0.333   4.743   2.193  0.0792 -0.1044 -0.6129
    9MOL   H575 5711   0.190   4.678   2.017 -1.7721  2.1279 -0.2609
    9MOL   H576 5712   0.059   4.628   2.141 -0.2369 -2.5637  1.5961
    9MOL   H577 5713   0.160   4.444   2.188  1.1201 -1.8470 -0.4774
    9MOL   C578 5714   0.317   4.456   2.060  0.3788  0.0775 -0.6346
    9MOL   O579 5715   0.375   4.513   1.970 -0.2981 -0.0763  0.5906
    9MOL   C580 5716   0.368   4.319   2.097 -0.8289  0.8602 -0.9522
    9MOL   C581 5717   0.524   4.319   2.128 -0.6183  0.0544 -0.0931
    9MOL   C582 5718   0.607   4.298   2.003 -0.0542  0.0258 -0.9190
    9MOL   C583 5719   0.756   4.278   2.026  0.2926  0.3546 -0.0681
    9MOL   C584 5720   0.832   4.406   2.060  0.0830  0.0541  0.2184
    9MOL   O585 5721   0.791   4.517   2.033  0.2671 -0.3184  0.3664
    9MOL   N586 5722   0.946   4.381   2.124 -0.2825  0.1529  0.5932
    9MOL   C587 5723   1.037   4.486   2.172 -0.5737  0.0813 -0.3427
    9MOL   C588 5724   1.188   4.436   2.163 -0.0745  0.3484  0.1073
    9MOL   C589 5725   1.219   4.324   2.255  0.2868 -0.2765 -0.4393
    9MOL   C590 5726   1.350   4.255   2.238 -0.4130 -0.1947  0.4110
    9MOL   N591 5727   1.378   4.168   2.349 -0.0831 -0.4292 -0.0031
    9MOL   H592 5728   0.332   4.288   2.196  0.9614  2.9904  0.4052
    9MOL   H593 5729   0.341   4.248   2.020 -2.2560  0.6429 -0.2691
    9MOL   H594 5730   0.559   4.399   2.193  2.1864  0.2810 -1.8203
    9MOL   H595 5731   0.530   4.227   2.186 -0.5495 -0.4613 -0.9118
    9MOL   H596 5732   0.594   4.388   1.942 -2.2799  1.0230  0.9645
    9MOL   H597 5733   0.578   4.214   1.940 -1.0314  0.5982 -1.2383
    9MOL   H598 5734   0.800   4.234   1.937 -0.0956  0.3180 -0.2412
    9MOL   H599 5735   0.768   4.207   2.107 -1.7793 -0.3025 -0.3089
    9MOL   H600 5736   0.976   4.284   2.127  2.3248  0.9275  0.5826
    9MOL   H601 5737   1.015   4.521   2.272  2.0316 -0.0389  0.3070
    9MOL   H602 5738   1.041   4.580   2.117  2.7722 -0.3431 -0.9368
    9MOL   H603 5739   1.207   4.395   2.063 -2.3747  0.2667 -0.3160
    9MOL   H604 5740   1.256   4.519   2.182  0.2264  0.8031 -2.6630
    9MOL   H605 5741   1.136   4.253   2.252 -0.3131  0.3513  1.0986
    9MOL   H606 5742   1.199   4.365   2.353  3.0440  1.3761 -0.5154
    9MOL   H607 5743   1.422   4.337   2.233  1.3982 -1.6047  2.4115
    9MOL   H608 5744   1.347   4.196   2.146 -0.1405 -2.7228  1.9890
    9MOL   H609 5745   1.371   4.069   2.329 -0.9649 -0.4406  0.3642
    9MOL   C610 5746   1.440   4.205   2.466  0.0058 -0.0889 -0.1682
    9MOL   O611 5747   1.463   4.320   2.492 -0.1246 -0.3827  0.1860
    9MOL   C612 5748   1.493   4.093   2.564 -0.1295  0.1537 -0.6645
    9MOL   C613 5749   1.437   4.094   2.712 -0.5634 -0.3439  0.6948
    9MOL   C614 5750   1.486   4.217   2.795 -0.4462 -0.9256  0.2748
    9MOL   C615 5751   1.639   4.247   2.803  0.6093  0.1812  0.3118
    9MOL   C616 5752   1.672   4.326   2.925 -0.6557 -0.0909 -0.2058
    9MOL   O617 5753   1.674   4.272   3.031  0.6850 -0.1110 -0.6825
    9MOL   N618 5754   1.706   4.448   2.902 -0.6178  0.8032  0.4997
    9MOL   C619 5755   1.763   4.529   3.015  0.3959  0.7492  0.1686
    9MOL   C620 5756   1.665   4.618   3.086  0.6405 -0.6593  0.2925
    9MOL   C621 5757   1.619   4.742   3.006 -0.5182  0.2827  0.0702
    9MOL   C622 5758   1.550   4.848   3.091  0.0977 -0.1463 -0.3327
    9MOL   N623 5759   1.540   4.960   3.008  0.3460 -0.0655 -0.3096
    9MOL   H624 5760   1.465   3.995   2.528  1.6456 -0.5711 -0.1553
    9MOL   H625 5761   1.601   4.094   2.551 -0.2251 -0.3395 -1.4912
    9MOL   H626 5762   1.329   4.090   2.718 -0.6828  0.2334 -0.9015
    9MOL   H627 5763   1.459   3.998   2.758 -2.9550 -1.1906  0.1067
    9MOL   H628 5764   1.437   4.208   2.892  0.8036 -2.6431  0.7669
    9MOL   H629 5765   1.439   4.309   2.760 -2.8610 -1.9007  0.8435
    9MOL   H630 5766   1.679   4.281   2.707 -1.3344 -0.7182 -0.8569
    9MOL   H631 5767   1.682   4.148   2.817 -0.7249 -0.3378  0.8492
    9MOL   H632 5768   1.705   4.478   2.806  1.1154 -1.1354 -0.1506
    9MOL   H633 5769   1.854   4.575   2.977 -0.1983  1.0609 -0.9066
    9MOL   H634 5770   1.801   4.463   3.093  0.9673  2.9031  1.7717
    9MOL   H635 5771   1.582   4.559   3.127 -0.2898 -0.6922 -1.5626
    9MOL   H636 5772   1.713   4.662   3.173  0.8471  1.9994 -1.1061
    9MOL   H637 5773   1.572   4.714   2.912 -2.1734 -2.3179  1.6052
    9MOL   H638 5774   1.719   4.777   2.979 -0.7013  1.1759  0.5431
    9MOL   H639 5775   1.608   4.880   3.178 -0.0603 -1.4685  0.2885
    9MOL   H640 5776   1.454   4.807   3.120  0.6363 -2.8609 -2.1819
    9MOL   H641 5777   1.440   4.964   2.991  0.4276 -0.4329 -0.8923
    9MOL   H642 5778   1.579   4.939   2.917  1.4209  0.3100  0.0548
   10MOL     C1 5779   6.396   6.903   5.779 -0.5479  0.1083 -0.0671
   10MOL     O2 5780   6.486   6.986   5.788  0.2133  0.5204 -0.4307
   10MOL     C3 5781   6.320   6.859   5.901  0.6893 -0.2280  0.4239
   10MOL     C4 5782   6.415   6.796   6.004  0.8144  0.3044  0.2769
   10MOL     C5 5783   6.342   6.746   6.127  0.1862  0.0059 -0.5378
   10MOL     C6 5784   6.420   6.649   6.218 -0.3371 -0.0399  0.6893
   10MOL     C7 5785   6.456   6.512   6.153 -0.2266 -0.6981  0.3461
   10MOL     O8 5786   6.383   6.474   6.064  0.2189  0.0305 -0.0512
   10MOL     N9 5787   6.567   6.447   6.187  0.2005 -0.0232  0.1815
   10MOL    C10 5788   6.622   6.323   6.133 -0.1774 -0.0253 -0.5569
   10MOL    C11 5789   6.682   6.225   6.226 -0.4922  0.5751  0.3532
   10MOL    C12 5790   6.759   6.296   6.339  0.0010 -0.5085  0.1346
   10MOL    C13 5791   6.825   6.190   6.422 -0.1375  0.6180 -1.0680
   10MOL    N14 5792   6.910   6.253   6.527 -0.4013 -0.5711 -0.5428
   10MOL    H15 5793   6.264   6.936   5.953 -1.3249 -0.9814 -0.5551
   10MOL    H16 5794   6.254   6.778   5.868  2.5064 -0.7225 -2.1682
   10MOL    H17 5795   6.475   6.721   5.952  2.6206  1.8731  0.0744
   10MOL    H18 5796   6.479   6.879   6.033  1.8528  1.0111 -3.7375
   10MOL    H19 5797   6.251   6.697   6.092 -0.0721  0.3248 -0.3288
   10MOL    H20 5798   6.319   6.835   6.186  0.4243  0.3641 -0.9894
   10MOL    H21 5799   6.381   6.624   6.317 -1.9982 -0.1281  0.0304
   10MOL    H22 5800   6.508   6.706   6.247  0.1377  0.0179 -0.8471
   10MOL    H23 5801   6.611   6.489   6.267  2.3966  1.7014 -1.8506
   10MOL    H24 5802   6.690   6.362   6.057 -1.0520  2.4251 -0.1538
   10MOL    H25 5803   6.545   6.267   6.080  1.0581 -0.9627 -1.3680
   10MOL    H26 5804   6.593   6.181   6.270  1.1417 -2.4377  0.7485
   10MOL    H27 5805   6.738   6.143   6.182 -0.7934  0.2443  0.5859
   10MOL    H28 5806   6.681   6.337   6.404  0.0541  2.8313 -1.8093
   10MOL    H29 5807   6.825   6.377   6.308 -0.6119 -0.4402 -1.0189
   10MOL    H30 5808   6.890   6.129   6.360  0.9975  1.2771 -0.5364
   10MOL    H31 5809   6.757   6.114   6.461  0.4248  0.4254 -0.4609
   10MOL    H32 5810   7.010   6.263   6.514 -0.5375  2.5831  0.2115
   10MOL    H33 5811   6.364   6.862   5.683  0.1962  1.5182 -0.9386
   10MOL    C34 5812   6.864   6.302   6.645 -0.2282  0.1079 -0.2013
   10MOL    O35 5813   6.750   6.303   6.675  0.7764  0.1081 -0.7430
   10MOL    C36 5814   6.963   6.362   6.739  0.5960 -0.1374 -0.2730
   10MOL    C37 5815   6.916   6.495   6.804  0.4833 -0.7083  0.6374
   10MOL    C38 5816   7.028   6.531   6.907  0.0447 -0.2419  0.2241
   10MOL    C39 5817   6.990   6.643   7.005  0.6009  0.6221 -0.8669
   10MOL    C40 5818   7.005   6.782   6.943  0.2596  0.0025 -0.0893
   10MOL    O41 5819   6.913   6.841   6.882 -0.4616  0.4158 -0.5757
   10MOL    N42 5820   7.123   6.843   6.954  0.0025 -0.2731  0.9402
   10MOL    C43 5821   7.162   6.973   6.906  0.0087  0.0107  0.5106
   10MOL    C44 5822   7.312   6.973   6.882  0.3909  1.0630 -0.1879
   10MOL    C45 5823   7.350   7.120   6.831  0.2216 -0.8003 -0.0891
   10MOL    C46 5824   7.502   7.125   6.793  0.9264 -0.2899 -0.5492
   10MOL    N47 5825   7.537   7.260   6.751  0.0400 -0.2013 -0.7475
   10MOL    H48 5826   6.979   6.287   6.817  2.4233 -1.1175 -1.5399
   10MOL    H49 5827   7.059   6.361   6.688  0.5220 -0.2469 -0.4127
   10MOL    H50 5828   6.892   6.565   6.724 -0.3743 -2.5262 -0.7333
   10MOL    H51 5829   6.825   6.472   6.859 -0.3725 -2.2596 -1.3522
   10MOL    H52 5830   7.117   6.560   6.852 -0.4157 -2.0254 -1.5618
   10MOL    H53 5831   7.054   6.447   6.972  1.2817 -0.1590 -0.1522
   10MOL    H54 5832   7.061   6.638   7.088  2.4879 -0.6487 -2.5026
   10MOL    H55 5833   6.891   6.636   7.049  0.1971  0.4550 -1.7805
   10MOL    H56 5834   7.196   6.793   7.003 -0.0892 -1.3086  0.0384
   10MOL    H57 5835   7.137   7.043   6.986 -1.9035 -0.3151  0.2214
   10MOL    H58 5836   7.106   7.008   6.819  1.3245  0.6637 -0.0840
   10MOL    H59 5837   7.371   6.956   6.972 -0.1378 -0.8672 -0.1769
   10MOL    H60 5838   7.346   6.900   6.808 -0.7332  0.0761  0.2483
   10MOL    H61 5839   7.324   7.192   6.909 -0.0425 -0.6141 -0.3474
   10MOL    H62 5840   7.288   7.133   6.743 -0.4593 -1.4464  0.2867
   10MOL    H63 5841   7.507   7.058   6.707  0.6760 -2.0679  0.8065
   10MOL    H64 5842   7.573   7.086   6.866 -0.0669 -0.9525  0.0647
   10MOL    H65 5843   7.501   7.296   6.664 -1.3463 -0.2633 -0.2164
   10MOL    C66 5844   7.602   7.358   6.821 -0.1730 -0.6103 -0.2339
   10MOL    O67 5845   7.669   7.331   6.924  0.4787 -0.5809 -0.0551
   10MOL    C68 5846   7.596   7.503   6.766  0.3604  0.1744  0.5418
   10MOL    C69 5847   7.585   7.610   6.876 -0.3139 -0.5177  0.1600
   10MOL    C70 5848   7.565   0.056   6.817  0.2853 -0.2069 -0.1556
   10MOL    C71 5849   7.586   0.163   6.926  0.0120  0.4196  0.6236
   10MOL    C72 5850   0.023   0.168   6.979 -0.1434 -0.3673 -0.0112
   10MOL    O73 5851   0.125   0.140   6.911 -0.7004  0.0306 -0.1636
   10MOL    N74 5852   0.032   0.210   7.102 -0.1990  0.1192  0.1083
   10MOL    C75 5853   0.146   0.202   7.190  0.1806  0.2247  0.4978
   10MOL    C76 5854   0.116   0.294   7.313 -0.9487 -0.8400 -0.5219
   10MOL    C77 5855   0.225   0.285   7.425  0.1661  0.0014  0.5018
   10MOL    C78 5856   0.196   0.367   7.553  0.1525  0.3945  0.8734
   10MOL    N79 5857   0.211   0.514   7.534  0.3003 -0.5310 -0.0704
   10MOL    H80 5858   7.680   7.529   6.701  0.4043 -1.0103  0.1274
   10MOL    H81 5859   7.506   7.512   6.705  0.0282 -1.8479  0.7252
   10MOL    H82 5860   7.501   7.590   6.941  0.3312  0.1947  1.2202
   10MOL    H83 5861   7.679   7.609   6.932  0.8999 -0.3571 -1.8084
   10MOL    H84 5862   7.460   0.065   6.793 -0.1742 -3.4862  0.4178
   10MOL    H85 5863   7.617   0.089   6.727  0.4476 -3.1115 -1.1765
   10MOL    H86 5864   7.524   0.134   7.011 -0.1790  0.1095  0.3794
   10MOL    H87 5865   7.552   0.265   6.908 -0.2287  0.5391  1.6986
   10MOL    H88 5866   7.651   0.258   7.136 -1.4782 -1.5466 -0.5517
   10MOL    H89 5867   0.233   0.237   7.134  0.3700 -0.9581  0.0535
   10MOL    H90 5868   0.168   0.099   7.217 -3.0443 -0.1251  2.1280
   10MOL    H91 5869   0.114   0.396   7.276  0.9010  0.4781  2.8004
   10MOL    H92 5870   0.027   0.266   7.371 -0.6858 -0.5436  0.0259
   10MOL    H93 5871   0.317   0.318   7.377 -1.1027 -1.6903 -3.3078
   10MOL    H94 5872   0.236   0.178   7.444  2.4545 -0.2049 -1.8183
   10MOL    H95 5873   0.258   0.326   7.633 -1.2984 -1.1452  1.2551
   10MOL    H96 5874   0.090   0.357   7.576  0.0071  2.1880  1.0538
   10MOL    H97 5875   0.154   0.563   7.466  0.8699  1.0228  0.5574
   10MOL    C98 5876   0.277   0.596   7.616  0.8501 -0.2404  0.1784
   10MOL    O99 5877   0.332   0.564   0.017 -0.1686 -0.4393  0.4050
   10MOL   C100 5878   0.278   0.745   7.574  0.0144 -0.0907  0.5379
   10MOL   C101 5879   0.420   0.801   7.539  0.0046  0.2037 -0.4084
   10MOL   C102 5880   0.483   0.877   7.664 -0.4882  0.0363 -0.5676
   10MOL   C103 5881   0.620   0.938   7.645 -0.6017  0.0606  0.0804
   10MOL   C104 5882   0.731   0.843   7.596 -0.2092  0.4863 -0.2996
   10MOL   O105 5883   0.774   0.746   7.663  0.4935 -0.3360 -0.0829
   10MOL   N106 5884   0.792   0.872   7.476  0.3025 -0.3154 -0.0454
   10MOL   C107 5885   0.889   0.793   7.403  0.0395  0.2159 -0.3351
   10MOL   C108 5886   1.036   0.808   7.454  0.5812  0.3998 -0.1450
   10MOL   C109 5887   1.121   0.714   7.362 -0.8925  0.0600 -0.0374
   10MOL   C110 5888   1.271   0.725   7.397 -0.1428 -0.0564 -0.5332
   10MOL   N111 5889   1.315   0.853   7.350 -0.0828 -0.4071  0.5841
   10MOL   H112 5890   0.215   0.755   7.486  0.8500  0.3239 -0.0265
   10MOL   H113 5891   0.226   0.804   7.650 -0.2777  0.9303 -0.4317
   10MOL   H114 5892   0.482   0.718   7.505  1.0973  0.6892  0.3776
   10MOL   H115 5893   0.406   0.873   7.459 -0.4142 -0.6391 -1.1049
   10MOL   H116 5894   0.475   0.806   0.045  0.7296  0.3425 -0.1739
   10MOL   H117 5895   0.415   0.954   7.699 -1.8126 -1.8326  1.0833
   10MOL   H118 5896   0.647   0.965   0.046  1.9456 -0.8974 -0.3017
   10MOL   H119 5897   0.607   1.028   7.585 -0.4864 -0.4301 -0.6811
   10MOL   H120 5898   0.769   0.962   7.436 -1.8332 -0.8625 -0.1504
   10MOL   H121 5899   0.887   0.831   7.301  2.1449  0.8827 -0.1650
   10MOL   H122 5900   0.861   0.688   7.404 -1.6310  0.6522  0.9259
   10MOL   H123 5901   1.067   0.912   7.441 -0.7431  0.8723  0.2980
   10MOL   H124 5902   1.059   0.787   7.558 -0.4100 -1.6043 -0.3114
   10MOL   H125 5903   1.110   0.736   7.256  1.7120  0.7447 -0.1974
   10MOL   H126 5904   1.086   0.611   7.372 -0.5816  0.2284  3.5848
   10MOL   H127 5905   1.316   0.640   7.347  2.9237  1.0345  0.2324
   10MOL   H128 5906   1.300   0.710   7.501  1.1714  0.5713 -0.7960
   10MOL   H129 5907   1.267   0.891   7.269  0.2426  2.0668  1.5045
   10MOL   C130 5908   1.424   0.917   7.403  0.3961 -0.3679 -0.2253
   10MOL   O131 5909   1.499   0.870   7.492 -0.0685 -0.0000  0.2474
   10MOL   C132 5910   1.456   1.058   7.356  0.4497  1.3077 -0.0978
   10MOL   C133 5911   1.583   1.050   7.270 -0.6712 -0.0036  0.1686
   10MOL   C134 5912   1.545   1.090   7.130 -0.4043  0.3125  0.2782
   10MOL   C135 5913   1.631   1.047   7.008 -0.1882  0.0069  0.4959
   10MOL   C136 5914   1.640   0.898   6.984 -0.2422 -1.0634 -0.3522
   10MOL   O137 5915   1.573   0.816   7.040 -0.0596  0.6180  0.2981
   10MOL   N138 5916   1.724   0.867   6.888 -0.6485 -0.0016  0.3245
   10MOL   C139 5917   1.747   0.728   6.843 -0.4454  0.0211  1.1505
   10MOL   C140 5918   1.831   0.650   6.938 -0.3321  0.5679  0.5782
   10MOL   C141 5919   1.827   0.500   6.899  0.8153 -0.4531  0.0350
   10MOL   C142 5920   1.909   0.420   6.992  0.0283 -0.0644  0.1935
   10MOL   N143 5921   1.907   0.276   6.961  0.5777 -0.5660 -0.5282
   10MOL   H144 5922   1.366   1.094   7.307 -0.2386 -1.6302 -1.0749
   10MOL   H145 5923   1.459   1.142   7.425 -0.4207 -0.8076  2.6235
   10MOL   H146 5924   1.650   1.134   7.290 -3.7174  2.0175  2.3631
   10MOL   H147 5925   1.641   0.958   7.272  1.7092  1.4706  1.0561
   10MOL   H148 5926   1.552   1.199   7.123  2.8143  0.0606 -1.7814
   10MOL   H149 5927   1.442   1.071   7.102 -0.5114 -0.5434  1.2263
   10MOL   H150 5928   1.732   1.073   7.040 -0.5284  1.4843  0.3998
   10MOL   H151 5929   1.604   1.100   6.917  0.2909 -2.8257 -1.3565
   10MOL   H152 5930   1.779   0.936   6.838 -0.1366 -2.9627 -3.4509
   10MOL   H153 5931   1.789   0.742   6.743 -0.7837 -0.4501  0.9441
   10MOL   H154 5932   1.657   0.673   6.820 -1.1659  0.7736  2.1286
   10MOL   H155 5933   1.933   0.686   6.947 -0.6486  1.3599  1.0147
   10MOL   H156 5934   1.790   0.646   7.039 -1.2217  2.3909  0.3097
   10MOL   H157 5935   1.851   0.492   6.793  1.2166  1.0777 -0.0062
   10MOL   H158 5936   1.725   0.463   6.909  0.7317 -0.2866 -0.2000
   10MOL   H159 5937   1.877   0.446   7.093 -1.1806  0.3930 -0.2944
   10MOL   H160 5938   2.013   0.452   6.998 -0.5039  2.2245 -1.5935
   10MOL   H161 5939   1.959   0.243   6.881  0.6545  0.5147 -0.9382
   10MOL   C162 5940   1.851   0.178   7.034 -0.4260 -0.8446  0.1681
   10MOL   O163 5941   1.772   0.199   7.123  0.5948  0.1237  0.3239
   10MOL   C164 5942   1.885   0.035   7.000 -0.7618  0.5528 -0.0900
   10MOL   C165 5943   1.829   7.681   6.860 -0.1529  0.1656 -0.2205
   10MOL   C166 5944   1.680   0.010   6.839 -0.2799 -0.2348  0.4216
   10MOL   C167 5945   1.627   7.621   6.714  0.4174  0.5006 -0.0167
   10MOL   C168 5946   1.624   7.472   6.766 -0.4376 -0.0241  0.0155
   10MOL   O169 5947   1.713   7.392   6.734  0.4811 -0.6180  0.7372
   10MOL   N170 5948   1.509   7.435   6.823  0.3457 -0.0276  0.3074
   10MOL   C171 5949   1.469   7.289   6.837  0.6273 -0.6703 -0.0419
   10MOL   C172 5950   1.351   7.267   6.927 -0.5163  0.3014 -0.4314
   10MOL   C173 5951   1.379   7.311   7.070 -0.1545 -0.5887  0.0518
   10MOL   C174 5952   1.257   7.335   7.158 -0.3152  0.5358 -0.0305
   10MOL   N175 5953   1.166   7.430   7.109  0.8281 -0.1522 -0.2708
   10MOL   H176 5954   1.994   0.032   6.998 -0.7981 -0.9541 -0.0625
   10MOL   H177 5955   1.865   7.667   7.082  1.4998  0.8839  0.7758
   10MOL   H178 5956   1.901   0.023   6.791  0.8194  1.0157  1.2996
   10MOL   H179 5957   1.846   7.573   6.859  1.2574  0.3510  1.6303
   10MOL   H180 5958   1.663   0.117   6.825 -2.6515 -0.8685 -1.7824
   10MOL   H181 5959   1.621   7.691   6.929 -1.6569  1.0650 -0.1667
   10MOL   H182 5960   1.683   7.626   6.621  1.3059 -2.6955  0.2842
   10MOL   H183 5961   1.532   7.662   6.681 -0.5145 -0.7621  1.0468
   10MOL   H184 5962   1.444   7.500   6.865 -2.8728 -1.4418 -2.2796
   10MOL   H185 5963   1.548   7.220   6.866  0.6842 -0.3342  0.6209
   10MOL   H186 5964   1.446   7.245   6.741  1.0952  0.7309 -0.8100
   10MOL   H187 5965   1.259   7.315   6.894 -1.2289 -0.4986  0.3449
   10MOL   H188 5966   1.324   7.161   6.933  4.1050 -1.0541 -1.6964
   10MOL   H189 5967   1.442   7.400   7.072 -0.7833 -0.1329 -0.4159
   10MOL   H190 5968   1.446   7.236   7.114  0.7110  1.3169  2.1258
   10MOL   H191 5969   1.284   7.358   7.261  0.5731 -0.0296 -0.1255
   10MOL   H192 5970   1.210   7.237   7.150  1.7398 -0.3286 -2.6645
   10MOL   H193 5971   1.203   7.482   7.030  2.1968 -0.6010  0.0496
   10MOL   C194 5972   1.054   7.475   7.175 -0.9163 -0.0062 -0.9481
   10MOL   O195 5973   1.011   7.419   7.272 -0.2799 -0.4511  0.5214
   10MOL   C196 5974   1.003   7.606   7.118  0.1157  0.0533  0.1213
   10MOL   C197 5975   1.014   0.024   7.214  0.0905 -0.2194  0.7571
   10MOL   C198 5976   0.969   0.154   7.150 -0.0127 -0.0159 -0.4006
   10MOL   C199 5977   1.038   0.275   7.211  0.5386 -0.0098 -0.1607
   10MOL   C200 5978   0.985   0.317   7.347  0.2714  0.1188  0.2680
   10MOL   O201 5979   1.056   0.300   7.441 -0.4027  0.4608  0.9492
   10MOL   N202 5980   0.869   0.375   7.361  0.2945 -0.5160 -0.1290
   10MOL   C203 5981   0.822   0.434   7.489 -0.0647  0.2264  0.3390
   10MOL   C204 5982   0.763   0.326   7.588  0.0951  0.1349  0.7464
   10MOL   C205 5983   0.657   0.389   7.681  0.2828  0.1263  0.3970
   10MOL   C206 5984   0.585   0.300   0.080 -0.0534 -0.0221 -0.4275
   10MOL   N207 5985   0.492   0.381   0.155 -0.4920  0.4541 -0.4664
   10MOL   H208 5986   1.046   7.625   7.019  3.2319  0.6999  1.5432
   10MOL   H209 5987   0.896   7.592   7.101  0.2163 -1.4129  0.6275
   10MOL   H210 5988   0.957   0.020   7.307 -0.3607 -0.6462  0.4669
   10MOL   H211 5989   1.121   0.030   7.235  0.3408 -0.4961 -0.4034
   10MOL   H212 5990   0.860   0.160   7.156  0.0630  0.4397  0.6341
   10MOL   H213 5991   1.003   0.145   7.047  1.1155  0.0423 -0.0397
   10MOL   H214 5992   1.012   0.360   7.147  2.3019  0.3940 -0.3631
   10MOL   H215 5993   1.145   0.261   7.202  0.5210  0.4072 -1.1038
   10MOL   H216 5994   0.818   0.409   7.281  0.5513 -1.8875 -0.8973
   10MOL   H217 5995   0.739   0.501   7.463 -0.2909 -0.2022 -0.0471
   10MOL   H218 5996   0.893   0.506   7.528 -1.0922  0.2876  2.1399
   10MOL   H219 5997   0.721   0.238   7.539  1.1098 -1.1698  2.1817
   10MOL   H220 5998   0.837   0.297   7.662 -1.5234 -1.6812  1.6862
   10MOL   H221 5999   0.576   0.430   7.621  0.1835 -0.5072  0.0887
   10MOL   H222 6000   0.712   0.463   0.038  0.4437  0.7939 -0.5936
   10MOL   H223 6001   0.657   0.247   0.142  2.5890  1.1174 -2.3989
   10MOL   H224 6002   0.529   0.220   0.031 -0.8769  0.6263 -0.5564
   10MOL   H225 6003   0.463   0.473   0.124 -1.2403  0.0196 -1.0497
   10MOL   C226 6004   0.434   0.340   0.266  0.0846  0.2244 -0.3412
   10MOL   O227 6005   0.463   0.226   0.318 -0.0489  0.2657  0.0160
   10MOL   C228 6006   0.353   0.430   0.356  0.6534  0.2367  0.6348
   10MOL   C229 6007   0.440   0.507   0.457 -0.3153  0.4033 -1.0355
   10MOL   C230 6008   0.494   0.409   0.570  0.5230 -0.5293  0.0588
   10MOL   C231 6009   0.580   0.470   0.678 -0.0721  0.3628  0.5914
   10MOL   C232 6010   0.529   0.582   0.759  0.2684  0.2379 -0.0483
   10MOL   O233 6011   0.515   0.692   0.706 -0.6742 -0.1284  0.3069
   10MOL   N234 6012   0.492   0.560   0.882 -0.1893 -0.5027  0.4671
   10MOL   C235 6013   0.456   0.665   0.978  0.5225 -0.8056 -0.5598
   10MOL   C236 6014   0.312   0.720   0.958 -0.4607  0.2815  0.0110
   10MOL   C237 6015   0.194   0.628   0.993 -0.0803  0.5237 -0.8601
   10MOL   C238 6016   0.068   0.697   1.052 -0.6219  0.0450  0.0085
   10MOL   N239 6017   7.649   0.616   1.051 -0.4634  0.2834  0.1885
   10MOL   H240 6018   0.298   0.496   0.289  0.3971 -0.0274  0.5843
   10MOL   H241 6019   0.273   0.369   0.400  1.3748 -1.8897 -0.9239
   10MOL   H242 6020   0.520   0.568   0.415 -0.3987  0.6412 -0.8483
   10MOL   H243 6021   0.370   0.575   0.505 -1.4272 -0.5206 -1.3291
   10MOL   H244 6022   0.538   0.318   0.529 -1.1138 -1.2883 -0.0582
   10MOL   H245 6023   0.408   0.362   0.617 -0.5036 -0.4866 -1.7112
   10MOL   H246 6024   0.668   0.508   0.627  2.8255 -1.9220  3.6827
   10MOL   H247 6025   0.626   0.390   0.737  0.4928  0.7066  0.6181
   10MOL   H248 6026   0.519   0.470   0.919  0.4101  0.1724  1.7211
   10MOL   H249 6027   0.519   0.753   0.967 -2.4030  1.4611  0.2359
   10MOL   H250 6028   0.472   0.639   1.083 -1.2223 -0.9674 -0.3194
   10MOL   H251 6029   0.303   0.804   1.027 -0.0171  0.6199 -0.3390
   10MOL   H252 6030   0.299   0.746   0.852 -1.6181 -1.3972 -0.2824
   10MOL   H253 6031   0.229   0.554   1.065  1.0699 -0.1059 -2.0479
   10MOL   H254 6032   0.168   0.577   0.901  1.7310 -1.2206 -0.4270
   10MOL   H255 6033   0.042   0.784   0.991  1.6231 -0.3202 -1.5056
   10MOL   H256 6034   0.108   0.734   1.147  0.2509 -0.2392 -0.2417
   10MOL   H257 6035   7.665   0.524   1.012  0.2729 -0.8003  2.9230
   10MOL   C258 6036   7.539   0.651   1.106 -0.1470 -0.1957  0.4052
   10MOL   O259 6037   7.525   0.766   1.150  0.0672 -0.0314  0.4425
   10MOL   C260 6038   7.423   0.555   1.113  0.3013 -1.0409  0.2530
   10MOL   C261 6039   7.294   0.606   1.045  0.1107  0.3342 -0.5952
   10MOL   C262 6040   7.293   0.575   0.901 -0.3984 -0.3261  0.6902
   10MOL   C263 6041   7.295   0.418   0.875  0.5423  0.1952 -0.5677
   10MOL   C264 6042   7.235   0.376   0.745 -0.2765  0.1233 -0.8826
   10MOL   O265 6043   7.236   0.453   0.655  0.4496  0.3922 -0.1102
   10MOL   N266 6044   7.174   0.250   0.749  0.2698  0.0222 -0.3954
   10MOL   C267 6045   7.110   0.179   0.638  0.2696 -0.1633 -0.3910
   10MOL   C268 6046   7.198   0.096   0.547  0.5813  0.7914  0.2186
   10MOL   C269 6047   7.275   0.168   0.444 -0.6911 -0.0836  0.6246
   10MOL   C270 6048   7.419   0.219   0.469 -0.1320  0.1678  0.2108
   10MOL   N271 6049   7.451   0.321   0.366 -0.1423 -0.2411 -0.5494
   10MOL   H272 6050   7.456   0.456   1.084 -0.9458 -2.1046  2.3371
   10MOL   H273 6051   7.392   0.539   1.216 -1.6004  0.9109  0.0270
   10MOL   H274 6052   7.203   0.564   1.088  0.2729 -1.0316 -1.5929
   10MOL   H275 6053   7.291   0.715   1.059  3.1911  0.1640  1.9930
   10MOL   H276 6054   7.372   0.624   0.844 -0.9467  0.0933  0.2982
   10MOL   H277 6055   7.207   0.618   0.850 -0.6845 -1.1368  0.4705
   10MOL   H278 6056   7.251   0.385   0.969  0.5898  2.3979  0.2531
   10MOL   H279 6057   7.396   0.378   0.863  0.4071 -0.7887  1.4121
   10MOL   H280 6058   7.188   0.196   0.834 -1.4867  0.2613  0.0629
   10MOL   H281 6059   7.062   0.249   0.570 -0.5787 -0.4794 -0.1303
   10MOL   H282 6060   7.036   0.111   0.681 -1.2835  1.5458 -0.2807
   10MOL   H283 6061   7.271   0.035   0.600  1.2391  0.7649 -0.7151
   10MOL   H284 6062   7.137   0.026   0.490  2.5096  1.7311 -3.0962
   10MOL   H285 6063   7.217   0.255   0.414  1.2926  1.7742  2.1036
   10MOL   H286 6064   7.276   0.095   0.362  1.0903  1.9515 -1.2067
   10MOL   H287 6065   7.484   0.133   0.451  0.8402  1.2280 -1.4797
   10MOL   H288 6066   7.442   0.262   0.566  2.0988  2.8474 -1.4245
   10MOL   H289 6067   7.372   0.370   0.327 -0.6794 -1.2961 -0.8128
   10MOL   C290 6068   7.574   0.358   0.331  0.2118 -0.2186  0.2775
   10MOL   O291 6069   7.678   0.316   0.378  0.1548  0.1217 -0.0985
   10MOL   C292 6070   7.580   0.458   0.212 -0.3093 -0.9887 -0.0623
   10MOL   C293 6071   7.639   0.599   0.250 -0.2472 -0.0358  0.3166
   10MOL   C294 6072   7.651   0.698   0.140 -0.3033 -0.6305 -0.6086
   10MOL   C295 6073   0.016   0.829   0.190  0.8850  0.4506 -0.6854
   10MOL   C296 6074   0.045   0.943   0.093 -1.0365 -0.3130  0.9256
   10MOL   O297 6075   0.005   0.938   7.678 -0.1858 -0.3217  0.1389
   10MOL   N298 6076   0.126   1.036   0.147  0.1377  0.0135  0.7576
   10MOL   C299 6077   0.157   1.158   0.076 -0.3435  0.0974  0.6083
   10MOL   C300 6078   0.044   1.256   0.095  0.3986  0.4242  0.3879
   10MOL   C301 6079   0.041   1.366   7.692 -0.6318 -0.1399 -0.2938
   10MOL   C302 6080   0.114   1.496   0.038  0.7377  0.7190 -0.1166
   10MOL   N303 6081   0.247   1.478   0.093  0.1216  0.1452 -0.1717
   10MOL   H304 6082   7.633   0.415   0.127  1.0379 -4.0662  2.2171
   10MOL   H305 6083   7.483   0.475   0.167  0.7120  1.1990 -1.5339
   10MOL   H306 6084   7.579   0.631   0.335  0.3718 -0.8001  1.0493
   10MOL   H307 6085   0.038   0.584   0.288 -0.3025  0.0915  0.5137
   10MOL   H308 6086   7.551   0.697   0.098 -0.5747  1.5451 -0.0667
   10MOL   H309 6087   0.023   0.661   0.068 -0.4702 -1.9963 -0.1007
   10MOL   H310 6088   0.104   0.811   0.251 -0.4468 -0.7163  0.9197
   10MOL   H311 6089   7.646   0.865   0.264  0.6614  0.0295 -0.6947
   10MOL   H312 6090   0.155   1.023   0.243  2.5745  0.2036  0.0779
   10MOL   H313 6091   0.186   1.149   7.673  1.0353  1.4030  0.8681
   10MOL   H314 6092   0.242   1.200   0.129  0.1532 -0.5183  0.3075
   10MOL   H315 6093   7.646   1.212   0.085 -0.6860  2.8161  0.2641
   10MOL   H316 6094   0.037   1.299   0.195 -1.6148 -0.3765  0.6104
   10MOL   H317 6095   7.646   1.407   7.663 -0.5735  0.2993  0.1364
   10MOL   H318 6096   0.087   1.327   7.600 -2.2464 -2.0024 -0.3395
   10MOL   H319 6097   0.050   1.539   0.115  0.0466 -0.2999 -0.1120
   10MOL   H320 6098   0.107   1.575   7.664 -0.2456 -0.2041 -1.0101
   10MOL   H321 6099   0.258   1.454   0.190  0.4434  0.4566 -0.1319
   10MOL   C322 6100   0.359   1.477   0.015  0.9744 -0.0156 -0.2855
   10MOL   O323 6101   0.347   1.515   7.600  0.2731 -0.5988  0.9758
   10MOL   C324 6102   0.486   1.439   0.087 -0.1412  0.0862  0.1675
   10MOL   C325 6103   0.572   1.350   7.694 -0.6930  0.7651  0.8123
   10MOL   C326 6104   0.709   1.316   0.060 -0.2259  0.3624 -0.3722
   10MOL   C327 6105   0.809   1.262   7.660 -0.0344 -0.2283 -0.1991
   10MOL   C328 6106   0.889   1.366   7.582 -0.3479 -0.0406 -0.7294
   10MOL   O329 6107   0.970   1.442   7.642 -0.0271 -1.1664 -0.4287
   10MOL   N330 6108   0.875   1.374   7.450  0.0944 -0.3263 -0.3227
   10MOL   C331 6109   0.921   1.481   7.358 -0.2268  0.8526  0.2476
   10MOL   C332 6110   1.038   1.437   7.284 -0.3062  0.1976  0.4869
   10MOL   C333 6111   1.002   1.319   7.188  0.5117 -0.6990  0.7521
   10MOL   C334 6112   1.117   1.284   7.087 -0.2346 -0.1056 -0.1546
   10MOL   N335 6113   1.095   1.155   7.014 -0.6622 -0.0095  0.1188
   10MOL   H336 6114   0.543   1.525   0.121 -0.9717  1.3190 -1.4791
   10MOL   H337 6115   0.455   1.378   0.172  1.7444 -0.6979  0.3140
   10MOL   H338 6116   0.518   1.262   7.661  0.6494 -0.2186  1.2131
   10MOL   H339 6117   0.593   1.412   7.606  2.9437  1.2754  1.9446
   10MOL   H340 6118   0.689   1.233   0.128 -0.9315 -0.2151 -1.2645
   10MOL   H341 6119   0.752   1.403   0.110  0.0544 -0.8215  1.4970
   10MOL   H342 6120   0.757   1.201   7.585 -1.0338 -0.2534  0.5018
   10MOL   H343 6121   0.874   1.193   0.013 -1.6085 -0.0631  1.9719
   10MOL   H344 6122   0.826   1.294   7.411 -1.4550  0.8256 -0.8084
   10MOL   H345 6123   0.948   1.564   7.422 -0.8804  0.0631  1.5559
   10MOL   H346 6124   0.830   1.512   7.306  0.5229  1.1509 -0.9036
   10MOL   H347 6125   1.086   1.512   7.222 -1.1789  0.4984  0.1608
   10MOL   H348 6126   1.108   1.403   7.360  1.9254  0.2204 -1.5049
   10MOL   H349 6127   0.914   1.347   7.130  0.3923 -2.0271  0.2754
   10MOL   H350 6128   0.972   1.227   7.240  0.1778 -1.2172 -0.3437
   10MOL   H351 6129   1.213   1.294   7.136  0.7571 -0.9367 -1.8698
   10MOL   H352 6130   1.143   1.366   7.020  2.8438  0.4024  1.5914
   10MOL   H353 6131   1.067   1.156   6.917  0.8780 -3.9511 -0.4432
   10MOL   C354 6132   1.123   1.039   7.073 -0.0079 -0.3907  1.3983
   10MOL   O355 6133   1.158   1.042   7.186 -0.4476 -0.8476  0.4670
   10MOL   C356 6134   1.093   0.906   7.011  0.6942  0.3548  0.1670
   10MOL   C357 6135   1.221   0.818   6.998  0.2770 -0.3051 -0.6045
   10MOL   C358 6136   1.177   0.689   6.927 -0.1074  0.4364  0.4698
   10MOL   C359 6137   1.291   0.601   6.879  0.4482  0.0273  0.6786
   10MOL   C360 6138   1.346   0.507   6.988 -0.4559 -0.3696 -0.0182
   10MOL   O361 6139   1.296   0.398   6.995 -0.2558  0.2395 -0.3456
   10MOL   N362 6140   1.458   0.542   7.052  0.2444 -0.3391 -0.3303
   10MOL   C363 6141   1.505   0.467   7.169 -0.2763 -0.2863  0.3095
   10MOL   C364 6142   1.589   0.546   7.270  0.0532  0.5312 -0.4341
   10MOL   C365 6143   1.594   0.477   7.409 -0.4280 -0.6102  0.5443
   10MOL   C366 6144   1.679   0.348   7.417 -0.4579  0.6595  0.1391
   10MOL   N367 6145   1.683   0.296   7.551  0.3963 -0.2999 -0.1685
   10MOL   H368 6146   1.028   0.857   7.084  0.5867 -0.3448 -0.3904
   10MOL   H369 6147   1.043   0.910   6.914  1.8961 -3.9053 -0.7191
   10MOL   H370 6148   1.298   0.873   6.943 -0.4644  1.1664 -0.2067
   10MOL   H371 6149   1.266   0.801   7.096 -1.7727 -0.6561  0.2814
   10MOL   H372 6150   1.107   0.707   6.846  0.9047 -0.8638 -0.7107
   10MOL   H373 6151   1.108   0.637   6.993 -1.2969 -1.6679 -2.3772
   10MOL   H374 6152   1.360   0.664   6.824  0.5855 -0.2168  0.5685
   10MOL   H375 6153   1.253   0.538   6.798  0.3517 -0.1859  0.8864
   10MOL   H376 6154   1.493   0.634   7.032 -0.3607  0.1606  0.8618
   10MOL   H377 6155   1.557   0.378   7.133 -0.2709  0.0848 -0.6222
   10MOL   H378 6156   1.420   0.433   7.228 -0.2951  0.0457  0.4725
   10MOL   H379 6157   1.682   0.575   7.221 -0.2690  1.3159 -0.5986
   10MOL   H380 6158   1.528   0.636   7.276 -0.3070  0.2526  0.0929
   10MOL   H381 6159   1.491   0.456   7.438 -1.3370  2.5676 -0.2154
   10MOL   H382 6160   1.628   0.548   7.484  0.1616  0.5580 -0.8237
   10MOL   H383 6161   1.776   0.364   7.370 -0.3534  1.6531  0.6690
   10MOL   H384 6162   1.642   0.264   7.359  0.8943 -1.3359  2.0842
   10MOL   H385 6163   1.604   0.247   7.590  0.6752 -0.7297 -0.1299
   10MOL   C386 6164   1.777   0.319   7.644  0.5489  0.3861 -0.2647
   10MOL   O387 6165   1.889   0.364   7.625  0.1043  0.6828  0.3995
   10MOL   C388 6166   1.744   0.268   0.078 -0.0540 -0.2710 -0.1053
   10MOL   C389 6167   1.813   0.134   0.108  0.5975  0.4498  0.3476
   10MOL   C390 6168   1.730   0.012   0.154  0.2016 -0.4233  0.7328
   10MOL   C391 6169   1.647   0.048   0.280 -0.6094  0.1676 -0.9368
   10MOL   C392 6170   1.738   0.087   0.399 -0.3851 -0.1283  0.9042
   10MOL   O393 6171   1.847   0.034   0.422 -0.0055 -0.0602  0.1834
   10MOL   N394 6172   1.684   0.182   0.486  0.4563  0.0834 -0.5851
   10MOL   C395 6173   1.744   0.209   0.610 -0.0047  0.6903 -0.2395
   10MOL   C396 6174   1.709   0.092   0.706  0.0306  0.6502 -0.4006
   10MOL   C397 6175   1.778   0.102   0.838 -0.4949 -0.4928 -0.1091
   10MOL   C398 6176   1.747   7.695   0.940 -0.2854  0.0909 -0.1442
   10MOL   N399 6177   1.802   0.027   1.068 -0.1505 -0.5222 -0.1995
   10MOL   H400 6178   1.773   0.344   0.150 -0.8505 -1.2931  1.3256
   10MOL   H401 6179   1.637   0.250   0.089  0.1194 -1.3379 -0.1033
   10MOL   H402 6180   1.863   0.083   0.025  1.3900 -1.3507  1.8947
   10MOL   H403 6181   1.894   0.152   0.179 -0.5464  2.4536  1.1757
   10MOL   H404 6182   1.798   7.631   0.176  0.8234 -0.2232 -0.4141
   10MOL   H405 6183   1.663   7.673   0.079 -0.4889  3.7570 -1.0321
   10MOL   H406 6184   1.593   7.656   0.296  1.0904 -0.4457  1.4722
   10MOL   H407 6185   1.569   0.120   0.253 -1.6401 -0.9424 -0.9929
   10MOL   H408 6186   1.620   0.252   0.450  0.2816 -0.3453 -1.1147
   10MOL   H409 6187   1.690   0.298   0.644 -1.3170  0.0777 -0.6833
   10MOL   H410 6188   1.846   0.246   0.601  0.2974 -0.0844 -0.0665
   10MOL   H411 6189   1.602   0.104   0.727  0.2625  1.4304  0.3702
   10MOL   H412 6190   1.722   7.695   0.662  1.3312 -0.2917  2.0110
   10MOL   H413 6191   1.762   0.198   0.887  2.2331 -0.4980  0.8844
   10MOL   H414 6192   1.885   0.088   0.822 -0.9288 -4.0991 -0.1717
   10MOL   H415 6193   1.790   7.602   0.902 -1.7066 -0.4956 -0.3583
   10MOL   H416 6194   1.638   7.697   0.944 -0.1899  1.3494  2.2515
   10MOL   H417 6195   1.878   0.092   1.087 -1.3602  1.4601 -1.8592
   10MOL   C418 6196   1.783   7.646   1.173  0.3302  0.6770 -0.2600
   10MOL   O419 6197   1.713   7.543   1.164  0.9565 -0.5113  0.3410
   10MOL   C420 6198   1.817   0.009   1.311 -0.1283 -0.1328 -0.2047
   10MOL   C421 6199   1.772   7.610   1.413  0.0815  0.1205 -0.1342
   10MOL   C422 6200   1.832   7.634   1.551 -0.9604  0.1502 -0.0856
   10MOL   C423 6201   1.757   0.044   1.623 -0.1096  0.0188  0.8224
   10MOL   C424 6202   1.631   7.686   1.686  0.2378  0.2662  0.5960
   10MOL   O425 6203   1.601   7.564   1.677 -0.0522  0.0259 -0.1200
   10MOL   N426 6204   1.545   0.069   1.736  0.2343 -0.0966  0.2331
   10MOL   C427 6205   1.422   0.040   1.807 -0.1855  0.5206  0.4787
   10MOL   C428 6206   1.305   0.090   1.728  0.2782 -0.7443  0.9776
   10MOL   C429 6207   1.283   0.023   1.588  0.2040 -0.6479 -0.6998
   10MOL   C430 6208   1.197   0.108   1.491 -0.3549  0.6817  0.4062
   10MOL   N431 6209   1.184   0.067   1.352  0.2446 -0.5294 -0.4949
   10MOL   H432 6210   1.925   0.020   1.320 -0.2208 -0.0139  0.8359
   10MOL   H433 6211   1.758   0.100   1.326 -2.7423 -1.7651 -0.2284
   10MOL   H434 6212   1.665   7.589   1.421  0.3717 -0.8471  1.4640
   10MOL   H435 6213   1.816   7.515   1.384  0.1676 -0.0463  0.5183
   10MOL   H436 6214   1.939   7.653   1.536 -0.6801 -0.5449  1.0086
   10MOL   H437 6215   1.832   7.537   1.601  0.1087 -1.5344 -3.1317
   10MOL   H438 6216   1.754   0.136   1.565  1.4864 -0.0427  0.6058
   10MOL   H439 6217   1.822   0.077   1.705  1.0636 -0.7971  0.2303
   10MOL   H440 6218   1.573   0.166   1.731  1.6713 -0.5662 -1.7286
   10MOL   H441 6219   1.443   0.099   1.895 -1.6268 -0.2801  1.3881
   10MOL   H442 6220   1.406   7.640   1.845  1.8522 -0.7782 -1.9374
   10MOL   H443 6221   1.208   0.079   1.777  0.8109 -1.5125  1.8807
   10MOL   H444 6222   1.317   0.196   1.708  3.0099 -1.4951 -1.8574
   10MOL   H445 6223   1.239   7.629   1.619  1.0783 -0.2705  1.7836
   10MOL   H446 6224   1.378   7.698   1.541  2.1120 -1.7048  3.4654
   10MOL   H447 6225   1.239   0.209   1.488  0.6418  0.2875  0.7495
   10MOL   H448 6226   1.092   0.107   1.520 -0.8625  3.7265 -1.1710
   10MOL   H449 6227   1.106   0.005   1.335 -0.5940  0.7314 -1.3324
   10MOL   C450 6228   1.278   0.091   1.257 -0.5224 -0.1530  0.0261
   10MOL   O451 6229   1.375   0.162   1.287 -0.0724  0.1387  0.0715
   10MOL   C452 6230   1.248   0.038   1.115 -0.0890  0.5602 -0.7094
   10MOL   C453 6231   1.362   0.063   1.013 -0.7719 -0.3181 -0.3485
   10MOL   C454 6232   1.358   7.692   0.883 -0.3656  0.4917 -0.0762
   10MOL   C455 6233   1.388   7.541   0.887  0.1896  0.3766 -0.3125
   10MOL   C456 6234   1.428   7.496   0.745  0.2712  0.2244 -0.1679
   10MOL   O457 6235   1.548   7.479   0.713  0.0340 -0.6243  0.0013
   10MOL   N458 6236   1.326   7.484   0.661  0.1265  0.1243  0.3233
   10MOL   C459 6237   1.341   7.475   0.514 -0.4521 -0.4817 -0.4967
   10MOL   C460 6238   1.338   7.618   0.461  0.1677  0.2933 -0.1888
   10MOL   C461 6239   1.212   0.005   0.509  0.2061  0.3537 -0.1778
   10MOL   C462 6240   1.202   0.122   0.407 -0.1476 -1.4460  0.0130
   10MOL   N463 6241   1.080   0.200   0.433 -0.0002  0.0246  0.3108
   10MOL   H464 6242   1.225   7.632   1.118  2.4381  0.0155  0.3084
   10MOL   H465 6243   1.151   0.069   1.076 -0.4639 -0.8567 -0.9575
   10MOL   H466 6244   1.366   0.169   0.991  1.3314 -0.4121 -0.5492
   10MOL   H467 6245   1.457   0.044   1.063 -0.4544 -0.3107 -0.9346
   10MOL   H468 6246   1.421   0.056   0.824 -0.2022 -0.0151 -0.4715
   10MOL   H469 6247   1.257   7.699   0.842 -0.8712  0.0363  1.0648
   10MOL   H470 6248   1.305   7.485   0.929  0.3748  1.3223  1.3604
   10MOL   H471 6249   1.478   7.526   0.947 -0.2136  1.3148  0.5369
   10MOL   H472 6250   1.232   7.482   0.696 -0.4840  0.0272 -1.3034
   10MOL   H473 6251   1.260   7.418   0.468  1.5776 -2.9130 -1.2059
   10MOL   H474 6252   1.433   7.422   0.488  0.0844  1.3235 -2.3603
   10MOL   H475 6253   1.430   7.664   0.498 -0.4304  1.2118  0.1648
   10MOL   H476 6254   1.319   7.599   0.356 -1.1654  2.1415 -0.3126
   10MOL   H477 6255   1.222   0.041   0.611 -4.9409 -0.5464  0.8114
   10MOL   H478 6256   1.123   7.642   0.503  0.5429 -0.0023 -1.5916
   10MOL   H479 6257   1.216   0.092   0.304 -0.7768 -0.8449 -0.2560
   10MOL   H480 6258   1.288   0.189   0.411  1.1289 -3.0475 -0.1097
   10MOL   H481 6259   1.068   0.227   0.529 -0.7909  0.6438  0.0452
   10MOL   C482 6260   0.976   0.212   0.351 -0.3837  0.3461 -0.3696
   10MOL   O483 6261   0.972   0.165   0.234  0.6697 -0.3288 -0.2832
   10MOL   C484 6262   0.846   0.276   0.406  0.0484 -0.3773  0.7993
   10MOL   C485 6263   0.802   0.405   0.332  0.3175 -0.7492  0.5969
   10MOL   C486 6264   0.890   0.522   0.350  0.0601 -0.5394 -0.2121
   10MOL   C487 6265   0.839   0.655   0.287  0.1594 -0.3705 -0.8962
   10MOL   C488 6266   0.939   0.773   0.300 -0.0245 -0.4734 -0.1178
   10MOL   O489 6267   0.981   0.810   0.413 -0.1523  0.4394  0.2300
   10MOL   N490 6268   0.985   0.837   0.196  0.1625  0.0604 -0.1524
   10MOL   C491 6269   1.063   0.966   0.192 -0.0244 -0.0292 -0.4251
   10MOL   C492 6270   1.100   1.001   0.046 -0.6437  0.0058 -0.2140
   10MOL   C493 6271   1.173   1.131   0.049 -0.0971  0.1722 -0.1483
   10MOL   C494 6272   1.201   1.193   7.610  0.4917 -0.6052  0.0166
   10MOL   N495 6273   1.239   1.334   7.627  0.2244 -0.0672 -0.4296
   10MOL   H496 6274   0.767   0.202   0.396  0.6887 -0.9116 -0.3449
   10MOL   H497 6275   0.859   0.305   0.511  5.1043  0.3141  0.1057
   10MOL   H498 6276   0.792   0.390   0.224  0.4087  1.6174  0.2124
   10MOL   H499 6277   0.705   0.440   0.368  0.2435  0.9657 -1.1683
   10MOL   H500 6278   0.988   0.496   0.311  0.1392  1.0832 -1.1301
   10MOL   H501 6279   0.898   0.540   0.457 -1.0418 -1.4054  0.0322
   10MOL   H502 6280   0.736   0.673   0.318  0.5834  2.7551 -1.1055
   10MOL   H503 6281   0.813   0.636   0.183  1.3405  1.6797 -1.6013
   10MOL   H504 6282   0.949   0.811   0.106  1.6748  0.6621 -0.9570
   10MOL   H505 6283   1.159   0.956   0.243  0.8369  2.6151 -1.4115
   10MOL   H506 6284   1.007   1.039   0.250  0.5260  0.1798 -0.1474
   10MOL   H507 6285   1.162   0.921   0.006  0.6855  0.8199  0.1912
   10MOL   H508 6286   1.012   1.014   7.683 -1.1596 -1.6850  0.1331
   10MOL   H509 6287   1.266   1.123   0.105  0.6014  0.1409 -1.2850
   10MOL   H510 6288   1.100   1.196   0.097 -0.4940 -1.5860  1.6714
   10MOL   H511 6289   1.114   1.189   7.544 -0.1878 -0.2669  0.8732
   10MOL   H512 6290   1.271   1.132   7.553 -1.7658 -1.6192 -1.7454
   10MOL   H513 6291   1.168   1.404   7.637 -1.1955 -1.3727 -1.1711
   10MOL   C514 6292   1.363   1.382   7.623 -0.2863  0.2235 -0.2913
   10MOL   O515 6293   1.464   1.309   7.626 -0.2687 -0.3008 -0.1994
   10MOL   C516 6294   1.382   1.539   7.624 -0.2255 -0.4787 -0.3902
   10MOL   C517 6295   1.316   1.615   7.507  0.2138 -0.3838  0.4417
   10MOL   C518 6296   1.356   1.565   7.371 -0.6206 -0.2845 -0.2394
   10MOL   C519 6297   1.505   1.546   7.341  0.1431  0.3124 -0.0538
   10MOL   C520 6298   1.538   1.513   7.192 -0.1796  0.2710 -0.2375
   10MOL   O521 6299   1.449   1.500   7.111  0.1083 -0.1794  0.2221
   10MOL   N522 6300   1.662   1.487   7.168 -0.7823 -0.2209  0.3605
   10MOL   C523 6301   1.713   1.441   7.040  0.0797 -0.0137 -0.1381
   10MOL   C524 6302   1.796   1.557   6.968 -0.1112 -0.1672  0.0984
   10MOL   C525 6303   1.874   1.497   6.852  0.1812 -0.7400 -0.4354
   10MOL   C526 6304   1.928   1.606   6.755  0.8639 -0.3322 -0.3023
   10MOL   N527 6305   1.813   1.680   6.694 -0.5091 -0.2055 -0.9074
   10MOL   H528 6306   1.332   1.564   0.016  1.1217  1.8003 -0.2298
   10MOL   H529 6307   1.489   1.558   7.630 -0.3237 -0.4955  1.7433
   10MOL   H530 6308   1.207   1.607   7.512  0.0762  0.0719 -1.7095
   10MOL   H531 6309   1.346   1.719   7.512 -0.1165 -0.2657 -0.0091
   10MOL   H532 6310   1.297   1.628   7.304  0.1151  2.6621  1.8064
   10MOL   H533 6311   1.307   1.469   7.353  1.6201 -1.2689 -1.3051
   10MOL   H534 6312   1.537   1.463   7.405 -3.2094  0.7905  2.3656
   10MOL   H535 6313   1.558   1.636   7.371 -0.5277  1.4317 -2.1161
   10MOL   H536 6314   1.733   1.523   7.229 -0.4564  1.4252 -0.9650
   10MOL   H537 6315   1.634   1.403   6.976 -0.6556 -2.1936  1.9859
   10MOL   H538 6316   1.781   1.359   7.061 -1.1072 -1.1438 -0.6128
   10MOL   H539 6317   1.730   1.633   6.927  0.9374  1.6548  1.6897
   10MOL   H540 6318   1.864   1.611   7.034 -1.3549  2.7295 -0.9185
   10MOL   H541 6319   1.810   1.428   6.797  1.4258 -1.1859 -1.3226
   10MOL   H542 6320   1.951   1.441   6.904 -0.5565 -1.3328  0.0139
   10MOL   H543 6321   1.976   1.560   6.669 -2.6578 -1.5489 -1.6943
   10MOL   H544 6322   1.990   1.682   6.803  0.5234 -0.5370  0.4751
   10MOL   H545 6323   1.774   1.622   6.621 -1.6019 -0.1306 -0.3860
   10MOL   C546 6324   1.766   1.802   6.716 -0.0273 -0.3653  0.4608
   10MOL   O547 6325   1.831   1.890   6.773 -0.2933 -1.0561 -0.1741
   10MOL   C548 6326   1.623   1.829   6.689 -0.1786 -0.6524  0.5873
   10MOL   C549 6327   1.597   1.930   6.576  0.2220 -0.5391 -0.1315
   10MOL   C550 6328   1.447   1.963   6.570 -0.8820 -1.0601  0.1178
   10MOL   C551 6329   1.423   2.088   6.474 -0.0280  1.1338 -0.7248
   10MOL   C552 6330   1.277   2.120   6.455  0.4740  0.3636 -0.4334
   10MOL   O553 6331   1.208   2.164   6.553 -0.2272 -0.0467  0.3449
   10MOL   N554 6332   1.224   2.102   6.333 -0.1547 -0.5848  0.7949
   10MOL   C555 6333   1.088   2.100   6.295  0.6732  0.0848  0.1344
   10MOL   C556 6334   1.027   2.240   6.280 -0.0641  0.2429 -0.8192
   10MOL   C557 6335   0.869   2.243   6.267  0.3528  0.3842 -0.2808
   10MOL   C558 6336   0.814   2.182   6.142 -0.2596  0.2386 -0.1672
   10MOL   N559 6337   0.673   2.179   6.125  0.1422  0.3707  0.3134
   10MOL   H560 6338   1.577   1.732   6.671 -2.1009  0.6938 -2.1767
   10MOL   H561 6339   1.582   1.866   6.783 -0.5162  0.7973 -0.1167
   10MOL   H562 6340   1.654   2.023   6.583  0.0540 -0.5285  1.1413
   10MOL   H563 6341   1.621   1.881   6.482  1.7169 -1.0284  0.4966
   10MOL   H564 6342   1.408   1.990   6.668  1.2960 -1.1033  1.0181
   10MOL   H565 6343   1.394   1.887   6.512 -2.1204  0.3684 -0.6909
   10MOL   H566 6344   1.463   2.067   6.375 -1.0688 -1.2058 -0.6895
   10MOL   H567 6345   1.471   2.172   6.524  0.2923 -0.0980  1.0738
   10MOL   H568 6346   1.294   2.085   6.263  0.6983 -0.1755  1.5431
   10MOL   H569 6347   1.040   2.027   6.361 -0.3666 -1.1423 -1.9111
   10MOL   H570 6348   1.099   2.044   6.202 -2.4769 -0.9709  0.3248
   10MOL   H571 6349   1.052   2.308   6.361  1.4039 -0.1080 -0.9714
   10MOL   H572 6350   1.074   2.296   6.200 -0.5239  2.9870  0.7878
   10MOL   H573 6351   0.827   2.343   6.273  1.3888  0.9189 -1.5813
   10MOL   H574 6352   0.839   2.189   6.356  0.0547 -0.2563 -0.7726
   10MOL   H575 6353   0.855   2.081   6.143 -0.6286  0.0629 -1.5536
   10MOL   H576 6354   0.866   2.230   6.058  2.2088 -1.2239  0.4678
   10MOL   H577 6355   0.621   2.133   6.198 -1.3340  0.0727 -0.9189
   10MOL   C578 6356   0.618   2.250   6.024  0.0512 -0.8129 -0.7977
   10MOL   O579 6357   0.680   2.330   5.951 -0.3612 -0.3903 -0.0340
   10MOL   C580 6358   0.460   2.250   6.022  0.4461  0.0112 -0.1629
   10MOL   C581 6359   0.390   2.394   6.038 -0.2487  0.6773  0.1463
   10MOL   C582 6360   0.398   2.480   5.910 -0.3283  0.0076  0.7374
   10MOL   C583 6361   0.326   2.611   5.925  0.6702 -0.9112 -0.0223
   10MOL   C584 6362   0.175   2.593   5.940  0.4290 -0.0765  0.3489
   10MOL   O585 6363   0.104   2.544   5.852 -0.3368  0.3393  0.0658
   10MOL   N586 6364   0.122   2.638   6.057  0.6748 -1.0531 -0.2345
   10MOL   C587 6365   7.695   2.626   6.115 -0.1562  0.4472 -0.4031
   10MOL   C588 6366   7.574   2.696   6.043 -0.2394 -0.0174 -0.6078
   10MOL   C589 6367   7.583   2.851   6.033 -0.1066  0.0025  0.6842
   10MOL   C590 6368   7.458   2.917   5.964  0.1406  0.6531 -0.1559
   10MOL   N591 6369   7.473   3.061   5.983  0.3789  0.4726 -0.1365
   10MOL   H592 6370   0.440   2.208   5.923 -0.3801 -1.1629  0.4897
   10MOL   H593 6371   0.415   2.184   6.096  1.0455  0.2299  0.4001
   10MOL   H594 6372   0.283   2.375   6.051 -0.6462  0.9789 -2.4662
   10MOL   H595 6373   0.420   2.455   6.123  1.9428 -0.5471  0.2945
   10MOL   H596 6374   0.376   2.421   5.821 -0.5511  0.0908  0.7365
   10MOL   H597 6375   0.503   2.504   5.892  0.2721 -1.9231  1.5557
   10MOL   H598 6376   0.325   2.671   5.834 -1.0305  1.9839  1.8257
   10MOL   H599 6377   0.376   2.678   5.994 -0.1476 -0.5642  0.2390
   10MOL   H600 6378   0.186   2.685   6.119 -1.0798  1.3145 -0.1172
   10MOL   H601 6379   7.701   2.668   6.215  0.0310 -1.9872  0.6294
   10MOL   H602 6380   7.659   2.524   6.127  1.2503  0.1780  1.7855
   10MOL   H603 6381   7.540   2.650   5.950  0.7617  2.4008 -2.2103
   10MOL   H604 6382   7.489   2.686   6.111  0.8474  0.7540  0.9104
   10MOL   H605 6383   7.675   2.881   5.982 -0.8173 -1.5318 -1.5643
   10MOL   H606 6384   7.581   2.892   6.134 -0.2965  2.6162 -0.3347
   10MOL   H607 6385   7.369   2.870   6.006  3.2693 -3.6126  2.0412
   10MOL   H608 6386   7.460   2.886   5.859 -1.5604 -2.1269  0.5699
   10MOL   H609 6387   7.558   3.095   5.939  0.5941 -1.6207 -1.3844
   10MOL   C610 6388   7.382   3.152   6.041  0.1810 -0.1916  0.3842
   10MOL   O611 6389   7.277   3.135   6.094  0.1193 -0.0824 -0.0147
   10MOL   C612 6390   7.427   3.293   6.018 -0.5601 -0.0277 -0.8952
   10MOL   C613 6391   7.435   3.372   6.151 -0.1979 -0.0428  0.2077
   10MOL   C614 6392   7.522   3.299   6.250  0.3732  0.2397  0.2775
   10MOL   C615 6393   7.663   3.283   6.200 -0.3103  0.4223 -0.0951
   10MOL   C616 6394   0.054   3.402   6.220  0.1224  0.0439 -0.2148
   10MOL   O617 6395   0.092   3.428   6.333  0.3658 -0.1217 -0.1372
   10MOL   N618 6396   0.102   3.466   6.110  0.4602  0.6126 -0.1454
   10MOL   C619 6397   0.202   3.567   6.120  0.0917  0.7549 -0.1101
   10MOL   C620 6398   0.347   3.517   6.152 -0.7228  0.1006 -0.0939
   10MOL   C621 6399   0.441   3.638   6.121 -0.0061  0.7570  0.4623
   10MOL   C622 6400   0.592   3.595   6.134  0.2629  0.0463 -0.0478
   10MOL   N623 6401   0.623   3.574   6.274  0.4265  0.0880  0.0456
   10MOL   H624 6402   7.526   3.293   5.972 -0.5841  1.0674 -0.9658
   10MOL   H625 6403   7.356   3.332   5.945 -2.6468 -0.3637  0.9072
   10MOL   H626 6404   7.496   3.458   6.123  0.6463 -0.8720 -0.5328
   10MOL   H627 6405   7.344   3.415   6.193 -1.3211 -1.5250 -0.6741
   10MOL   H628 6406   7.476   3.209   6.290  2.3029 -0.5110  0.8253
   10MOL   H629 6407   7.523   3.357   6.343 -1.0668  0.8536 -0.0797
   10MOL   H630 6408   7.676   3.243   6.099  0.6619 -1.5774  0.7898
   10MOL   H631 6409   0.013   3.217   6.270  1.1688  3.2783  1.6047
   10MOL   H632 6410   0.060   3.442   6.021 -2.7503 -3.0974  2.2121
   10MOL   H633 6411   0.166   3.643   6.190  2.1405  1.6176  0.0593
   10MOL   H634 6412   0.206   3.629   6.030  1.2576  0.7792 -0.0485
   10MOL   H635 6413   0.359   3.477   6.252  1.2931  1.1921  0.1152
   10MOL   H636 6414   0.375   3.433   6.087  0.5764 -0.4946  1.2280
   10MOL   H637 6415   0.424   3.730   6.178 -3.1814  1.2313 -1.1451
   10MOL   H638 6416   0.428   3.678   6.021 -1.4262 -2.1554 -0.5816
   10MOL   H639 6417   0.658   3.672   6.092 -1.3033  1.3979 -0.0908
   10MOL   H640 6418   0.621   3.501   6.088  1.0222  0.6445 -0.8152
   10MOL   H641 6419   0.584   3.486   6.303  2.2201 -0.1764  1.7313
   10MOL   H642 6420   0.723   3.563   6.277  0.4265  0.4552  1.7493
   11MOL     C1 6421   2.093   3.525   5.920  0.1484  0.1072  0.5263
   11MOL     O2 6422   2.174   3.443   5.963 -0.1041 -0.3753 -0.3223
   11MOL     C3 6423   2.064   3.664   5.983  0.3148 -0.5916 -0.3244
   11MOL     C4 6424   2.157   3.683   6.105  1.1225  0.1640  0.8105
   11MOL     C5 6425   2.146   3.827   6.155 -0.2675 -0.0679 -0.1594
   11MOL     C6 6426   2.004   3.889   6.194  0.1300  0.5726  0.0189
   11MOL     C7 6427   1.925   3.791   6.276 -0.4438  0.2306  0.0051
   11MOL     O8 6428   1.969   3.760   6.389  0.0383 -0.2792  0.0228
   11MOL     N9 6429   1.812   3.748   6.223 -0.1013 -0.0167 -0.4143
   11MOL    C10 6430   1.741   3.629   6.265  0.4051  0.7214 -0.4088
   11MOL    C11 6431   1.655   3.648   6.392  0.0076 -0.6008 -0.6282
   11MOL    C12 6432   1.594   3.520   6.433 -0.2674 -0.4873  0.6170
   11MOL    C13 6433   1.488   3.535   6.541  0.1354 -0.2166 -0.6341
   11MOL    N14 6434   1.418   3.410   6.572 -0.4111 -0.0450  1.1532
   11MOL    H15 6435   2.087   3.734   5.903  1.1632 -1.1063 -0.5395
   11MOL    H16 6436   1.957   3.668   6.004  0.0907 -0.1566 -1.5145
   11MOL    H17 6437   2.135   3.605   6.178  1.3006 -0.6991 -0.0343
   11MOL    H18 6438   2.261   3.668   6.077  1.1134  1.3287  0.1159
   11MOL    H19 6439   2.176   3.890   6.071 -0.4026  1.3421  0.8291
   11MOL    H20 6440   2.224   3.847   6.228  0.2423  1.5763 -1.1020
   11MOL    H21 6441   1.950   3.905   6.100 -1.1555  0.4655  0.7354
   11MOL    H22 6442   2.028   3.984   6.243  3.7823 -0.0801 -0.3401
   11MOL    H23 6443   1.784   3.784   6.133 -2.2365  0.3616  0.3785
   11MOL    H24 6444   1.809   3.545   6.281  0.5377  0.7920 -0.6079
   11MOL    H25 6445   1.674   3.613   6.181  1.4269  0.3299 -1.1660
   11MOL    H26 6446   1.709   3.688   6.477 -0.9710 -0.9775  0.1844
   11MOL    H27 6447   1.567   3.708   6.372  0.7884  0.4105 -1.0433
   11MOL    H28 6448   1.663   3.454   6.485  2.0804  0.5618 -1.0679
   11MOL    H29 6449   1.548   3.466   6.349 -2.5942  1.2620  0.7054
   11MOL    H30 6450   1.407   3.604   6.516  0.2440  0.4390  0.8139
   11MOL    H31 6451   1.521   3.587   6.630  0.3901 -1.6946  0.1573
   11MOL    H32 6452   1.330   3.400   6.524 -0.7436  3.7825  0.7791
   11MOL    H33 6453   2.041   3.503   5.826  1.9690 -3.1609  0.2336
   11MOL    C34 6454   1.478   3.313   6.641  0.6839  0.1713 -0.2658
   11MOL    O35 6455   1.587   3.313   6.698 -0.5505  0.1008  0.0662
   11MOL    C36 6456   1.391   3.187   6.655  0.0359 -0.6835  0.0626
   11MOL    C37 6457   1.465   3.063   6.611 -0.2008 -0.1324  0.6017
   11MOL    C38 6458   1.453   3.052   6.457 -0.3493  0.3105 -0.1375
   11MOL    C39 6459   1.517   2.920   6.405  0.0069 -0.2019 -0.1142
   11MOL    C40 6460   1.456   2.795   6.453 -0.0102  0.1301 -0.6640
   11MOL    O41 6461   1.473   2.757   6.564  0.2408  0.1930  0.4348
   11MOL    N42 6462   1.371   2.731   6.372 -0.2440 -0.1808  0.1056
   11MOL    C43 6463   1.317   2.601   6.402  0.0946 -0.3437  0.0251
   11MOL    C44 6464   1.399   2.485   6.333  0.2228  0.1670 -0.1417
   11MOL    C45 6465   1.474   2.530   6.206 -0.4338  0.0658 -0.1899
   11MOL    C46 6466   1.567   2.419   6.152 -0.4021 -0.4482  0.1755
   11MOL    N47 6467   1.654   2.477   6.055  0.3725 -0.2296 -0.3165
   11MOL    H48 6468   1.360   3.183   6.759  0.9719  0.7319  0.4149
   11MOL    H49 6469   1.301   3.215   6.600  0.9524 -0.1699 -1.2029
   11MOL    H50 6470   1.571   3.063   6.638 -0.6781 -0.5657  2.5312
   11MOL    H51 6471   1.426   2.983   6.673  0.1371 -0.7307  0.0458
   11MOL    H52 6472   1.503   3.127   6.397 -2.5574 -0.0573 -2.5423
   11MOL    H53 6473   1.345   3.055   6.441 -0.6833  1.9787  2.2284
   11MOL    H54 6474   1.624   2.912   6.422  0.2512 -0.6732 -1.8145
   11MOL    H55 6475   1.522   2.935   6.297 -2.4738  0.8705 -0.1243
   11MOL    H56 6476   1.375   2.756   6.274  1.8173  0.6078  0.3642
   11MOL    H57 6477   1.215   2.623   6.370 -0.3617  1.9239  2.8866
   11MOL    H58 6478   1.304   2.580   6.508  0.4007 -1.2582 -0.1085
   11MOL    H59 6479   1.465   2.437   6.406  2.1991  0.9131 -1.3756
   11MOL    H60 6480   1.331   2.409   6.296  0.3455 -0.2229  0.4200
   11MOL    H61 6481   1.533   2.621   6.219 -1.1170  0.6121 -0.8806
   11MOL    H62 6482   1.397   2.551   6.132 -0.3647 -0.7353 -0.4965
   11MOL    H63 6483   1.500   2.344   6.109 -2.4667  2.1120 -1.2449
   11MOL    H64 6484   1.611   2.360   6.233 -2.3729 -1.8993  0.2199
   11MOL    H65 6485   1.609   2.499   5.968  0.9216  2.2321 -0.0018
   11MOL    C66 6486   1.785   2.484   6.066 -0.6738  0.1864 -0.0853
   11MOL    O67 6487   1.845   2.510   5.965 -0.5963 -0.4033 -0.0457
   11MOL    C68 6488   1.852   2.479   6.201 -0.1844  0.0498 -0.0861
   11MOL    C69 6489   1.989   2.537   6.202 -0.1627  0.1642  0.2810
   11MOL    C70 6490   1.993   2.693   6.205 -0.0363  0.5839 -0.2373
   11MOL    C71 6491   2.135   2.749   6.174  0.1301 -0.3813 -0.0163
   11MOL    C72 6492   2.134   2.900   6.164 -0.0104  0.5534  0.4434
   11MOL    O73 6493   2.057   2.974   6.222 -0.3873  0.1856  0.4542
   11MOL    N74 6494   2.229   2.946   6.087 -0.3953  0.1648  0.3011
   11MOL    C75 6495   2.256   3.093   6.081  0.2330 -0.0920 -0.3001
   11MOL    C76 6496   2.384   3.143   6.003 -0.4119 -0.2762  0.1890
   11MOL    C77 6497   2.382   3.112   5.848 -0.1761 -0.3478  0.6926
   11MOL    C78 6498   2.506   3.162   5.780 -0.1390  0.2338  0.4521
   11MOL    N79 6499   2.538   3.305   5.805 -0.1109  0.3149 -0.1408
   11MOL    H80 6500   1.793   2.533   6.275 -0.1256 -0.8827  0.6463
   11MOL    H81 6501   1.852   2.377   6.239  0.5308  0.1992  0.3220
   11MOL    H82 6502   2.034   2.497   6.293  0.7548  0.5657  0.0133
   11MOL    H83 6503   2.051   2.502   6.119 -0.0053 -0.9359  0.8503
   11MOL    H84 6504   1.975   2.725   6.308 -2.2752  0.7214 -0.6451
   11MOL    H85 6505   1.914   2.738   6.144 -0.4350  0.4954  0.2129
   11MOL    H86 6506   2.174   2.704   6.082  1.7949  0.0620  0.4536
   11MOL    H87 6507   2.199   2.728   6.259 -0.6248  1.8470  1.1418
   11MOL    H88 6508   2.290   2.877   6.045 -0.5518  0.3252 -0.2021
   11MOL    H89 6509   2.261   3.133   6.182  2.0416  0.7964 -0.7203
   11MOL    H90 6510   2.173   3.136   6.025 -1.5680 -2.8225  0.1605
   11MOL    H91 6511   2.379   3.252   6.010 -0.5203 -0.3303  1.0238
   11MOL    H92 6512   2.473   3.108   6.055  0.4143  2.6848  0.8824
   11MOL    H93 6513   2.297   3.153   5.795  0.0403 -1.4310 -0.5022
   11MOL    H94 6514   2.376   3.003   5.844 -0.7059 -0.2521 -2.0531
   11MOL    H95 6515   2.505   3.145   5.672 -0.1358 -0.8455  0.6163
   11MOL    H96 6516   2.590   3.096   5.802 -0.0216  1.1203  2.8412
   11MOL    H97 6517   2.621   3.319   5.861  0.0063 -1.2016  0.0796
   11MOL    C98 6518   2.472   3.410   5.752 -0.3550 -0.1935  1.3985
   11MOL    O99 6519   2.360   3.390   5.692 -0.0309  0.0494 -0.4239
   11MOL   C100 6520   2.532   3.550   5.777 -0.7755  0.7957  0.2599
   11MOL   C101 6521   2.429   3.631   5.862  0.5053 -0.3826 -0.4438
   11MOL   C102 6522   2.478   3.778   5.904  0.0144  0.2648  0.1639
   11MOL   C103 6523   2.490   3.869   5.783 -0.7013 -0.1057  0.1790
   11MOL   C104 6524   2.629   3.904   5.730 -0.0269 -0.0954 -0.3899
   11MOL   O105 6525   2.717   3.906   5.818  0.3792  0.6250 -0.4195
   11MOL   N106 6526   2.652   3.927   5.602  0.2244 -0.3966 -0.4074
   11MOL   C107 6527   2.781   3.975   5.556 -0.0170  0.6283  0.1359
   11MOL   C108 6528   2.765   4.034   5.413 -0.1933 -0.2376  0.5324
   11MOL   C109 6529   2.894   4.114   5.366  0.4940  0.0144  0.3406
   11MOL   C110 6530   2.886   4.180   5.230 -0.2405  0.0344  0.2865
   11MOL   N111 6531   2.802   4.296   5.227 -0.3319  0.2371 -0.1244
   11MOL   H112 6532   2.632   3.554   5.822 -0.5742  1.2046 -0.2163
   11MOL   H113 6533   2.534   3.600   5.680  1.8118  0.1456 -0.0566
   11MOL   H114 6534   2.332   3.637   5.812  0.8830  1.1716 -1.0070
   11MOL   H115 6535   2.405   3.577   5.954 -0.0065  1.6190  0.6291
   11MOL   H116 6536   2.571   3.769   5.960 -1.7262 -1.1644  2.9249
   11MOL   H117 6537   2.402   3.820   5.970 -0.6737  0.9595 -1.0371
   11MOL   H118 6538   2.431   3.957   5.809 -0.5716  0.1710 -0.4648
   11MOL   H119 6539   2.428   3.830   5.702  0.1575  0.3857 -0.7078
   11MOL   H120 6540   2.570   3.929   5.543  0.1560 -1.3219 -0.3471
   11MOL   H121 6541   2.841   3.884   5.555 -0.8757  0.0416 -2.3125
   11MOL   H122 6542   2.833   4.044   5.623 -1.7176  1.8964  0.1878
   11MOL   H123 6543   2.748   3.954   5.342  1.0619 -1.0361  1.1122
   11MOL   H124 6544   2.682   4.105   5.411 -0.1528 -0.2154 -2.9575
   11MOL   H125 6545   2.975   4.040   5.366 -1.4407 -2.1775 -0.2199
   11MOL   H126 6546   2.902   4.195   5.438 -0.6267 -0.9471  1.5905
   11MOL   H127 6547   2.848   4.110   5.155 -1.4826  1.6560 -0.6161
   11MOL   H128 6548   2.985   4.201   5.189  0.1591 -2.5204 -0.1538
   11MOL   H129 6549   2.843   4.383   5.257  0.0104 -0.1751  0.6144
   11MOL   C130 6550   2.670   4.301   5.227 -0.1977 -0.1281  0.1084
   11MOL   O131 6551   2.603   4.207   5.181  0.3347  0.5554 -0.1324
   11MOL   C132 6552   2.608   4.427   5.291 -0.7901 -0.3419  0.1891
   11MOL   C133 6553   2.455   4.414   5.319 -0.1390  0.5946  0.8401
   11MOL   C134 6554   2.409   4.347   5.454  0.3445  0.1880 -0.3679
   11MOL   C135 6555   2.455   4.422   5.587 -0.0469 -0.2355 -0.1606
   11MOL   C136 6556   2.392   4.364   5.712 -0.1579  0.0304  0.1462
   11MOL   O137 6557   2.309   4.282   5.713  0.8172 -0.4990 -0.3550
   11MOL   N138 6558   2.437   4.422   5.829 -0.0622  0.7254  0.7709
   11MOL   C139 6559   2.376   4.388   5.959  0.0792 -0.0052  0.3140
   11MOL   C140 6560   2.419   4.267   6.037 -0.2000  0.0933  0.8095
   11MOL   C141 6561   2.302   4.210   6.122 -0.4507 -0.3691 -0.2544
   11MOL   C142 6562   2.254   4.308   6.232  0.3633 -0.0479 -0.5696
   11MOL   N143 6563   2.143   4.393   6.186 -0.0384  0.3146 -0.1131
   11MOL   H144 6564   2.660   4.458   5.382 -1.7060 -0.1316  0.6439
   11MOL   H145 6565   2.626   4.508   5.221  0.1125 -1.8974 -1.4345
   11MOL   H146 6566   2.406   4.510   5.314 -0.5150  0.4232  1.2577
   11MOL   H147 6567   2.417   4.363   5.230  1.6458 -1.6200  1.2783
   11MOL   H148 6568   2.448   4.246   5.465 -2.2609 -0.6950  1.1319
   11MOL   H149 6569   2.302   4.327   5.454  0.1231  1.2414  1.7957
   11MOL   H150 6570   2.405   4.519   5.587  0.7367  0.1714 -0.7664
   11MOL   H151 6571   2.559   4.451   5.597  0.9571 -3.1702 -1.5038
   11MOL   H152 6572   2.496   4.504   5.829 -0.5021  1.0873 -2.3342
   11MOL   H153 6573   2.269   4.388   5.938  0.0523  0.2667  0.4447
   11MOL   H154 6574   2.395   4.470   6.027  2.0008 -1.0677  1.0941
   11MOL   H155 6575   2.450   4.197   5.960  0.5039  0.9344  0.3219
   11MOL   H156 6576   2.503   4.298   6.098  0.1719 -0.0270  0.3599
   11MOL   H157 6577   2.331   4.114   6.165  0.0918  0.6894  1.8204
   11MOL   H158 6578   2.224   4.182   6.052 -2.2402 -0.2227  1.6354
   11MOL   H159 6579   2.330   4.378   6.266  0.1365 -1.0386  2.1622
   11MOL   H160 6580   2.221   4.255   6.322 -0.2190  1.1475 -0.0581
   11MOL   H161 6581   2.152   4.494   6.179 -0.1269  0.1361 -3.7165
   11MOL   C162 6582   2.019   4.353   6.150  0.5536 -0.3451  0.0633
   11MOL   O163 6583   1.988   4.239   6.161  0.0338 -0.4164 -0.1573
   11MOL   C164 6584   1.935   4.455   6.080 -0.9258  0.3512  0.5975
   11MOL   C165 6585   1.837   4.542   6.164 -0.5455 -0.7847  0.0046
   11MOL   C166 6586   1.913   4.655   6.251  0.2225 -0.0506 -0.5648
   11MOL   C167 6587   2.000   4.759   6.180 -0.2628 -0.3414  0.4945
   11MOL   C168 6588   2.143   4.748   6.216  0.0270  0.1898 -0.6860
   11MOL   O169 6589   2.211   4.660   6.168  0.2540  0.8640 -0.1985
   11MOL   N170 6590   2.186   4.831   6.311  0.3099 -0.1336  0.0177
   11MOL   C171 6591   2.311   4.846   6.381  0.0664  0.1239 -0.1865
   11MOL   C172 6592   2.323   4.745   6.498 -0.3484 -0.4065  0.6439
   11MOL   C173 6593   2.338   4.597   6.461  0.1685 -0.2012  0.1320
   11MOL   C174 6594   2.376   4.511   6.585  0.3603 -0.4696 -0.4391
   11MOL   N175 6595   2.427   4.377   6.546 -0.2104  0.0315  0.4244
   11MOL   H176 6596   2.003   4.514   6.019 -1.3598 -1.9797 -2.2234
   11MOL   H177 6597   1.874   4.403   6.007 -2.6532  2.1529  0.7081
   11MOL   H178 6598   1.758   4.580   6.099  0.6015  0.3056 -0.7916
   11MOL   H179 6599   1.784   4.480   6.235 -2.6607  1.7723  0.7467
   11MOL   H180 6600   1.964   4.604   6.333 -1.9604  1.0062  1.5310
   11MOL   H181 6601   1.840   4.708   6.313  0.8117  2.1436 -1.6787
   11MOL   H182 6602   1.968   4.862   6.195  0.1868 -0.2981  1.1989
   11MOL   H183 6603   1.984   4.745   6.073  3.6154  0.4266 -0.2811
   11MOL   H184 6604   2.119   4.898   6.345  0.7675  0.9025 -1.1055
   11MOL   H185 6605   2.327   4.950   6.410 -1.5903  0.3425 -0.0158
   11MOL   H186 6606   2.385   4.828   6.303  0.1944 -1.0679  0.1882
   11MOL   H187 6607   2.410   4.768   6.559  0.3085 -0.4068 -0.2893
   11MOL   H188 6608   2.239   4.764   6.565  0.8039 -0.3586  2.1173
   11MOL   H189 6609   2.420   4.584   6.391 -1.6882 -2.6951 -1.6872
   11MOL   H190 6610   2.241   4.564   6.424 -0.5498 -0.6800  2.3281
   11MOL   H191 6611   2.287   4.500   6.647  0.7991 -0.1970  0.2351
   11MOL   H192 6612   2.460   4.550   6.642 -2.3833  0.4824  3.1505
   11MOL   H193 6613   2.364   4.302   6.571 -1.7561  0.3361 -2.3758
   11MOL   C194 6614   2.552   4.347   6.513  0.5588 -0.1053  0.1235
   11MOL   O195 6615   2.635   4.431   6.485 -0.4279 -0.0667  0.5251
   11MOL   C196 6616   2.588   4.199   6.512 -0.1229 -0.5010 -0.5916
   11MOL   C197 6617   2.591   4.144   6.362  0.1197  0.1722 -0.1333
   11MOL   C198 6618   2.658   4.003   6.354  0.0095 -0.4197 -0.2280
   11MOL   C199 6619   2.685   3.964   6.207 -0.2557 -0.7285  0.1437
   11MOL   C200 6620   2.797   4.049   6.144  0.0242  0.6256  0.3588
   11MOL   O201 6621   2.900   4.058   6.206  0.2418 -0.2932  0.2511
   11MOL   N202 6622   2.780   4.099   6.020 -0.1033 -0.2311 -0.5121
   11MOL   C203 6623   2.885   4.154   5.934  0.9043 -0.6365 -0.6303
   11MOL   C204 6624   2.837   4.273   5.857 -0.3140  0.2273  0.2997
   11MOL   C205 6625   2.946   4.325   5.758  0.2133  0.1740  0.2706
   11MOL   C206 6626   2.893   4.451   5.682 -0.5886  0.1004  0.8325
   11MOL   N207 6627   3.008   4.506   5.609  0.1687 -0.0366 -0.2535
   11MOL   H208 6628   2.692   4.196   6.543 -0.8812  1.6516  2.3122
   11MOL   H209 6629   2.519   4.146   6.577 -1.8573  4.3337  1.7289
   11MOL   H210 6630   2.491   4.131   6.321  1.4318 -0.4290 -3.3252
   11MOL   H211 6631   2.651   4.216   6.306  0.4310  1.4021  1.7343
   11MOL   H212 6632   2.589   3.936   6.405 -1.8405 -0.5492 -2.8297
   11MOL   H213 6633   2.749   4.009   6.414  0.4495  0.7838 -1.0074
   11MOL   H214 6634   2.591   3.970   6.151  1.4210 -0.1544 -2.7015
   11MOL   H215 6635   2.733   3.867   6.203 -0.4966 -0.8131 -0.8905
   11MOL   H216 6636   2.704   4.061   5.965  1.0920  1.7304 -3.6832
   11MOL   H217 6637   2.907   4.077   5.860  0.6852  0.6962 -2.1194
   11MOL   H218 6638   2.977   4.171   5.989  0.2123 -1.1186  0.7065
   11MOL   H219 6639   2.751   4.249   5.794  1.0036 -1.0142 -1.0894
   11MOL   H220 6640   2.804   4.356   5.920  0.6303  0.0902  0.9844
   11MOL   H221 6641   2.985   4.239   5.704  0.7518  0.0423  0.8599
   11MOL   H222 6642   3.029   4.353   5.823  0.2047 -0.2189  0.4478
   11MOL   H223 6643   2.867   4.523   5.759 -1.0815 -0.7160  1.4415
   11MOL   H224 6644   2.805   4.425   5.623 -0.3995 -1.2271  1.1021
   11MOL   H225 6645   3.088   4.539   5.661 -1.3673 -0.0207  2.1345
   11MOL   C226 6646   3.025   4.502   5.476  0.4948 -0.2254  0.0890
   11MOL   O227 6647   2.941   4.451   5.409 -0.1551  0.4229 -0.0635
   11MOL   C228 6648   3.161   4.547   5.417 -0.0333 -0.1873  0.6505
   11MOL   C229 6649   3.198   4.500   5.273  0.0003 -1.0404 -0.2465
   11MOL   C230 6650   3.234   4.347   5.255 -0.0399 -0.3122  0.2234
   11MOL   C231 6651   3.382   4.323   5.268  0.6898  0.0987  0.1977
   11MOL   C232 6652   3.445   4.350   5.404 -0.5063  0.0628  0.2896
   11MOL   O233 6653   3.418   4.285   5.501  0.6666 -0.8025 -0.1741
   11MOL   N234 6654   3.536   4.446   5.399 -0.7270  0.1899  0.3965
   11MOL   C235 6655   3.609   4.492   5.514  0.5286  0.2687 -0.6957
   11MOL   C236 6656   3.660   4.635   5.499 -0.2577 -0.9656  0.9067
   11MOL   C237 6657   3.762   4.679   5.603  0.4308  0.6506  0.3393
   11MOL   C238 6658   3.794   4.829   5.606  0.0828  0.1080 -0.4232
   11MOL   N239 6659   3.685   4.916   5.634  0.5161 -0.4866 -0.2933
   11MOL   H240 6660   3.170   4.655   5.434 -1.3309  0.3139 -1.6988
   11MOL   H241 6661   3.249   4.513   5.472 -1.0810  0.9666  3.1529
   11MOL   H242 6662   3.117   4.521   5.203 -1.8633 -1.8007  1.6241
   11MOL   H243 6663   3.278   4.566   5.239  0.0717 -1.1127 -0.2180
   11MOL   H244 6664   3.211   4.300   5.159  1.7105 -1.5725  0.3994
   11MOL   H245 6665   3.182   4.284   5.327  0.1004 -0.8167 -0.1107
   11MOL   H246 6666   3.429   4.389   5.195  0.3320  0.8170  0.6020
   11MOL   H247 6667   3.412   4.227   5.226  0.0642 -0.4739  1.0474
   11MOL   H248 6668   3.561   4.490   5.311 -0.3453 -1.1128 -0.1645
   11MOL   H249 6669   3.692   4.421   5.524  0.0490 -0.2844 -0.6475
   11MOL   H250 6670   3.552   4.479   5.606  1.8401  0.5289  0.1750
   11MOL   H251 6671   3.722   4.638   5.410 -0.0185 -1.2943  1.0600
   11MOL   H252 6672   3.577   4.706   5.497  0.5292 -0.0274  1.2381
   11MOL   H253 6673   3.852   4.621   5.584  0.9133  0.9597  1.6680
   11MOL   H254 6674   3.739   4.659   5.708 -0.7300 -1.7378 -0.3188
   11MOL   H255 6675   3.823   4.869   5.509 -0.9136  1.9523  0.0197
   11MOL   H256 6676   3.860   4.864   5.685  0.3103  0.6566 -0.8512
   11MOL   H257 6677   3.670   4.922   5.733 -0.1990 -2.2240 -0.2805
   11MOL   C258 6678   3.605   4.992   5.558  0.2458  0.7493 -0.0136
   11MOL   O259 6679   3.626   5.001   5.439  0.0722 -0.4963 -0.1142
   11MOL   C260 6680   3.489   5.056   5.626  0.4081 -0.0127  0.5854
   11MOL   C261 6681   3.348   5.054   5.557  0.0365 -0.0510  1.1260
   11MOL   C262 6682   3.277   4.921   5.586  0.6892  0.2929  0.0719
   11MOL   C263 6683   3.126   4.913   5.553 -0.2325 -0.0318  0.5300
   11MOL   C264 6684   3.041   5.003   5.642  0.4058  0.3818  0.1852
   11MOL   O265 6685   2.970   5.094   5.597 -0.6669  0.3917 -0.0446
   11MOL   N266 6686   3.045   4.973   5.770  0.1476  0.6755 -0.6204
   11MOL   C267 6687   2.955   5.043   5.860 -0.8473 -0.2251  0.3156
   11MOL   C268 6688   3.012   5.023   6.001  0.2072 -0.3397  0.5320
   11MOL   C269 6689   2.904   5.043   6.113  0.2267  1.0178 -0.2023
   11MOL   C270 6690   2.880   5.191   6.148 -0.2650 -0.0384  0.1191
   11MOL   N271 6691   2.985   5.253   6.229  0.1035 -0.3779 -0.4329
   11MOL   H272 6692   3.482   5.021   5.730  2.4477 -0.7660  0.4887
   11MOL   H273 6693   3.524   5.159   5.630 -2.3478  0.9384  1.9586
   11MOL   H274 6694   3.283   5.135   5.591  1.1043  1.1726  0.3172
   11MOL   H275 6695   3.354   5.073   5.449 -0.6649  2.2470  1.4606
   11MOL   H276 6696   3.291   4.904   5.693 -0.8581 -0.3193  0.1885
   11MOL   H277 6697   3.334   4.839   5.541 -1.1524  0.0439 -1.8881
   11MOL   H278 6698   3.090   4.810   5.553 -1.7052  0.4700  1.7472
   11MOL   H279 6699   3.123   4.950   5.451 -1.1403 -1.3810  0.0609
   11MOL   H280 6700   3.105   4.900   5.806 -0.0789  0.7302 -0.1177
   11MOL   H281 6701   2.849   5.018   5.856 -0.5166 -2.1444  2.3897
   11MOL   H282 6702   2.959   5.149   5.837  0.9047 -1.0911 -3.7350
   11MOL   H283 6703   3.063   4.928   6.018 -0.9963 -1.2183 -0.6777
   11MOL   H284 6704   3.097   5.091   6.010  0.7611 -0.9156 -0.2088
   11MOL   H285 6705   2.951   4.985   6.194 -0.4520 -0.9682 -1.1905
   11MOL   H286 6706   2.808   4.993   6.099  1.2150 -1.4220  1.2881
   11MOL   H287 6707   2.783   5.218   6.190 -1.0649 -2.4577 -0.0625
   11MOL   H288 6708   2.876   5.251   6.057  1.3631 -0.4272 -0.2320
   11MOL   H289 6709   3.082   5.242   6.202  0.8574  0.4470  1.8345
   11MOL   C290 6710   2.966   5.330   6.337 -0.4927  0.6206 -0.0628
   11MOL   O291 6711   2.861   5.351   6.389  0.1479  0.4945  0.1625
   11MOL   C292 6712   3.093   5.399   6.387  0.2505 -0.1209 -0.8926
   11MOL   C293 6713   3.079   5.486   6.518  0.3302 -0.5187 -0.4737
   11MOL   C294 6714   3.025   5.625   6.473  0.9091  0.4999  0.2086
   11MOL   C295 6715   3.024   5.730   6.584  0.3675  0.0715  0.2583
   11MOL   C296 6716   3.153   5.805   6.615  0.2840 -0.2028 -0.5355
   11MOL   O297 6717   3.238   5.753   6.680  0.7037 -0.1146 -0.6123
   11MOL   N298 6718   3.157   5.932   6.566  0.5042  0.3711  0.4089
   11MOL   C299 6719   3.274   6.015   6.550  0.2819  0.3095 -0.6005
   11MOL   C300 6720   3.267   6.145   6.625 -0.1637  0.0887 -0.6223
   11MOL   C301 6721   3.381   6.237   6.595 -0.5776  0.0362  0.2839
   11MOL   C302 6722   3.359   6.378   6.643 -0.3359 -0.6293 -0.0806
   11MOL   N303 6723   3.467   6.466   6.613  0.1811 -0.5811  0.0263
   11MOL   H304 6724   3.156   5.311   6.403  1.8085  1.2623  0.8657
   11MOL   H305 6725   3.137   5.450   6.302  0.9456 -1.8624 -1.6118
   11MOL   H306 6726   3.013   5.448   6.597  0.8728 -1.5182 -0.4982
   11MOL   H307 6727   3.176   5.492   6.567 -0.1508 -2.1589  0.7419
   11MOL   H308 6728   2.921   5.605   6.449  0.8684 -0.2367  0.9456
   11MOL   H309 6729   3.066   5.667   6.382 -0.7347 -0.2024 -0.8748
   11MOL   H310 6730   2.996   5.698   6.684 -2.8436 -0.1723 -0.6388
   11MOL   H311 6731   2.945   5.802   6.561  0.9701  0.5340 -0.3793
   11MOL   H312 6732   3.069   5.976   6.543 -0.3035  0.1555  2.8530
   11MOL   H313 6733   3.276   6.025   6.441  1.5233 -3.6746 -1.0145
   11MOL   H314 6734   3.364   5.963   6.584 -0.0206  0.2609  0.1217
   11MOL   H315 6735   3.177   6.196   6.588  0.9725  1.3228 -1.7489
   11MOL   H316 6736   3.247   6.124   6.730  0.1609 -0.1776 -0.6145
   11MOL   H317 6737   3.404   6.241   6.488 -1.8612  4.2502  0.0766
   11MOL   H318 6738   3.467   6.206   6.655 -0.8329  1.2900  1.3233
   11MOL   H319 6739   3.347   6.388   6.751 -0.5724 -0.0996 -0.1529
   11MOL   H320 6740   3.266   6.408   6.595 -0.4158  0.0693  0.4989
   11MOL   H321 6741   3.558   6.433   6.641  0.1527 -0.6010  0.0960
   11MOL   C322 6742   3.455   6.573   6.528 -0.0631 -0.3035 -0.5911
   11MOL   O323 6743   3.344   6.613   6.494  0.2196 -0.3684 -0.3599
   11MOL   C324 6744   3.583   6.633   6.466  0.2759 -0.5093 -0.4999
   11MOL   C325 6745   3.632   6.562   6.337  0.0374  0.5562  0.3125
   11MOL   C326 6746   3.722   6.440   6.363  0.5996  0.4596 -0.4329
   11MOL   C327 6747   3.768   6.355   6.245  0.0920 -0.3321  0.3951
   11MOL   C328 6748   3.680   6.237   6.211  0.5167  0.2811  0.0256
   11MOL   O329 6749   3.664   6.156   6.298 -1.0010  0.4461 -0.5202
   11MOL   N330 6750   3.596   6.251   6.110  0.4073 -0.3576  0.0972
   11MOL   C331 6751   3.481   6.165   6.073  0.1999  0.2518 -0.2612
   11MOL   C332 6752   3.426   6.198   5.935  0.5758  0.4762  0.2477
   11MOL   C333 6753   3.287   6.115   5.913  0.0965 -0.2194 -0.1927
   11MOL   C334 6754   3.196   6.176   5.805 -0.3628 -0.0915  0.0488
   11MOL   N335 6755   3.079   6.106   5.765 -0.2930 -0.5637 -0.4266
   11MOL   H336 6756   3.557   6.733   6.431  0.7894 -0.3715 -0.4889
   11MOL   H337 6757   3.655   6.654   6.545  0.2190 -0.5931 -0.4247
   11MOL   H338 6758   3.552   6.524   6.275 -0.8937 -0.9315  2.3774
   11MOL   H339 6759   3.685   6.632   6.272 -0.0825  0.8144  0.4940
   11MOL   H340 6760   3.667   6.372   6.427 -0.2343  2.0340  0.5416
   11MOL   H341 6761   3.806   6.472   6.424  0.7922  2.1072 -1.5211
   11MOL   H342 6762   3.866   6.309   6.261  0.1843 -0.4719 -0.5669
   11MOL   H343 6763   3.776   6.426   6.162  2.2233 -2.0843 -0.9622
   11MOL   H344 6764   3.615   6.334   6.055  2.2697 -1.8509 -1.6108
   11MOL   H345 6765   3.407   6.183   6.151  1.6807  0.1406  1.1945
   11MOL   H346 6766   3.512   6.061   6.074 -2.4123 -0.5791  0.4790
   11MOL   H347 6767   3.401   6.304   5.938 -0.6908  0.1757  0.6640
   11MOL   H348 6768   3.494   6.187   5.851 -0.0366 -0.1825 -0.1745
   11MOL   H349 6769   3.235   6.110   6.009 -1.3461  3.0488 -0.7418
   11MOL   H350 6770   3.300   6.009   5.892  0.5644 -0.2231  0.1221
   11MOL   H351 6771   3.259   6.196   5.718  0.2217 -1.2212  0.2096
   11MOL   H352 6772   3.166   6.275   5.839  2.1809  0.4914  0.6676
   11MOL   H353 6773   3.091   6.038   5.692  1.2387 -0.2231 -0.5168
   11MOL   C354 6774   2.956   6.118   5.825 -0.3993  0.3681 -0.5854
   11MOL   O355 6775   2.933   6.189   5.928 -0.2144 -0.1123  0.2581
   11MOL   C356 6776   2.838   6.048   5.757 -0.3874  0.3178  0.4873
   11MOL   C357 6777   2.695   6.093   5.799  0.4387  0.2706  0.5447
   11MOL   C358 6778   2.589   5.996   5.751 -0.2742  0.4848  0.1054
   11MOL   C359 6779   2.582   5.881   5.860  0.5775 -0.6503  0.4462
   11MOL   C360 6780   2.482   5.768   5.828  0.1974 -0.0701 -0.3253
   11MOL   O361 6781   2.534   5.660   5.809 -0.3354  0.8650 -0.0573
   11MOL   N362 6782   2.349   5.788   5.829  0.1030 -0.1485  0.3317
   11MOL   C363 6783   2.246   5.687   5.853 -0.1154 -0.1861  0.0399
   11MOL   C364 6784   2.146   5.737   5.959 -0.2303 -0.0058  0.0022
   11MOL   C365 6785   2.016   5.658   5.959  0.0799  0.8233  0.3764
   11MOL   C366 6786   2.035   5.512   5.998  0.2859 -0.0463 -0.0555
   11MOL   N367 6787   2.119   5.497   6.122 -0.1342 -0.0028  0.3049
   11MOL   H368 6788   2.848   6.052   5.648  1.7410  2.1889  0.7323
   11MOL   H369 6789   2.859   5.944   5.782 -0.9749 -0.7163 -2.9696
   11MOL   H370 6790   2.692   6.111   5.906  2.8694  0.3965  0.6154
   11MOL   H371 6791   2.672   6.191   5.757  0.5072 -0.4722 -1.2972
   11MOL   H372 6792   2.607   5.962   5.649 -0.4496 -1.9550  0.8590
   11MOL   H373 6793   2.496   6.053   5.740  0.6302  2.0297  0.3097
   11MOL   H374 6794   2.569   5.932   5.955  0.9641  0.2183  0.0368
   11MOL   H375 6795   2.682   5.839   5.858  0.7468 -0.2386  0.1147
   11MOL   H376 6796   2.307   5.879   5.839 -0.3266 -0.5016  2.0463
   11MOL   H377 6797   2.290   5.593   5.887 -0.5104 -0.8553 -1.2611
   11MOL   H378 6798   2.194   5.675   5.758  0.1028  1.6872 -0.3319
   11MOL   H379 6799   2.199   5.741   6.055  0.2794 -0.7843 -0.2422
   11MOL   H380 6800   2.122   5.838   5.925 -1.3812 -0.8730 -1.7985
   11MOL   H381 6801   1.971   5.668   5.860 -0.9870 -0.8046  0.6760
   11MOL   H382 6802   1.948   5.702   6.032 -0.7189  0.2110  0.0215
   11MOL   H383 6803   2.079   5.446   5.923  1.2215  0.2889  0.1897
   11MOL   H384 6804   1.933   5.480   6.021  0.3872 -1.1039 -1.0067
   11MOL   H385 6805   2.169   5.581   6.151  1.0954 -1.0762  1.3741
   11MOL   C386 6806   2.133   5.386   6.188 -0.0939  0.1143 -0.5709
   11MOL   O387 6807   2.067   5.292   6.146 -0.2382  0.1365  0.0345
   11MOL   C388 6808   2.230   5.378   6.310 -0.5012 -0.2558 -0.6189
   11MOL   C389 6809   2.299   5.237   6.326  0.4415  0.5486  0.3443
   11MOL   C390 6810   2.374   5.185   6.204 -0.5281 -0.2152 -0.2858
   11MOL   C391 6811   2.502   5.258   6.168 -0.5977  0.1011 -0.5093
   11MOL   C392 6812   2.558   5.227   6.027 -0.8463  0.1473 -0.0244
   11MOL   O393 6813   2.571   5.111   5.982 -0.1533  0.3541  0.2894
   11MOL   N394 6814   2.606   5.326   5.954 -0.5733  0.0494  0.6105
   11MOL   C395 6815   2.672   5.308   5.829 -0.3223  0.0852 -0.0149
   11MOL   C396 6816   2.591   5.224   5.722  0.2714 -0.0509  0.5552
   11MOL   C397 6817   2.446   5.268   5.716 -0.3911 -0.1399 -0.0766
   11MOL   C398 6818   2.369   5.207   5.596 -0.1651 -0.6270 -0.0041
   11MOL   N399 6819   2.228   5.216   5.618  0.3250 -0.2129  0.2573
   11MOL   H400 6820   2.299   5.462   6.301  0.4951 -0.5608  3.2532
   11MOL   H401 6821   2.172   5.413   6.395 -1.9872  2.0541 -2.5249
   11MOL   H402 6822   2.363   5.247   6.413 -1.1764  4.6136  1.1937
   11MOL   H403 6823   2.228   5.157   6.347  2.2566 -0.9378  0.9261
   11MOL   H404 6824   2.314   5.183   6.113  0.0221  1.0250 -0.6842
   11MOL   H405 6825   2.401   5.080   6.216 -0.8068 -0.3607 -0.9067
   11MOL   H406 6826   2.568   5.236   6.252 -1.9587  0.8629  0.7783
   11MOL   H407 6827   2.487   5.366   6.172  2.8547  0.6521 -0.9755
   11MOL   H408 6828   2.606   5.421   5.988  1.5451  0.1337  0.4320
   11MOL   H409 6829   2.777   5.282   5.842 -0.4491 -0.0989  0.6619
   11MOL   H410 6830   2.675   5.415   5.810  1.1096  0.0900  0.1351
   11MOL   H411 6831   2.639   5.247   5.627 -1.1672 -1.4803 -0.5478
   11MOL   H412 6832   2.607   5.117   5.727  1.5990  0.1392  0.3631
   11MOL   H413 6833   2.431   5.375   5.705  2.8465  0.1335 -2.3855
   11MOL   H414 6834   2.396   5.241   5.809 -0.6434 -1.7909 -0.6698
   11MOL   H415 6835   2.406   5.106   5.581 -2.3066 -1.0491 -2.9936
   11MOL   H416 6836   2.395   5.258   5.503 -2.2166  0.4039 -0.0364
   11MOL   H417 6837   2.181   5.128   5.632  1.5234 -0.6685  1.5089
   11MOL   C418 6838   2.151   5.326   5.609  0.8582  1.1186  0.0519
   11MOL   O419 6839   2.197   5.435   5.589  0.2735 -0.5850  0.6207
   11MOL   C420 6840   1.997   5.304   5.618  0.2358 -0.1980  0.2453
   11MOL   C421 6841   1.915   5.430   5.574 -0.5452 -0.0593  0.3778
   11MOL   C422 6842   1.761   5.418   5.594  0.3974  0.2407 -0.1143
   11MOL   C423 6843   1.684   5.529   5.525 -0.1327  0.2384  0.1668
   11MOL   C424 6844   1.539   5.526   5.573 -0.4089  0.2522  0.6891
   11MOL   O425 6845   1.461   5.440   5.522  0.3846 -0.4808  0.4782
   11MOL   N426 6846   1.504   5.622   5.654  0.4797 -0.0575  1.0165
   11MOL   C427 6847   1.376   5.657   5.695  0.1479 -1.1452 -0.8406
   11MOL   C428 6848   1.316   5.556   5.790 -0.4118  0.0477 -0.0976
   11MOL   C429 6849   1.163   5.562   5.815 -0.4263  1.1637  0.0275
   11MOL   C430 6850   1.071   5.547   5.685  0.2461  0.6850  0.0705
   11MOL   N431 6851   0.924   5.537   5.715  0.8521 -0.1143  0.5556
   11MOL   H432 6852   1.965   5.223   5.552 -2.2372 -0.6454  1.9146
   11MOL   H433 6853   1.984   5.281   5.724 -1.2380  0.0519  0.1362
   11MOL   H434 6854   1.951   5.513   5.634  2.6179 -1.5473  0.6068
   11MOL   H435 6855   1.948   5.458   5.474 -0.4622  0.9256  0.6775
   11MOL   H436 6856   1.739   5.414   5.700  0.2494  0.7767 -0.1218
   11MOL   H437 6857   1.718   5.331   5.544 -0.3019  0.8528 -0.5821
   11MOL   H438 6858   1.684   5.519   5.417 -0.4276  2.5864 -0.0824
   11MOL   H439 6859   1.727   5.626   5.552  0.9751 -0.8913  2.5832
   11MOL   H440 6860   1.584   5.675   5.686 -1.5717  3.1752  1.0053
   11MOL   H441 6861   1.308   5.678   5.612 -0.2315 -2.5665 -0.8999
   11MOL   H442 6862   1.387   5.750   5.751 -0.4957 -1.1298 -0.7331
   11MOL   H443 6863   1.338   5.453   5.762  0.2386  0.2051 -0.1547
   11MOL   H444 6864   1.368   5.565   5.885 -1.3425 -0.1592  0.4450
   11MOL   H445 6865   1.149   5.663   5.853 -0.9126  0.4339  1.8226
   11MOL   H446 6866   1.133   5.487   5.889  0.7371 -0.7264 -1.3588
   11MOL   H447 6867   1.107   5.468   5.620  2.7049  0.2621  1.8375
   11MOL   H448 6868   1.094   5.641   5.635 -1.2101  0.6526 -0.6757
   11MOL   H449 6869   0.881   5.446   5.702 -0.7437  1.0589 -2.9803
   11MOL   C450 6870   0.854   5.637   5.774 -0.3972 -0.3133 -0.3198
   11MOL   O451 6871   0.893   5.756   5.779 -0.2888  0.1319  0.2229
   11MOL   C452 6872   0.717   5.596   5.813  0.6246  0.6389  0.1506
   11MOL   C453 6873   0.615   5.710   5.819  0.4956 -0.1358 -0.7528
   11MOL   C454 6874   0.596   5.778   5.956 -0.5421  0.2445  0.0168
   11MOL   C455 6875   0.708   5.879   6.004 -0.1500 -0.2026 -0.1933
   11MOL   C456 6876   0.707   6.018   5.948  0.1561 -0.1823  0.5963
   11MOL   O457 6877   0.653   6.038   5.836 -0.0409 -0.1965 -0.9007
   11MOL   N458 6878   0.781   6.109   6.007 -0.1086  0.6437  0.4757
   11MOL   C459 6879   0.780   6.245   5.974 -0.4103  0.5031  0.5028
   11MOL   C460 6880   0.910   6.297   5.904  0.0647  0.2414 -0.2839
   11MOL   C461 6881   0.949   6.248   5.765 -0.7159 -0.1234 -0.0022
   11MOL   C462 6882   1.020   6.112   5.741  0.0148  0.0499 -0.2939
   11MOL   N463 6883   1.164   6.115   5.761 -0.0383  0.8547  0.4424
   11MOL   H464 6884   0.686   5.517   5.745 -0.4447  0.5103  0.7719
   11MOL   H465 6885   0.720   5.544   5.909 -0.2320 -0.7465 -0.5670
   11MOL   H466 6886   0.630   5.776   5.733 -1.4066  0.1353 -0.9154
   11MOL   H467 6887   0.517   5.663   5.805 -0.0247  1.0612 -1.1685
   11MOL   H468 6888   0.584   5.704   6.035  1.7358 -0.4100 -0.2115
   11MOL   H469 6889   0.502   5.832   5.964 -1.1080 -0.9854  2.0994
   11MOL   H470 6890   0.809   5.848   5.978 -0.3214  0.1051 -1.2352
   11MOL   H471 6891   0.698   5.872   6.113 -1.1580  0.3183 -0.2428
   11MOL   H472 6892   0.823   6.087   6.096  0.5719  1.7792  0.4541
   11MOL   H473 6893   0.760   6.310   6.059 -1.3825  0.0924  0.5912
   11MOL   H474 6894   0.705   6.271   5.899  2.6866  0.2401 -2.8222
   11MOL   H475 6895   0.917   6.405   5.906 -0.2721  0.2745 -0.7936
   11MOL   H476 6896   0.993   6.252   5.960  0.0252  0.1085 -0.3311
   11MOL   H477 6897   1.002   6.332   5.720  0.0923 -1.1982 -1.0810
   11MOL   H478 6898   0.853   6.250   5.713  0.3351  2.2175 -1.9577
   11MOL   H479 6899   0.991   6.063   5.648  2.3638  0.9285 -1.5216
   11MOL   H480 6900   0.968   6.038   5.802  1.9678 -1.5803 -0.5300
   11MOL   H481 6901   1.204   6.186   5.821 -0.0952  1.3731 -0.1171
   11MOL   C482 6902   1.248   6.028   5.709  0.4677  0.3460 -0.2906
   11MOL   O483 6903   1.210   5.942   5.626 -0.9801  0.0616 -0.7959
   11MOL   C484 6904   1.394   6.050   5.741  0.1034 -0.3868  0.5911
   11MOL   C485 6905   1.460   6.144   5.633  0.4595  0.7518  0.1124
   11MOL   C486 6906   1.528   6.075   5.525 -0.4910  0.7226  0.6066
   11MOL   C487 6907   1.613   6.168   5.446  0.0275 -0.6859 -0.1974
   11MOL   C488 6908   1.530   6.246   5.352 -0.2550 -0.7227 -1.0007
   11MOL   O489 6909   1.478   6.352   5.388  0.4806  0.5479  0.3510
   11MOL   N490 6910   1.520   6.205   5.223 -0.3138 -0.0357 -0.2848
   11MOL   C491 6911   1.438   6.266   5.128 -0.1176 -0.0463 -0.4002
   11MOL   C492 6912   1.399   6.181   5.002 -0.1227  0.8233 -0.9069
   11MOL   C493 6913   1.299   6.069   5.019 -0.1430  0.0673 -0.4788
   11MOL   C494 6914   1.275   5.983   4.897  0.0122  0.4796  0.5450
   11MOL   N495 6915   1.181   5.875   4.924  0.4176  0.0565 -0.1309
   11MOL   H496 6916   1.402   6.088   5.842 -2.5387  2.1910 -0.0879
   11MOL   H497 6917   1.439   5.952   5.750 -0.8553 -0.6888  2.1829
   11MOL   H498 6918   1.386   6.211   5.590  0.2952  0.2551 -0.3780
   11MOL   H499 6919   1.539   6.196   5.688  0.7436  0.4843 -0.0410
   11MOL   H500 6920   1.457   6.028   5.457 -1.2754  1.7673  0.7093
   11MOL   H501 6921   1.588   5.993   5.567  1.9091  2.5861  0.9194
   11MOL   H502 6922   1.688   6.110   5.394 -0.2857 -0.7605 -0.5658
   11MOL   H503 6923   1.661   6.244   5.508 -2.5211  0.8582 -0.0392
   11MOL   H504 6924   1.567   6.122   5.191 -0.7777 -0.4109  0.0015
   11MOL   H505 6925   1.502   6.341   5.081 -0.3789  0.8451  0.6681
   11MOL   H506 6926   1.351   6.313   5.174  0.1663 -0.9277  1.0606
   11MOL   H507 6927   1.367   6.252   4.926  1.9699  2.2883 -0.4459
   11MOL   H508 6928   1.478   6.128   4.950 -0.9858 -1.0976 -0.3393
   11MOL   H509 6929   1.198   6.099   5.049  0.1870  0.6254  0.0833
   11MOL   H510 6930   1.331   6.016   5.109  1.5340 -0.2204 -1.2362
   11MOL   H511 6931   1.369   5.930   4.883 -0.4084 -0.1647  0.1265
   11MOL   H512 6932   1.242   6.032   4.806 -1.2319 -1.5828 -0.1444
   11MOL   H513 6933   1.152   5.854   5.019 -1.5219 -0.8341 -0.9095
   11MOL   C514 6934   1.131   5.792   4.829  0.3233 -0.1487 -0.1779
   11MOL   O515 6935   1.160   5.794   4.706 -0.5911 -0.2373  0.2432
   11MOL   C516 6936   1.017   5.695   4.863  0.0326  0.0072  0.0243
   11MOL   C517 6937   0.880   5.750   4.822 -0.7770 -0.1048  0.0732
   11MOL   C518 6938   0.814   5.842   4.933  0.4317  0.5004  0.2495
   11MOL   C519 6939   0.665   5.870   4.936  0.3515  0.1394 -0.2413
   11MOL   C520 6940   0.577   5.749   4.931 -0.6875 -0.8518  0.2498
   11MOL   O521 6941   0.592   5.647   5.000 -0.5824 -0.2548 -0.8215
   11MOL   N522 6942   0.468   5.761   4.863  0.4879  0.1247  0.1764
   11MOL   C523 6943   0.368   5.656   4.849  0.1408 -0.2216 -0.0368
   11MOL   C524 6944   0.248   5.669   4.944  0.8211  0.1477 -0.3493
   11MOL   C525 6945   0.145   5.561   4.911  0.5823 -0.1279 -0.2630
   11MOL   C526 6946   0.009   5.596   4.968 -0.3169  0.0040 -0.2887
   11MOL   N527 6947   7.623   5.479   4.962  0.2175  0.4630  0.3773
   11MOL   H528 6948   1.045   5.609   4.801 -1.6844  0.7007 -1.7819
   11MOL   H529 6949   1.017   5.665   4.967  3.3091  0.4675  0.2314
   11MOL   H530 6950   0.886   5.788   4.720 -0.2172  0.1745  0.2096
   11MOL   H531 6951   0.812   5.665   4.829 -1.2232  0.0468 -2.1707
   11MOL   H532 6952   0.856   5.941   4.946  0.4528  0.5553 -0.2389
   11MOL   H533 6953   0.846   5.797   5.027  0.2363 -2.1877 -0.9068
   11MOL   H534 6954   0.637   5.923   4.845 -1.1214  0.7343  0.5435
   11MOL   H535 6955   0.633   5.912   5.032 -1.7045 -2.8643  0.4385
   11MOL   H536 6956   0.445   5.843   4.808  1.6172 -0.3288 -0.9887
   11MOL   H537 6957   0.408   5.557   4.870  2.1192  0.0191 -2.4407
   11MOL   H538 6958   0.331   5.663   4.746 -0.9701  0.7318  0.4057
   11MOL   H539 6959   0.284   5.648   5.045  1.3880  1.6782 -0.2271
   11MOL   H540 6960   0.228   5.775   4.931  0.9529  0.4940  2.0084
   11MOL   H541 6961   0.178   5.468   4.957  1.0639 -0.4821 -1.3018
   11MOL   H542 6962   0.138   5.544   4.803  1.4926 -1.2316 -0.1556
   11MOL   H543 6963   7.667   5.669   4.899  2.9159  1.3390 -0.9878
   11MOL   H544 6964   0.008   5.634   5.070  2.4180  1.1557 -0.6346
   11MOL   H545 6965   7.667   5.392   4.987  1.1206  0.0869 -2.4015
   11MOL   C546 6966   7.486   5.483   4.939  0.6136 -0.0631  0.0754
   11MOL   O547 6967   7.425   5.577   4.895  0.2784 -0.6299 -0.5502
   11MOL   C548 6968   7.418   5.349   4.966  0.1344 -0.0571 -0.0038
   11MOL   C549 6969   7.261   5.348   4.952  0.2210 -0.0986 -0.8366
   11MOL   C550 6970   7.218   5.335   4.807  0.2528 -0.6460 -0.3218
   11MOL   C551 6971   7.146   5.204   4.763 -0.0182 -0.2210 -0.7899
   11MOL   C552 6972   7.212   5.074   4.803 -0.1764 -0.2454  0.7640
   11MOL   O553 6973   7.163   5.009   4.892  0.0593  0.0670  0.5519
   11MOL   N554 6974   7.335   5.050   4.752  0.1398 -0.2723 -0.2023
   11MOL   C555 6975   7.439   4.978   4.829  0.2648 -0.0661 -0.2624
   11MOL   C556 6976   7.568   4.970   4.756 -0.0696 -0.0511 -0.1004
   11MOL   C557 6977   7.665   4.859   4.803 -0.9041 -0.4762  0.5767
   11MOL   C558 6978   0.093   4.860   4.717 -0.0254 -0.0909 -0.3477
   11MOL   N559 6979   0.057   4.834   4.575 -0.1844 -0.4851 -0.1229
   11MOL   H560 6980   7.465   5.266   4.913 -0.0794  0.9182 -1.7694
   11MOL   H561 6981   7.431   5.333   5.073 -1.5085  2.3090  0.5800
   11MOL   H562 6982   7.216   5.273   5.018 -1.7369  0.5100 -1.4546
   11MOL   H563 6983   7.218   5.440   4.990  1.1011  0.5299 -1.3601
   11MOL   H564 6984   7.297   5.354   4.734  1.0286  0.9577  0.9276
   11MOL   H565 6985   7.159   5.421   4.775  1.7026  0.2058 -0.7750
   11MOL   H566 6986   7.134   5.206   4.654 -0.1294  1.3834 -0.7575
   11MOL   H567 6987   7.053   5.204   4.819 -0.1844 -0.0872 -1.0654
   11MOL   H568 6988   7.364   5.111   4.676  1.3328  1.4648  1.5922
   11MOL   H569 6989   7.404   4.880   4.863 -0.9470  0.0651 -1.1064
   11MOL   H570 6990   7.440   5.024   4.928 -2.0249 -0.7225  0.0898
   11MOL   H571 6991   7.547   4.957   4.650 -1.1589 -0.1778  0.1185
   11MOL   H572 6992   7.626   5.061   4.766 -0.9466  0.4173  0.8760
   11MOL   H573 6993   7.615   4.763   4.802 -0.7766 -0.5429  0.4114
   11MOL   H574 6994   7.693   4.886   4.905 -0.3847 -2.0224  0.8437
   11MOL   H575 6995   0.156   4.783   4.762  1.7636  0.4479 -1.8822
   11MOL   H576 6996   0.151   4.950   4.735 -1.1659  0.1107  2.4432
   11MOL   H577 6997   0.049   4.911   4.510  0.3068 -1.4756 -1.3764
   11MOL   C578 6998   0.049   4.713   4.515  0.0118  0.1172  0.3489
   11MOL   O579 6999   0.052   4.604   4.588  0.0460 -0.1368  0.4515
   11MOL   C580 7000   0.008   4.698   4.363 -0.4429 -0.0224 -0.0171
   11MOL   C581 7001   0.123   4.725   4.266 -0.3188 -0.6989 -0.6598
   11MOL   C582 7002   0.227   4.613   4.252 -0.1709 -0.0828 -0.5143
   11MOL   C583 7003   0.328   4.634   4.135  0.4013 -0.5817  0.7211
   11MOL   C584 7004   0.261   4.632   3.998  0.0038 -0.2488  0.0379
   11MOL   O585 7005   0.234   4.520   3.945  0.7413 -0.8185  0.3095
   11MOL   N586 7006   0.239   4.748   3.947 -0.6696 -0.9101  0.2301
   11MOL   C587 7007   0.196   4.775   3.809 -0.2450  0.4674 -0.7586
   11MOL   C588 7008   0.139   4.919   3.791  0.1810  0.7772  0.6062
   11MOL   C589 7009   0.127   4.963   3.643  0.2638 -0.9189 -0.7746
   11MOL   C590 7010   0.242   5.063   3.606  1.0794 -1.0078  0.1658
   11MOL   N591 7011   0.213   5.117   3.479 -0.2905 -0.0828 -0.2726
   11MOL   H592 7012   7.673   4.595   4.359 -0.9714  0.1536  0.1603
   11MOL   H593 7013   7.621   4.757   4.337 -0.6432 -0.4728 -0.3541
   11MOL   H594 7014   0.073   4.745   4.171 -1.2923  4.6682  0.8249
   11MOL   H595 7015   0.174   4.815   4.301 -2.3051  0.2308 -0.0623
   11MOL   H596 7016   0.183   4.513   4.244 -1.6289  0.6476 -2.0422
   11MOL   H597 7017   0.284   4.608   4.344 -0.9555 -1.1608 -0.0794
   11MOL   H598 7018   0.387   4.542   4.131 -0.9046 -1.3494 -2.0523
   11MOL   H599 7019   0.392   4.720   4.152 -0.6364 -0.1619  2.7058
   11MOL   H600 7020   0.265   4.821   4.012 -2.8681  0.5233 -0.4273
   11MOL   H601 7021   0.115   4.714   3.768  1.0899  0.5835 -3.7088
   11MOL   H602 7022   0.282   4.757   3.744  0.8088 -0.5693  0.8993
   11MOL   H603 7023   0.035   4.911   3.824 -0.2757  1.4954 -0.6303
   11MOL   H604 7024   0.179   4.996   3.857  0.1650  1.3469 -0.0530
   11MOL   H605 7025   0.028   5.005   3.622  0.0708 -1.0130 -0.0528
   11MOL   H606 7026   0.139   4.877   3.577 -2.4410 -1.8442 -0.1032
   11MOL   H607 7027   0.342   5.020   3.599  1.1847 -0.5263 -1.4325
   11MOL   H608 7028   0.258   5.141   3.680 -0.3189 -1.2741  0.7537
   11MOL   H609 7029   0.180   5.057   3.404 -0.0379 -0.3017 -0.2110
   11MOL   C610 7030   0.213   5.244   3.447  0.9246 -1.0682 -0.0302
   11MOL   O611 7031   0.217   5.332   3.531  0.1349 -0.3227  0.4396
   11MOL   C612 7032   0.211   5.282   3.300  0.0076 -1.1420  0.4761
   11MOL   C613 7033   0.239   5.430   3.272  0.1834 -0.9345  0.0733
   11MOL   C614 7034   0.288   5.463   3.129 -0.0449  0.1453  0.5763
   11MOL   C615 7035   0.268   5.612   3.091 -0.0461  0.6115 -0.0511
   11MOL   C616 7036   0.121   5.658   3.074  0.2092  0.2716 -0.0934
   11MOL   O617 7037   0.027   5.577   3.079  0.0573 -0.6763 -0.1493
   11MOL   N618 7038   0.108   5.790   3.046 -0.0169 -0.4689  0.8345
   11MOL   C619 7039   7.681   5.854   3.016  0.1833 -0.2681  0.1141
   11MOL   C620 7040   7.684   5.932   2.892 -0.5092 -0.7480 -0.1001
   11MOL   C621 7041   7.548   5.958   2.826  0.5381 -0.1292 -0.2257
   11MOL   C622 7042   7.556   6.045   2.707  0.1722 -0.2373  0.4146
   11MOL   N623 7043   7.614   5.965   2.606  0.0615 -0.4628  0.8927
   11MOL   H624 7044   0.289   5.228   3.248  1.7365  1.5745  0.1414
   11MOL   H625 7045   0.113   5.265   3.254  0.1508  0.2092 -0.3790
   11MOL   H626 7046   0.148   5.489   3.284  1.5784  0.9286  1.8809
   11MOL   H627 7047   0.306   5.472   3.347  0.7353 -1.0974 -0.3293
   11MOL   H628 7048   0.243   5.389   3.063 -1.3013 -1.3196  2.9775
   11MOL   H629 7049   0.395   5.445   3.137  0.1633  1.2890  0.4120
   11MOL   H630 7050   0.309   5.614   2.990 -1.4030 -1.5736 -0.6647
   11MOL   H631 7051   0.327   5.687   3.144  0.2787  0.0550  0.3751
   11MOL   H632 7052   0.188   5.845   3.019 -0.9980  0.3447 -0.5120
   11MOL   H633 7053   7.644   5.923   3.092  0.3829  1.4871 -1.3492
   11MOL   H634 7054   7.609   5.772   3.010 -1.5001  1.2096 -0.2662
   11MOL   H635 7055   0.038   6.026   2.902 -1.1677 -0.4886  1.2149
   11MOL   H636 7056   0.043   5.873   2.823 -0.9386  0.7680 -1.8020
   11MOL   H637 7057   7.483   6.006   2.898 -0.4320 -1.2460 -0.3475
   11MOL   H638 7058   7.514   5.855   2.812  1.4380 -0.8290  2.5505
   11MOL   H639 7059   7.623   6.132   2.707  0.2775 -0.2804 -2.4672
   11MOL   H640 7060   7.456   6.086   2.695  0.6553  1.1424  0.9684
   11MOL   H641 7061   0.012   5.986   2.605  0.1347 -0.8124  0.4753
   11MOL   H642 7062   7.577   6.002   2.520  0.2873 -0.9018  0.6022
   12MOL     C1 7063   4.960   3.240   5.624  0.2600  0.6878  0.3808
   12MOL     O2 7064   4.912   3.351   5.605  0.3566 -0.0762  0.0182
   12MOL     C3 7065   5.008   3.145   5.512 -0.1216 -0.3978 -0.3670
   12MOL     C4 7066   5.064   3.215   5.384  0.3987  0.0370  0.0156
   12MOL     C5 7067   5.107   3.105   5.280 -0.1301  0.2358  0.1448
   12MOL     C6 7068   5.230   3.015   5.319  0.1568  0.7978  0.0777
   12MOL     C7 7069   5.351   3.054   5.239 -0.1849  0.3793  0.0779
   12MOL     O8 7070   5.378   3.169   5.225 -0.4224  0.6558 -0.0101
   12MOL     N9 7071   5.420   2.953   5.194  0.0469 -0.7063  0.0303
   12MOL    C10 7072   5.541   2.963   5.112  0.1209 -0.4605 -0.2657
   12MOL    C11 7073   5.586   2.820   5.085  0.7371 -0.2724 -0.5971
   12MOL    C12 7074   5.700   2.821   4.985  0.1245  0.0617 -0.7705
   12MOL    C13 7075   5.723   2.686   4.927  0.1058 -0.5609 -0.1788
   12MOL    N14 7076   5.842   2.682   4.849  0.5014 -0.3214  0.4458
   12MOL    H15 7077   5.086   3.090   5.565 -0.7843 -0.7106  0.2907
   12MOL    H16 7078   4.928   3.075   5.492  0.0687 -1.0402  1.0085
   12MOL    H17 7079   4.991   3.276   5.331 -0.3973 -1.3423 -0.5013
   12MOL    H18 7080   5.137   3.296   5.397 -1.2909  1.6050 -0.0185
   12MOL    H19 7081   5.118   3.157   5.185  0.3081 -0.2270 -0.0615
   12MOL    H20 7082   5.031   3.028   5.268  0.5381 -0.3226 -0.5642
   12MOL    H21 7083   5.192   2.914   5.311  1.0258  0.4124  0.7005
   12MOL    H22 7084   5.260   3.022   5.424 -1.4711  0.4581  0.5682
   12MOL    H23 7085   5.383   2.861   5.209 -0.4421 -0.6809 -1.0480
   12MOL    H24 7086   5.617   3.016   5.170 -0.4840  0.7262 -0.5306
   12MOL    H25 7087   5.520   3.023   5.023  1.7226  0.8234  0.2058
   12MOL    H26 7088   5.611   2.774   5.181  0.3354 -0.0272 -0.3759
   12MOL    H27 7089   5.509   2.756   5.040  0.3241 -2.0376  2.4777
   12MOL    H28 7090   5.784   2.866   5.038 -1.0945  0.1958  1.1108
   12MOL    H29 7091   5.692   2.894   4.904  2.1641  0.4693 -0.6264
   12MOL    H30 7092   5.641   2.647   4.867  1.2684 -1.5432 -1.1643
   12MOL    H31 7093   5.747   2.618   5.009  0.6050  1.0574  1.0360
   12MOL    H32 7094   5.924   2.642   4.893  0.9316 -0.0409 -0.0970
   12MOL    H33 7095   4.964   3.199   5.725  1.0672  0.1153  0.1199
   12MOL    C34 7096   5.852   2.721   4.721  0.0407  0.1768 -0.3650
   12MOL    O35 7097   5.761   2.775   4.663  0.2493 -0.2416  0.4541
   12MOL    C36 7098   5.980   2.687   4.642  0.5055 -0.8910 -0.8250
   12MOL    C37 7099   5.960   2.642   4.489  0.6284  0.0166  0.3867
   12MOL    C38 7100   5.900   2.497   4.476 -0.1147 -0.0007  0.7692
   12MOL    C39 7101   5.903   2.451   4.332  0.0824  0.5038 -0.2753
   12MOL    C40 7102   5.935   2.308   4.302 -0.3862  0.4854 -0.7831
   12MOL    O41 7103   5.980   2.233   4.393  0.4757 -0.2936 -0.0833
   12MOL    N42 7104   5.906   2.272   4.178  0.1375 -0.2366 -0.2250
   12MOL    C43 7105   5.918   2.139   4.109  0.0381  0.0199 -0.3507
   12MOL    C44 7106   5.787   2.058   4.132 -0.0469  0.0796  0.3240
   12MOL    C45 7107   5.759   1.974   4.264 -0.8442 -0.1785 -0.0039
   12MOL    C46 7108   5.627   1.899   4.246 -0.4994 -0.6296  0.1359
   12MOL    N47 7109   5.640   1.807   4.133 -0.0498 -0.2936  0.6713
   12MOL    H48 7110   6.042   2.777   4.642 -2.2556  1.0757 -0.4138
   12MOL    H49 7111   6.031   2.605   4.691  1.8100 -0.5318 -1.5422
   12MOL    H50 7112   5.892   2.701   4.427  1.4513  0.9160  0.3271
   12MOL    H51 7113   6.056   2.638   4.438  0.0705  0.1582 -0.6902
   12MOL    H52 7114   5.795   2.501   4.504 -0.0223  3.2750  0.8121
   12MOL    H53 7115   5.950   2.428   4.544  0.9386  0.3828  0.3949
   12MOL    H54 7116   5.983   2.490   4.270  1.5043 -0.9179  0.6258
   12MOL    H55 7117   5.810   2.479   4.281 -0.0914  0.2329 -0.1136
   12MOL    H56 7118   5.854   2.339   4.125 -1.5901 -1.6763 -0.4032
   12MOL    H57 7119   6.002   2.090   4.157 -1.0315 -1.1568  0.3451
   12MOL    H58 7120   5.928   2.146   4.001  2.3674 -2.8279 -0.3831
   12MOL    H59 7121   5.697   2.118   4.117 -0.5119 -1.0068 -1.4270
   12MOL    H60 7122   5.789   1.982   4.053  0.0448 -1.3710  1.7009
   12MOL    H61 7123   5.750   2.038   4.352  0.8404  1.0080 -0.6730
   12MOL    H62 7124   5.845   1.908   4.279 -0.4979 -0.0120 -1.2062
   12MOL    H63 7125   5.545   1.968   4.230  1.0632  0.5243 -3.2759
   12MOL    H64 7126   5.611   1.846   4.340  0.2690  0.4186  0.8740
   12MOL    H65 7127   5.634   1.839   4.038  1.2752  1.8752  1.2599
   12MOL    C66 7128   5.670   1.678   4.147  0.4430 -0.1197  0.0996
   12MOL    O67 7129   5.688   1.629   4.256  0.1140 -0.7194 -0.0420
   12MOL    C68 7130   5.691   1.597   4.018  0.3130  0.2268 -0.6575
   12MOL    C69 7131   5.839   1.560   3.990 -0.2624  0.6137 -0.2585
   12MOL    C70 7132   5.928   1.684   3.970 -0.3408 -0.3934 -0.0508
   12MOL    C71 7133   6.071   1.646   3.924 -0.4896  0.4194 -0.5083
   12MOL    C72 7134   6.078   1.600   3.781  0.3349 -1.0772  0.7407
   12MOL    O73 7135   6.080   1.484   3.751 -0.1051  0.4993 -0.1529
   12MOL    N74 7136   6.096   1.693   3.686  0.1637  0.4095  0.0764
   12MOL    C75 7137   6.121   1.668   3.540  0.0413  0.3766  0.6156
   12MOL    C76 7138   6.189   1.783   3.464  0.2085  0.0121 -0.1486
   12MOL    C77 7139   6.272   1.730   3.335  0.5256 -0.6083 -0.1531
   12MOL    C78 7140   6.357   1.838   3.273 -0.4460  0.3188  0.2370
   12MOL    N79 7141   6.451   1.770   3.173  0.3491 -0.9932 -0.8474
   12MOL    H80 7142   5.629   1.510   4.036  0.7245 -0.2032 -1.2910
   12MOL    H81 7143   5.655   1.655   3.932  0.5573  0.4525 -0.6079
   12MOL    H82 7144   5.866   1.492   4.071  0.9102  1.0263 -0.2818
   12MOL    H83 7145   5.842   1.492   3.905 -2.2015 -1.2183  1.0818
   12MOL    H84 7146   5.934   1.744   4.060 -1.4388 -0.1373 -0.1386
   12MOL    H85 7147   5.885   1.751   3.895  0.2488  1.4172  1.1959
   12MOL    H86 7148   6.106   1.563   3.985  0.9546  0.1711 -1.6597
   12MOL    H87 7149   6.148   1.722   3.929  1.9252 -2.0701  1.3291
   12MOL    H88 7150   6.100   1.792   3.706 -1.2657  0.7417 -1.1398
   12MOL    H89 7151   6.037   1.631   3.480 -0.4252  0.9479  0.9051
   12MOL    H90 7152   6.181   1.578   3.547 -1.4032 -0.9896 -3.0561
   12MOL    H91 7153   6.120   1.866   3.449 -1.1975 -1.2638 -0.9122
   12MOL    H92 7154   6.266   1.817   3.532  1.5857 -1.9259 -0.6963
   12MOL    H93 7155   6.204   1.689   3.260 -0.1593  0.7126 -0.2915
   12MOL    H94 7156   6.326   1.643   3.370  1.0526 -0.2629 -0.1067
   12MOL    H95 7157   6.421   1.895   3.342 -0.6650  0.5006  0.2907
   12MOL    H96 7158   6.301   1.921   3.231 -0.5527  1.4476  2.5048
   12MOL    H97 7159   6.544   1.749   3.208  0.7848  2.0689  0.0425
   12MOL    C98 7160   6.407   1.730   3.053  0.4732 -0.2241 -0.5996
   12MOL    O99 7161   6.294   1.751   3.005  0.5740  0.1305 -0.1644
   12MOL   C100 7162   6.509   1.656   2.974 -0.3745 -0.2318  0.6805
   12MOL   C101 7163   6.451   1.557   2.866  0.2600  0.2308 -0.1396
   12MOL   C102 7164   6.545   1.440   2.848  0.2546  0.7177  0.1803
   12MOL   C103 7165   6.482   1.336   2.758  0.7242 -0.2403  0.3301
   12MOL   C104 7166   6.584   1.225   2.733 -0.1881 -0.3472  0.2733
   12MOL   O105 7167   6.666   1.225   2.643  0.0079  0.2732 -0.1028
   12MOL   N106 7168   6.579   1.122   2.818 -0.4094 -0.3884 -0.0524
   12MOL   C107 7169   6.666   1.006   2.804 -0.2170  0.6237 -0.1474
   12MOL   C108 7170   6.643   0.893   2.909 -0.1572  0.2450 -0.1410
   12MOL   C109 7171   6.727   0.773   2.888  0.0587 -0.2012  0.0832
   12MOL   C110 7172   6.667   0.651   2.969  0.0883  0.4247 -0.4599
   12MOL   N111 7173   6.548   0.601   2.912 -0.3967  0.1334 -0.4610
   12MOL   H112 7174   6.586   1.720   2.931 -0.8793 -0.8193 -1.1617
   12MOL   H113 7175   6.569   1.596   3.043  3.2309  2.3303 -0.1187
   12MOL   H114 7176   6.358   1.507   2.893  1.1853 -0.2879  2.1857
   12MOL   H115 7177   6.427   1.619   2.779  2.5607  0.6280 -0.5250
   12MOL   H116 7178   6.572   1.383   2.937 -0.9376 -0.5656 -0.2530
   12MOL   H117 7179   6.635   1.475   2.798  0.2275  3.3618  1.9006
   12MOL   H118 7180   6.452   1.365   2.657 -0.1237  0.9818  0.9189
   12MOL   H119 7181   6.390   1.296   2.799  1.6148 -2.4473  0.2574
   12MOL   H120 7182   6.518   1.122   2.899 -2.1684 -0.7256 -1.3524
   12MOL   H121 7183   6.770   1.036   2.807  0.7785 -2.7621  3.7385
   12MOL   H122 7184   6.644   0.967   2.705 -0.4616 -0.9651  0.5068
   12MOL   H123 7185   6.657   0.933   3.010  0.1926 -1.5260  0.5284
   12MOL   H124 7186   6.537   0.876   2.892 -0.6650  2.1124  0.9563
   12MOL   H125 7187   6.828   0.796   2.921 -0.4599  0.3787  1.2818
   12MOL   H126 7188   6.717   0.736   2.786 -0.3816 -0.3192  0.1692
   12MOL   H127 7189   6.651   0.672   3.075  2.6772  1.7308 -0.2952
   12MOL   H128 7190   6.743   0.573   2.976 -1.2886 -0.8612  0.7505
   12MOL   H129 7191   6.548   0.589   2.811  0.3431 -3.4795 -0.1075
   12MOL   C130 7192   6.428   0.593   2.966 -0.5813  1.4068 -0.6501
   12MOL   O131 7193   6.405   0.633   3.081 -0.3017 -0.4530 -0.6274
   12MOL   C132 7194   6.313   0.543   2.876  0.6058 -0.3841 -0.2747
   12MOL   C133 7195   6.297   0.393   2.877 -0.5161 -0.1566 -0.7144
   12MOL   C134 7196   6.187   0.345   2.783  0.2524 -0.6343  0.9429
   12MOL   C135 7197   6.171   0.194   2.773  0.3477  0.0779 -0.3263
   12MOL   C136 7198   6.310   0.131   2.739  0.3518  0.1156 -0.0444
   12MOL   O137 7199   6.396   0.111   2.827 -0.0699 -0.2650 -0.1887
   12MOL   N138 7200   6.338   0.095   2.617 -0.0404 -0.2076  0.5734
   12MOL   C139 7201   6.468   0.046   2.573  0.0355 -0.1323 -0.4162
   12MOL   C140 7202   6.459   7.662   2.439 -0.8290 -0.1309  0.3166
   12MOL   C141 7203   6.388   0.039   2.327  0.8098  0.0164 -0.2287
   12MOL   C142 7204   6.406   7.700   2.185  0.1222  0.2489  0.8103
   12MOL   N143 7205   6.335   0.098   2.108 -0.4388  0.1347 -0.1498
   12MOL   H144 7206   6.227   0.583   2.929  0.9760 -0.7676  0.6277
   12MOL   H145 7207   6.305   0.589   2.778 -2.5566  0.1507  0.1606
   12MOL   H146 7208   6.397   0.353   2.861 -0.8503 -0.5801 -1.7756
   12MOL   H147 7209   6.272   0.358   2.978 -0.4702  0.9434 -0.3160
   12MOL   H148 7210   6.194   0.391   2.684 -1.4522  0.7343  1.4317
   12MOL   H149 7211   6.098   0.392   2.825  0.9689  0.2145  1.5208
   12MOL   H150 7212   6.099   0.172   2.694  2.9433 -2.1074 -2.1369
   12MOL   H151 7213   6.133   0.164   2.871 -2.2681  0.9512 -1.0358
   12MOL   H152 7214   6.268   0.112   2.546  1.8491  3.7446 -0.5365
   12MOL   H153 7215   6.514   7.690   2.654 -4.4633  0.8211  3.0285
   12MOL   H154 7216   6.542   0.123   2.554  0.5907 -1.0317 -1.9861
   12MOL   H155 7217   6.557   7.644   2.395 -1.2975  0.8554 -1.1955
   12MOL   H156 7218   6.409   7.566   2.456  0.3460 -0.2526  3.2614
   12MOL   H157 7219   6.420   0.143   2.340 -0.2405  0.4391 -0.9970
   12MOL   H158 7220   6.283   0.052   2.350  0.9355  0.6536  0.0175
   12MOL   H159 7221   6.376   7.599   2.158  3.4881 -0.3175 -1.0497
   12MOL   H160 7222   6.513   0.007   2.164  0.0559 -2.4340 -0.7917
   12MOL   H161 7223   6.377   0.189   2.103  2.1029 -1.0858 -2.3880
   12MOL   C162 7224   6.212   0.075   2.060 -0.3351 -1.2860 -0.0959
   12MOL   O163 7225   6.144   0.174   2.020 -0.1754  0.3222  0.0631
   12MOL   C164 7226   6.148   7.637   2.062 -0.4866 -0.0525  0.7394
   12MOL   C165 7227   6.063   7.602   2.185  0.5950 -0.0215  0.2013
   12MOL   C166 7228   6.122   7.514   2.291  0.0897  0.2671  0.3902
   12MOL   C167 7229   6.039   7.475   2.414  0.2133  0.0969 -0.4955
   12MOL   C168 7230   5.992   7.601   2.495  0.2279  0.8625 -0.1644
   12MOL   O169 7231   6.075   7.686   2.513 -0.0115 -0.0326  0.0490
   12MOL   N170 7232   5.860   7.614   2.530  0.0064  0.2484  0.1960
   12MOL   C171 7233   5.807   0.014   2.611  0.3003 -0.3464  0.0908
   12MOL   C172 7234   5.832   7.695   2.768  0.0521 -0.7703 -0.0749
   12MOL   C173 7235   5.793   0.117   2.855  0.2697 -0.8433  0.3031
   12MOL   C174 7236   5.644   0.124   2.903 -0.0957 -0.7964 -0.3049
   12MOL   N175 7237   5.611   0.235   2.993  0.9938  0.2714 -0.3365
   12MOL   H176 7238   6.096   7.636   1.966  0.6771 -2.0158  0.1002
   12MOL   H177 7239   6.222   7.560   2.042 -1.0994 -0.4011 -0.2457
   12MOL   H178 7240   6.045   7.695   2.239  0.1377 -0.7097  1.2603
   12MOL   H179 7241   5.965   7.567   2.153  0.8391  0.2380 -0.8394
   12MOL   H180 7242   6.216   7.558   2.326 -0.1505 -0.2140  1.6586
   12MOL   H181 7243   6.138   7.423   2.234 -0.7158  0.4008 -0.0519
   12MOL   H182 7244   6.106   7.407   2.468 -0.7333 -0.7954 -0.4389
   12MOL   H183 7245   5.959   7.407   2.385 -2.3595  1.9535  1.9921
   12MOL   H184 7246   5.805   7.532   2.510  0.6746 -0.0633 -0.4001
   12MOL   H185 7247   5.702   0.030   2.586  0.0946 -2.9342 -0.8518
   12MOL   H186 7248   5.860   0.107   2.592 -0.3277  0.6097  2.6860
   12MOL   H187 7249   5.775   7.610   2.805  0.8006 -0.9921  0.5753
   12MOL   H188 7250   5.936   7.666   2.786  0.2082 -0.8947 -1.1376
   12MOL   H189 7251   5.827   0.209   2.807 -0.0881 -0.1122  1.4099
   12MOL   H190 7252   5.858   0.122   2.943  0.0029  0.7549  0.4307
   12MOL   H191 7253   5.614   0.031   2.951  0.7628 -0.3887  1.0693
   12MOL   H192 7254   5.581   0.141   2.816  1.5187  0.4379 -1.2537
   12MOL   H193 7255   5.691   0.268   3.045  1.7819 -1.9648 -0.0681
   12MOL   C194 7256   5.496   0.303   3.012 -0.0607 -0.0363 -0.2437
   12MOL   O195 7257   5.389   0.263   2.965  0.1407  0.2606  0.4159
   12MOL   C196 7258   5.508   0.433   3.097 -0.9510 -0.6500  0.0909
   12MOL   C197 7259   5.382   0.503   3.151 -0.2149  0.1298  0.3903
   12MOL   C198 7260   5.304   0.407   3.243 -0.4338  0.0336  0.3216
   12MOL   C199 7261   5.169   0.470   3.294  0.0077 -0.7863 -0.2523
   12MOL   C200 7262   5.178   0.566   3.408  0.0662  0.5675 -0.3777
   12MOL   O201 7263   5.287   0.605   3.452 -0.1870 -0.0197 -0.7481
   12MOL   N202 7264   5.064   0.613   3.460  0.1013 -0.5633 -0.0957
   12MOL   C203 7265   5.050   0.705   3.573  0.5906 -0.2435 -0.1158
   12MOL   C204 7266   4.917   0.781   3.564  0.0783  0.6953 -0.1241
   12MOL   C205 7267   4.888   0.846   3.703 -0.3271 -0.0388  0.0561
   12MOL   C206 7268   4.760   0.932   3.715 -0.1942  0.4506  0.2440
   12MOL   N207 7269   4.630   0.861   3.712 -0.1001  0.5823 -0.2081
   12MOL   H208 7270   5.563   0.403   3.186 -1.9940  0.7649  1.2246
   12MOL   H209 7271   5.566   0.504   3.039  0.4477 -2.0439 -0.2556
   12MOL   H210 7272   5.397   0.596   3.206 -2.8817  0.8439  0.0060
   12MOL   H211 7273   5.323   0.522   3.061  0.9575 -0.0666 -0.4277
   12MOL   H212 7274   5.364   0.382   3.330  1.6487  1.3641 -0.6914
   12MOL   H213 7275   5.273   0.313   3.197  2.1030 -0.6349 -0.0612
   12MOL   H214 7276   5.105   0.383   3.312 -0.7057 -0.1771  0.1798
   12MOL   H215 7277   5.115   0.523   3.215  0.0068 -1.9611 -1.0545
   12MOL   H216 7278   4.981   0.577   3.413 -0.0353 -0.1629 -0.1672
   12MOL   H217 7279   5.137   0.770   3.579  0.2396  0.5265 -2.8933
   12MOL   H218 7280   5.047   0.642   3.662 -2.5732  4.3361  3.2516
   12MOL   H219 7281   4.929   0.853   3.483  2.3568  1.2974  0.7014
   12MOL   H220 7282   4.839   0.707   3.544 -0.2672  0.3873  2.2688
   12MOL   H221 7283   4.964   0.920   3.729  0.4079 -1.4792  2.1901
   12MOL   H222 7284   4.897   0.767   3.778  0.2027 -0.6899 -0.6798
   12MOL   H223 7285   4.772   1.004   3.634 -0.8187 -0.5681 -0.7627
   12MOL   H224 7286   4.771   0.978   3.813  0.2702 -0.5755  0.6861
   12MOL   H225 7287   4.631   0.762   3.691 -4.7471  0.5089 -0.4411
   12MOL   C226 7288   4.515   0.926   3.727  0.5617  0.6006 -0.7702
   12MOL   O227 7289   4.509   1.047   3.741 -0.8622  0.5255 -0.1051
   12MOL   C228 7290   4.390   0.835   3.738  0.4337  0.3921 -0.3082
   12MOL   C229 7291   4.265   0.905   3.673 -0.1992  0.2696  0.3755
   12MOL   C230 7292   4.176   0.800   3.605 -0.5129  0.5562  0.3019
   12MOL   C231 7293   4.077   0.861   3.502  0.3938 -0.4092  0.2766
   12MOL   C232 7294   3.962   0.932   3.576  0.1455 -1.0495 -1.5540
   12MOL   O233 7295   3.876   0.868   3.633 -0.1193  0.5044 -0.7377
   12MOL   N234 7296   3.952   1.062   3.560  0.4794  0.3666 -0.1245
   12MOL   C235 7297   3.867   1.148   3.643  0.7405  0.0888 -0.6413
   12MOL   C236 7298   3.923   1.165   3.782 -0.4871 -0.1430 -0.7313
   12MOL   C237 7299   3.825   1.202   3.894  0.3634 -0.5417  0.0453
   12MOL   C238 7300   3.902   1.225   4.027 -0.4297 -0.1761 -0.4817
   12MOL   N239 7301   3.827   1.311   4.125 -0.3100 -0.0372  0.2422
   12MOL   H240 7302   4.403   0.744   3.679  3.1412  0.3650  0.2780
   12MOL   H241 7303   4.372   0.795   3.838  3.3825  1.2105  0.5886
   12MOL   H242 7304   4.203   0.949   3.752  1.7298  0.2355  1.9625
   12MOL   H243 7305   4.292   0.978   3.597 -0.6422 -0.0533 -0.0917
   12MOL   H244 7306   4.130   0.741   3.684  1.5442 -3.0062 -1.0993
   12MOL   H245 7307   4.237   0.726   3.554  0.2137  0.6340  1.0685
   12MOL   H246 7308   4.030   0.775   3.456  0.4805 -0.5475  0.4468
   12MOL   H247 7309   4.133   0.919   3.429  0.6498  0.3635  1.0706
   12MOL   H248 7310   4.027   1.105   3.508  0.6546 -0.2860 -0.4086
   12MOL   H249 7311   3.771   1.097   3.639  0.2219  0.9511  0.6181
   12MOL   H250 7312   3.850   1.241   3.588 -2.5020 -0.3232 -0.4604
   12MOL   H251 7313   3.951   1.064   3.814 -0.2155  0.7831  2.1672
   12MOL   H252 7314   4.014   1.225   3.781  0.1957 -1.1502 -0.5858
   12MOL   H253 7315   3.745   1.131   3.912 -0.8552  0.6033 -0.7391
   12MOL   H254 7316   3.787   1.301   3.870 -1.2095 -1.4559 -1.3108
   12MOL   H255 7317   3.999   1.275   4.018 -0.0251 -0.2232  2.9157
   12MOL   H256 7318   3.922   1.132   4.079  1.5470 -0.3703 -1.5415
   12MOL   H257 7319   3.814   1.268   4.215  1.5064  1.5075  1.2821
   12MOL   C258 7320   3.804   1.441   4.127  0.3580  0.0640 -0.1756
   12MOL   O259 7321   3.844   1.519   4.040  0.1650  0.2233  0.1167
   12MOL   C260 7322   3.722   1.495   4.244  0.1695  0.0541  0.2672
   12MOL   C261 7323   3.811   1.504   4.368 -0.2271 -0.6204 -0.2454
   12MOL   C262 7324   3.742   1.553   4.498  0.3805  1.0400  0.5649
   12MOL   C263 7325   3.839   1.572   4.614 -0.0376 -0.2082  0.1782
   12MOL   C264 7326   3.804   1.637   4.742 -0.2100  0.3113  0.3065
   12MOL   O265 7327   3.690   1.648   4.774 -0.4603 -0.1400 -0.1348
   12MOL   N266 7328   3.905   1.674   4.818  0.0341 -0.4571 -0.0011
   12MOL   C267 7329   3.897   1.741   4.952 -0.0427 -0.0345  0.1740
   12MOL   C268 7330   3.953   1.879   4.947 -0.1759  0.2800  0.4581
   12MOL   C269 7331   4.100   1.899   4.895  0.0626 -0.4023  0.5225
   12MOL   C270 7332   4.133   2.035   4.830  0.6423  0.1759 -0.4618
   12MOL   N271 7333   4.275   2.051   4.809  0.1084 -0.1850 -0.3644
   12MOL   H272 7334   3.671   1.589   4.222  1.2879 -0.0824 -3.0791
   12MOL   H273 7335   3.647   1.418   4.266 -0.9381  1.2226  0.6499
   12MOL   H274 7336   3.874   1.418   4.388 -1.9705 -2.2521 -1.6388
   12MOL   H275 7337   3.883   1.582   4.342 -0.8624 -0.1597 -0.6256
   12MOL   H276 7338   3.671   1.478   4.533  0.7271  0.5831  0.2958
   12MOL   H277 7339   3.688   1.646   4.478 -0.9027  0.4115  1.0810
   12MOL   H278 7340   3.925   1.624   4.572 -1.6802  0.0915 -3.0402
   12MOL   H279 7341   3.881   1.475   4.640  0.2441 -0.0603  0.2697
   12MOL   H280 7342   4.001   1.659   4.792  0.9264 -2.5552  4.0379
   12MOL   H281 7343   3.939   1.680   5.031  1.1619  2.0451  1.1903
   12MOL   H282 7344   3.791   1.749   4.979 -0.2076 -2.2274  0.2738
   12MOL   H283 7345   3.888   1.927   4.874  1.2182 -0.1967 -1.1189
   12MOL   H284 7346   3.934   1.945   5.032 -0.8775 -2.1601  2.2545
   12MOL   H285 7347   4.124   1.827   4.816  0.0623 -0.6697  0.7658
   12MOL   H286 7348   4.167   1.881   4.979 -1.2969  2.2332  2.2401
   12MOL   H287 7349   4.106   2.106   4.909  2.3336  1.6746 -1.1921
   12MOL   H288 7350   4.070   2.052   4.743 -1.7049  0.2360  1.2154
   12MOL   H289 7351   4.310   2.037   4.715  0.5770  0.0558 -0.2236
   12MOL   C290 7352   4.363   2.079   4.906  0.8778  0.4227 -0.3803
   12MOL   O291 7353   4.327   2.108   5.021  0.6655 -0.5540  0.2125
   12MOL   C292 7354   4.515   2.093   4.865  0.0114  0.2884 -0.5518
   12MOL   C293 7355   4.560   2.237   4.836 -0.4008 -0.0576  0.4563
   12MOL   C294 7356   4.474   2.300   4.724  0.9069 -0.3583  0.4027
   12MOL   C295 7357   4.367   2.388   4.775  0.2149 -0.4949  0.1827
   12MOL   C296 7358   4.280   2.449   4.667  0.9168  0.4557  0.0417
   12MOL   O297 7359   4.282   2.416   4.555 -0.4638  0.0664 -0.6199
   12MOL   N298 7360   4.201   2.552   4.704  0.3375  0.1362 -0.4657
   12MOL   C299 7361   4.142   2.644   4.608 -0.2820 -0.2560 -0.0431
   12MOL   C300 7362   4.173   2.784   4.650 -0.3051 -0.2549 -0.0840
   12MOL   C301 7363   4.111   2.894   4.567 -0.2488  0.3187 -0.2892
   12MOL   C302 7364   4.129   3.030   4.643 -0.9711  0.5072 -0.0062
   12MOL   N303 7365   4.069   3.138   4.568 -0.2254  0.0967 -0.5949
   12MOL   H304 7366   4.578   2.058   4.946  0.1891  1.0017 -0.3807
   12MOL   H305 7367   4.533   2.035   4.774 -1.5951 -0.4979 -0.3872
   12MOL   H306 7368   4.563   2.303   4.922 -3.5014  1.2012 -0.3063
   12MOL   H307 7369   4.664   2.232   4.804  0.6214 -0.1621  3.6284
   12MOL   H308 7370   4.426   2.221   4.667  1.5175 -0.7582  0.4313
   12MOL   H309 7371   4.533   2.342   4.642  2.5193  0.4755  1.9549
   12MOL   H310 7372   4.414   2.474   4.824 -1.4969  0.0760  0.8538
   12MOL   H311 7373   4.312   2.334   4.852 -1.6392  0.0190 -0.7488
   12MOL   H312 7374   4.200   2.576   4.802  0.2977 -0.6483 -0.2703
   12MOL   H313 7375   4.035   2.632   4.589 -0.0937 -2.2269  0.0554
   12MOL   H314 7376   4.194   2.632   4.512  1.2164 -0.9300  0.8386
   12MOL   H315 7377   4.138   2.798   4.753 -2.9884  1.6103 -1.1976
   12MOL   H316 7378   4.277   2.814   4.652 -0.5015  0.3748  0.9653
   12MOL   H317 7379   4.005   2.882   4.545 -0.3164  0.1976  0.1163
   12MOL   H318 7380   4.155   2.888   4.467 -2.3449 -2.0305 -1.0834
   12MOL   H319 7381   4.235   3.033   4.665 -1.0728  2.8135  0.2905
   12MOL   H320 7382   4.085   3.000   4.738  2.0597  1.0293  1.6261
   12MOL   H321 7383   3.971   3.129   4.546 -0.2321  0.2730 -0.6418
   12MOL   C322 7384   4.140   3.243   4.526 -0.2933 -0.6132 -0.0885
   12MOL   O323 7385   4.264   3.255   4.535  0.6593  0.1595 -0.0279
   12MOL   C324 7386   4.047   3.352   4.471 -0.4469 -0.0771  0.1146
   12MOL   C325 7387   4.107   3.429   4.354 -0.2094 -0.1674  0.2536
   12MOL   C326 7388   4.024   3.549   4.308 -0.2418 -0.2719 -0.0001
   12MOL   C327 7389   4.072   3.615   4.184 -0.0811 -0.5088  0.1775
   12MOL   C328 7390   3.999   3.734   4.143 -0.9896 -0.4977 -0.3882
   12MOL   O329 7391   4.013   3.840   4.202 -0.7084 -0.0228 -0.3713
   12MOL   N330 7392   3.925   3.728   4.029  0.3472 -0.4931  0.0370
   12MOL   C331 7393   3.857   3.842   3.975  0.0375 -0.2116 -0.0556
   12MOL   C332 7394   3.830   3.830   3.822 -0.2056  0.5573 -0.8499
   12MOL   C333 7395   3.783   3.964   3.761 -1.0752  0.6560  0.4569
   12MOL   C334 7396   3.626   3.983   3.761  0.8875  0.0527 -0.0116
   12MOL   N335 7397   3.576   3.996   3.896 -0.1234  0.5186 -0.2403
   12MOL   H336 7398   3.947   3.315   4.447 -0.1271 -0.9489  0.0858
   12MOL   H337 7399   4.018   3.412   4.557  0.8862 -0.0425  0.5504
   12MOL   H338 7400   4.208   3.458   4.386 -0.6326  1.4741  0.1276
   12MOL   H339 7401   4.120   3.360   4.271  2.7842  2.0537 -1.2099
   12MOL   H340 7402   4.021   3.619   4.391  0.2030 -0.5307  0.2351
   12MOL   H341 7403   3.922   3.520   4.281 -0.7154  1.2125  0.1273
   12MOL   H342 7404   4.089   3.544   4.103  1.1421 -0.1661  0.1211
   12MOL   H343 7405   4.171   3.657   4.200 -0.8942  1.9489 -1.0480
   12MOL   H344 7406   3.922   3.639   3.981 -0.5578  0.0924 -1.0203
   12MOL   H345 7407   3.924   3.928   3.988  0.4880 -0.8402  2.0055
   12MOL   H346 7408   3.762   3.855   4.026 -0.5650 -1.6880 -0.7938
   12MOL   H347 7409   3.914   3.790   3.765 -0.3288 -2.5594  1.0177
   12MOL   H348 7410   3.760   3.746   3.825  0.3672  0.0798 -0.5684
   12MOL   H349 7411   3.811   3.964   3.656 -0.4602 -0.7125  0.6028
   12MOL   H350 7412   3.830   4.046   3.816 -1.2468  0.2391  1.2357
   12MOL   H351 7413   3.585   3.898   3.706 -0.5488  0.5830  0.2103
   12MOL   H352 7414   3.594   4.074   3.710  2.0141 -0.0560 -0.9383
   12MOL   H353 7415   3.601   3.921   3.958  2.4351  0.7749 -0.8922
   12MOL   C354 7416   3.513   4.097   3.951  0.6649 -0.4289  0.3825
   12MOL   O355 7417   3.481   4.199   3.889  0.1619 -0.1050 -0.3985
   12MOL   C356 7418   3.465   4.089   4.096 -0.3097  0.2671 -0.1320
   12MOL   C357 7419   3.544   4.176   4.194 -0.5485  0.2347  0.0886
   12MOL   C358 7420   3.683   4.122   4.229  0.0288  0.3973  0.2340
   12MOL   C359 7421   3.726   4.177   4.361 -1.1415  0.1117 -0.1646
   12MOL   C360 7422   3.880   4.170   4.380 -0.7556  0.2991  0.4037
   12MOL   O361 7423   3.956   4.227   4.306  0.5201  0.1531 -0.5990
   12MOL   N362 7424   3.924   4.114   4.496  0.1258  0.4171 -0.0173
   12MOL   C363 7425   4.059   4.127   4.557  0.1314 -0.2671  0.2367
   12MOL   C364 7426   4.176   4.079   4.471 -0.2370 -0.2863  0.8241
   12MOL   C365 7427   4.208   3.928   4.472  0.1154 -0.9236  0.5138
   12MOL   C366 7428   4.336   3.901   4.384  0.0853  0.0931  0.8306
   12MOL   N367 7429   4.387   3.762   4.397  0.4623  0.1789  0.7258
   12MOL   H368 7430   3.361   4.121   4.093 -0.6515 -0.8635 -0.9345
   12MOL   H369 7431   3.472   3.988   4.136 -0.1369  0.4024  0.1824
   12MOL   H370 7432   3.554   4.279   4.159  1.2166  0.1803  0.3925
   12MOL   H371 7433   3.478   4.185   4.281  0.2515  0.7668  0.6495
   12MOL   H372 7434   3.751   4.143   4.147 -0.0859 -0.1522 -0.0035
   12MOL   H373 7435   3.696   4.015   4.243  2.3967  0.5525 -0.6253
   12MOL   H374 7436   3.672   4.119   4.435 -0.7783 -1.7383 -1.2927
   12MOL   H375 7437   3.711   4.284   4.369 -0.8207  0.1423  0.0322
   12MOL   H376 7438   3.855   4.060   4.547  0.6818 -1.1401 -0.8701
   12MOL   H377 7439   4.071   4.076   4.653  0.3715 -1.0085 -0.1783
   12MOL   H378 7440   4.079   4.232   4.575  1.3812 -0.1244 -1.8295
   12MOL   H379 7441   4.175   4.121   4.370 -0.2224  1.8649  1.6871
   12MOL   H380 7442   4.264   4.117   4.524 -1.4376  0.6076  2.2051
   12MOL   H381 7443   4.128   3.866   4.431  1.1759  0.8237 -4.5238
   12MOL   H382 7444   4.242   3.899   4.571  1.3024 -1.3326 -0.0020
   12MOL   H383 7445   4.416   3.972   4.404 -0.7086  1.2154  0.0523
   12MOL   H384 7446   4.309   3.923   4.281  0.8639 -1.2909  0.3028
   12MOL   H385 7447   4.356   3.721   4.483  0.7177 -3.4569 -0.8261
   12MOL   C386 7448   4.472   3.708   4.319 -0.2810  0.2365 -0.2874
   12MOL   O387 7449   4.514   3.761   4.210 -0.0225 -0.3766 -0.0123
   12MOL   C388 7450   4.522   3.568   4.362  0.7901  0.0592  0.0255
   12MOL   C389 7451   4.652   3.532   4.295 -0.2265 -0.2411 -0.6555
   12MOL   C390 7452   4.762   3.630   4.344 -0.1633  0.0074  0.6266
   12MOL   C391 7453   4.904   3.568   4.341 -1.1986 -0.3606  0.2589
   12MOL   C392 7454   4.942   3.478   4.220  0.6517  0.6845 -0.1797
   12MOL   O393 7455   4.996   3.533   4.119  0.6354 -0.6891 -0.0174
   12MOL   N394 7456   4.928   3.342   4.232 -0.4841 -0.0165  0.1570
   12MOL   C395 7457   4.952   3.247   4.119  0.8334  0.5853  0.6342
   12MOL   C396 7458   4.812   3.188   4.070 -0.2824  0.3696 -0.2508
   12MOL   C397 7459   4.812   3.064   3.974  0.5456 -0.3098  0.2914
   12MOL   C398 7460   4.899   2.948   4.018 -0.0545  0.0958 -0.2188
   12MOL   N399 7461   4.877   2.900   4.156 -0.5236 -0.4365  0.5628
   12MOL   H400 7462   4.531   3.555   4.470 -0.4701  1.6256  0.3285
   12MOL   H401 7463   4.442   3.497   4.343  0.5341  0.0758  0.9882
   12MOL   H402 7464   4.683   3.434   4.330  0.6741  0.4948  0.6590
   12MOL   H403 7465   4.654   3.540   4.186  1.3419  1.2320 -0.5422
   12MOL   H404 7466   4.734   3.665   4.443  0.8574 -1.3135  1.4070
   12MOL   H405 7467   4.755   3.722   4.287  0.3880  0.9405  2.0151
   12MOL   H406 7468   4.917   3.506   4.429 -0.0007  0.5721  0.7548
   12MOL   H407 7469   4.978   3.648   4.345  0.3195 -1.5643 -2.2694
   12MOL   H408 7470   4.877   3.318   4.316 -1.0835 -0.9000 -0.4518
   12MOL   H409 7471   5.031   3.180   4.151 -1.0128 -1.8762  0.2178
   12MOL   H410 7472   4.998   3.308   4.041 -1.6809  1.3659 -0.2926
   12MOL   H411 7473   4.760   3.156   4.160 -2.6002 -0.1839 -1.7180
   12MOL   H412 7474   4.746   3.261   4.022 -0.0717 -0.4062 -1.7599
   12MOL   H413 7475   4.846   3.111   3.881 -0.1751  1.3872  0.8701
   12MOL   H414 7476   4.715   3.023   3.946  0.2934  0.2111  0.3970
   12MOL   H415 7477   5.001   2.984   4.010 -1.1242  3.3869 -0.0065
   12MOL   H416 7478   4.890   2.853   3.965 -2.6202 -1.2190  2.4250
   12MOL   H417 7479   4.798   2.839   4.176 -0.9616  0.4359  1.5289
   12MOL   C418 7480   4.960   2.886   4.252 -0.3822  0.4555 -0.9821
   12MOL   O419 7481   5.076   2.932   4.252 -0.2620 -0.2418  0.1109
   12MOL   C420 7482   4.919   2.804   4.372  0.1328 -0.5864 -0.6744
   12MOL   C421 7483   5.002   2.674   4.358  0.2634  0.4162  0.3816
   12MOL   C422 7484   4.987   2.585   4.481 -0.1937 -0.0025 -0.6286
   12MOL   C423 7485   5.051   2.443   4.459  0.1995  0.4241  0.1471
   12MOL   C424 7486   5.060   2.359   4.587  0.0133  0.4104 -0.0172
   12MOL   O425 7487   4.973   2.276   4.619  0.1234 -0.1484 -0.3766
   12MOL   N426 7488   5.171   2.376   4.667  0.0325  0.5849  0.0423
   12MOL   C427 7489   5.202   2.301   4.787  0.3423 -0.5651  0.0005
   12MOL   C428 7490   5.351   2.295   4.815  0.1094  0.0007 -0.0129
   12MOL   C429 7491   5.429   2.264   4.687  0.0570  0.2901 -0.2326
   12MOL   C430 7492   5.570   2.221   4.712  0.7423 -0.1545  0.1840
   12MOL   N431 7493   5.578   2.082   4.744 -0.2750 -0.4563 -0.0322
   12MOL   H432 7494   4.939   2.847   4.470 -2.8790 -1.0342  0.1840
   12MOL   H433 7495   4.812   2.790   4.360 -0.1713  0.2666  0.9383
   12MOL   H434 7496   4.972   2.607   4.277  0.9649  0.4749  0.0695
   12MOL   H435 7497   5.106   2.707   4.354  0.0864  0.8771 -0.4555
   12MOL   H436 7498   4.880   2.578   4.501 -0.0484  1.0897  0.6057
   12MOL   H437 7499   5.029   2.628   4.572 -0.0285 -1.3443 -0.0579
   12MOL   H438 7500   5.154   2.442   4.423 -0.6435 -0.5066 -2.3655
   12MOL   H439 7501   5.001   2.389   4.378  1.0083 -0.7174  0.3942
   12MOL   H440 7502   5.242   2.446   4.651 -0.4594  1.1274  0.2192
   12MOL   H441 7503   5.152   2.204   4.789 -2.2178  0.6682 -0.7763
   12MOL   H442 7504   5.153   2.353   4.869 -1.2318 -1.0560 -0.6037
   12MOL   H443 7505   5.388   2.378   4.876 -0.5854  1.3427 -1.3767
   12MOL   H444 7506   5.366   2.218   4.891  1.7813  1.2114  0.9235
   12MOL   H445 7507   5.434   2.368   4.654 -0.3621  0.2256 -0.5039
   12MOL   H446 7508   5.382   2.209   4.605 -0.6323  1.1083 -0.3952
   12MOL   H447 7509   5.626   2.285   4.780 -0.6495 -0.6921  1.8717
   12MOL   H448 7510   5.625   2.245   4.621 -1.0079  2.1458 -0.3053
   12MOL   H449 7511   5.617   2.062   4.835 -0.1471  1.8569  0.4577
   12MOL   C450 7512   5.548   1.984   4.658  0.5918 -0.1012 -0.3446
   12MOL   O451 7513   5.502   2.008   4.548 -0.5755  0.7267  0.1193
   12MOL   C452 7514   5.561   1.841   4.708  0.0766  0.1012 -0.0268
   12MOL   C453 7515   5.448   1.753   4.653 -0.5555 -0.2341 -0.0431
   12MOL   C454 7516   5.311   1.792   4.715 -0.5506 -0.3938 -0.1531
   12MOL   C455 7517   5.197   1.704   4.666  0.1907 -0.0941 -0.1335
   12MOL   C456 7518   5.179   1.568   4.737 -0.2757  0.2536  0.1746
   12MOL   O457 7519   5.208   1.562   4.855 -0.0295  0.4039 -0.2531
   12MOL   N458 7520   5.112   1.471   4.667  0.0957 -0.0759  0.5000
   12MOL   C459 7521   5.082   1.340   4.719  0.4618 -0.3366  0.2333
   12MOL   C460 7522   5.189   1.234   4.693 -0.1488 -0.2432 -0.5914
   12MOL   C461 7523   5.320   1.244   4.780 -0.2782 -0.4009 -0.2723
   12MOL   C462 7524   5.313   1.205   4.926  0.5796 -0.3261 -0.6157
   12MOL   N463 7525   5.252   1.315   5.004 -0.4146  0.1462  0.0453
   12MOL   H464 7526   5.661   1.810   4.676  1.3948  2.4478  1.6842
   12MOL   H465 7527   5.557   1.843   4.817  2.1333 -0.0151  0.0683
   12MOL   H466 7528   5.448   1.741   4.545 -2.3607  1.6174 -0.2757
   12MOL   H467 7529   5.468   1.652   4.687  1.4610  1.1283  3.0318
   12MOL   H468 7530   5.290   1.898   4.701 -2.0486 -0.6101  0.3068
   12MOL   H469 7531   5.329   1.791   4.823  1.6586 -1.5189 -0.5068
   12MOL   H470 7532   5.213   1.690   4.559  1.5811  1.2106 -0.1115
   12MOL   H471 7533   5.103   1.758   4.671  1.2524  2.2036 -3.0182
   12MOL   H472 7534   5.092   1.478   4.568 -0.7404  2.3621  0.8072
   12MOL   H473 7535   4.988   1.307   4.674  0.2748  2.2175 -1.3417
   12MOL   H474 7536   5.060   1.345   4.826 -1.5627 -0.2752 -0.1495
   12MOL   H475 7537   5.144   1.135   4.698  1.6289 -0.9606  3.0190
   12MOL   H476 7538   5.221   1.241   4.589  1.5186 -0.1956 -0.0890
   12MOL   H477 7539   5.370   1.340   4.763  0.5513 -0.8990 -0.6802
   12MOL   H478 7540   5.389   1.173   4.734  2.3797  0.5417  2.1155
   12MOL   H479 7541   5.414   1.189   4.964  0.3938 -0.7487 -0.2889
   12MOL   H480 7542   5.256   1.113   4.941 -0.0897  0.2691  0.5387
   12MOL   H481 7543   5.263   1.403   4.956  2.1611 -0.9795 -1.5170
   12MOL   C482 7544   5.179   1.300   5.112 -0.0791 -1.0247  0.3620
   12MOL   O483 7545   5.176   1.191   5.167  0.2107 -0.1019  0.1659
   12MOL   C484 7546   5.086   1.417   5.160 -0.6633 -1.0703  0.4502
   12MOL   C485 7547   4.934   1.386   5.160 -0.3205  0.1725 -0.2068
   12MOL   C486 7548   4.852   1.512   5.168  0.5611  0.2637  0.0037
   12MOL   C487 7549   4.707   1.486   5.195 -0.2664  0.1252 -0.8212
   12MOL   C488 7550   4.628   1.617   5.217  0.2252 -0.0437 -1.3538
   12MOL   O489 7551   4.680   1.733   5.216  0.5110 -0.2101  0.0342
   12MOL   N490 7552   4.493   1.595   5.244  0.0597 -0.1544 -0.1586
   12MOL   C491 7553   4.392   1.699   5.282 -1.1392 -0.1183  0.3199
   12MOL   C492 7554   4.255   1.635   5.274 -0.2550 -0.2455  0.1202
   12MOL   C493 7555   4.146   1.731   5.327 -0.2207  0.3158 -0.0988
   12MOL   C494 7556   4.016   1.651   5.348  0.8795 -0.3355 -0.5351
   12MOL   N495 7557   3.907   1.726   5.418 -0.4282 -0.3241  0.4288
   12MOL   H496 7558   5.122   1.446   5.258 -1.3853  2.4241 -0.2645
   12MOL   H497 7559   5.110   1.498   5.091 -1.6973 -0.8779  0.3107
   12MOL   H498 7560   4.921   1.334   5.065 -0.7626 -0.2854  0.0995
   12MOL   H499 7561   4.892   1.320   5.236  1.5106  1.0943  1.6388
   12MOL   H500 7562   4.865   1.581   5.086  0.2700 -0.7739 -0.9285
   12MOL   H501 7563   4.896   1.571   5.248  1.2658 -3.1398  2.2646
   12MOL   H502 7564   4.705   1.423   5.284 -0.4406 -0.7370 -1.4305
   12MOL   H503 7565   4.674   1.431   5.107  2.1259 -0.7672 -1.2139
   12MOL   H504 7566   4.461   1.500   5.253 -1.5463  0.4841  1.1969
   12MOL   H505 7567   4.394   1.773   5.202  1.7095 -1.1910 -0.6717
   12MOL   H506 7568   4.418   1.724   5.385  1.5417 -1.3563 -0.0092
   12MOL   H507 7569   4.231   1.595   5.175 -2.1763  1.3714 -0.0911
   12MOL   H508 7570   4.256   1.544   5.333 -0.8503 -0.4193 -0.1364
   12MOL   H509 7571   4.129   1.812   5.256  0.8836 -0.3907 -1.1711
   12MOL   H510 7572   4.190   1.782   5.414  1.5275  1.0755 -1.3914
   12MOL   H511 7573   4.039   1.557   5.399  0.7730  0.0266  0.1728
   12MOL   H512 7574   3.970   1.615   5.256 -1.3117 -0.8067  0.7193
   12MOL   H513 7575   3.902   1.703   5.516 -1.1164  0.6372  0.6295
   12MOL   C514 7576   3.824   1.820   5.373  0.0593  0.0102 -0.6573
   12MOL   O515 7577   3.831   1.859   5.256 -0.0848  0.1912 -0.3607
   12MOL   C516 7578   3.708   1.864   5.458 -0.3092  0.3175  0.3823
   12MOL   C517 7579   3.658   1.746   5.541  0.2717 -0.2147 -0.1814
   12MOL   C518 7580   3.513   1.771   5.586  0.4271  0.1552 -0.8489
   12MOL   C519 7581   3.453   1.664   5.676 -0.2724 -0.3057  0.0206
   12MOL   C520 7582   3.501   1.666   5.827  0.0070 -0.2704  0.7591
   12MOL   O521 7583   3.486   1.775   5.881  0.1919  0.6489  0.8317
   12MOL   N522 7584   3.564   1.567   5.884 -0.0201 -0.3860 -0.1710
   12MOL   C523 7585   3.607   1.571   6.024 -0.5745 -0.3040 -0.2564
   12MOL   C524 7586   3.765   1.600   6.017 -1.3441  0.0666  0.1068
   12MOL   C525 7587   3.837   1.604   6.148 -0.1032 -0.3632 -0.1975
   12MOL   C526 7588   3.986   1.657   6.140  0.1606  0.0382  0.1613
   12MOL   N527 7589   4.039   1.639   6.269 -0.3417 -0.3116  0.1545
   12MOL   H528 7590   3.735   1.957   5.509  1.9822 -0.2441  0.2695
   12MOL   H529 7591   3.628   1.882   5.388  0.2977 -0.5362 -0.5467
   12MOL   H530 7592   3.662   1.649   5.493 -3.8024 -0.8903  0.6379
   12MOL   H531 7593   3.721   1.727   5.628 -0.1869 -1.7566 -0.1750
   12MOL   H532 7594   3.447   1.773   5.499 -2.1184 -1.0514  0.9727
   12MOL   H533 7595   3.505   1.869   5.632  0.4948 -0.8655  1.3688
   12MOL   H534 7596   3.452   1.563   5.635 -0.7447 -1.3249  2.4715
   12MOL   H535 7597   3.352   1.706   5.683 -2.0271 -3.6928 -3.1833
   12MOL   H536 7598   3.574   1.481   5.833  0.2265  0.5508 -1.7256
   12MOL   H537 7599   3.583   1.484   6.085 -1.6028  2.1877  3.0436
   12MOL   H538 7600   3.565   1.659   6.072  0.0431  1.3555 -2.6326
   12MOL   H539 7601   3.803   1.513   5.963 -0.8631 -0.0217  0.5755
   12MOL   H540 7602   3.783   1.696   5.967  1.6936 -1.0010 -0.9417
   12MOL   H541 7603   3.840   1.505   6.192 -1.4964 -0.3940 -0.1621
   12MOL   H542 7604   3.779   1.673   6.210  2.2041  1.0728  0.4324
   12MOL   H543 7605   3.999   1.763   6.117  2.2769 -0.8456 -2.8937
   12MOL   H544 7606   4.037   1.599   6.064 -2.1697 -0.0610 -1.3754
   12MOL   H545 7607   3.981   1.582   6.329 -1.2140 -0.5172 -0.8609
   12MOL   C546 7608   4.154   1.687   6.314 -0.5020  0.2372 -0.1743
   12MOL   O547 7609   4.227   1.764   6.245 -0.0884  0.4635  0.0044
   12MOL   C548 7610   4.196   1.641   6.452 -0.6544  0.2707 -0.5256
   12MOL   C549 7611   4.215   1.758   6.544  0.2012 -0.1377  0.0944
   12MOL   C550 7612   4.074   1.826   6.574  0.5232 -0.0680  0.4628
   12MOL   C551 7613   4.068   1.911   6.698  0.2399  0.5182 -0.9882
   12MOL   C552 7614   4.177   2.017   6.705 -0.0858 -0.2628 -0.0872
   12MOL   O553 7615   4.173   2.112   6.621  0.3686  0.2143 -0.4221
   12MOL   N554 7616   4.283   2.000   6.794  0.0486 -0.3795 -0.2319
   12MOL   C555 7617   4.398   2.095   6.795  0.2378  0.1169 -0.0567
   12MOL   C556 7618   4.517   2.029   6.866  0.3713  0.2346 -0.3845
   12MOL   C557 7619   4.638   2.129   6.875 -0.6589 -0.0949 -0.1538
   12MOL   C558 7620   4.753   2.078   6.972 -1.0319  0.1311 -0.2560
   12MOL   N559 7621   4.852   1.992   6.911  0.2187 -0.1195  0.5209
   12MOL   H560 7622   4.135   1.560   6.492 -0.6767  0.8334  0.6346
   12MOL   H561 7623   4.293   1.594   6.439 -1.0019  0.0892 -2.5936
   12MOL   H562 7624   4.263   1.713   6.631 -0.1502 -0.5226  0.0935
   12MOL   H563 7625   4.277   1.828   6.489  0.6895 -1.3000 -0.8585
   12MOL   H564 7626   3.999   1.748   6.584  2.2633 -1.5989  2.0903
   12MOL   H565 7627   4.053   1.882   6.483 -0.4950 -2.0330 -0.5532
   12MOL   H566 7628   4.079   1.852   6.789  0.5077  1.6407 -0.2733
   12MOL   H567 7629   3.973   1.963   6.711 -1.4730 -2.5325 -1.0023
   12MOL   H568 7630   4.278   1.939   6.875 -3.4249  1.7642  1.2765
   12MOL   H569 7631   4.352   2.179   6.848 -2.9932 -0.7724 -1.3030
   12MOL   H570 7632   4.424   2.118   6.691 -0.4010  2.2859  0.2476
   12MOL   H571 7633   4.488   2.012   6.970 -0.3820 -2.0115 -0.9150
   12MOL   H572 7634   4.543   1.931   6.825 -2.0823  0.6635 -3.1818
   12MOL   H573 7635   4.608   2.230   6.902  0.1809  0.2485 -0.4800
   12MOL   H574 7636   4.682   2.134   6.775 -0.4691 -0.9333 -0.1198
   12MOL   H575 7637   4.700   2.037   7.058  1.6865  0.5056  1.6762
   12MOL   H576 7638   4.806   2.166   7.011 -0.4615  0.0741 -0.8856
   12MOL   H577 7639   4.838   1.970   6.814  2.6120 -0.1080  0.1494
   12MOL   C578 7640   4.943   1.912   6.968 -0.1732  0.0716  0.1160
   12MOL   O579 7641   4.960   1.908   7.089  0.0915  0.0634  0.2691
   12MOL   C580 7642   5.039   1.833   6.877  0.4294  0.8393  0.5884
   12MOL   C581 7643   5.151   1.758   6.953  0.5719 -0.3087 -0.2859
   12MOL   C582 7644   5.257   1.684   6.873  0.8806  0.7048 -0.0326
   12MOL   C583 7645   5.349   1.783   6.798  0.4796  0.3693  0.1422
   12MOL   C584 7646   5.438   1.707   6.702 -0.2309 -0.4620 -0.3342
   12MOL   O585 7647   5.432   1.587   6.682 -0.0255  0.1949  0.3851
   12MOL   N586 7648   5.532   1.780   6.636 -0.0374  0.0332  0.7606
   12MOL   C587 7649   5.619   1.726   6.534 -0.1200 -0.4710  0.6799
   12MOL   C588 7650   5.730   1.830   6.508  0.7944 -0.3155  0.3243
   12MOL   C589 7651   5.828   1.805   6.390  1.2003 -0.3741 -0.2198
   12MOL   C590 7652   5.922   1.924   6.351  0.1288 -0.0518  0.2062
   12MOL   N591 7653   6.026   1.874   6.257 -0.4665 -0.6354 -0.3574
   12MOL   H592 7654   4.972   1.765   6.825  4.0379 -1.6999 -0.9559
   12MOL   H593 7655   5.085   1.898   6.803 -0.2759  0.2729 -0.3568
   12MOL   H594 7656   5.207   1.824   7.019  0.1046 -1.8527  1.7170
   12MOL   H595 7657   5.110   1.683   7.021 -0.0409  1.9833  1.9634
   12MOL   H596 7658   5.201   1.608   6.817  0.8586 -0.5967  1.7202
   12MOL   H597 7659   5.321   1.630   6.942 -0.1519  0.7159  0.9497
   12MOL   H598 7660   5.414   1.837   6.866  1.1796 -1.6213  1.0862
   12MOL   H599 7661   5.292   1.850   6.733  1.0610 -0.2987 -1.0841
   12MOL   H600 7662   5.542   1.879   6.655  0.5796 -0.0886  1.0808
   12MOL   H601 7663   5.569   1.713   6.438  0.4920  2.1292 -0.0160
   12MOL   H602 7664   5.661   1.639   6.584 -1.3150 -0.9356  0.8895
   12MOL   H603 7665   5.689   1.930   6.491 -0.6939 -0.5940  2.1727
   12MOL   H604 7666   5.787   1.858   6.597 -0.3805  1.9227  0.4065
   12MOL   H605 7667   5.763   1.778   6.307 -1.7438  0.8493  1.5946
   12MOL   H606 7668   5.881   1.714   6.419  0.7043 -0.3117  0.9396
   12MOL   H607 7669   5.976   1.973   6.432  2.8876 -2.3458 -0.1361
   12MOL   H608 7670   5.862   2.001   6.302 -2.3247 -1.9909  0.0782
   12MOL   H609 7671   6.087   1.801   6.290 -0.1380 -0.3132 -0.2413
   12MOL   C610 7672   6.064   1.932   6.145 -0.4173 -0.3802 -0.4456
   12MOL   O611 7673   6.012   2.028   6.093  0.5289 -0.1349  0.1419
   12MOL   C612 7674   6.188   1.882   6.071  0.6552  0.4848  0.2150
   12MOL   C613 7675   6.151   1.838   5.927  0.7238  0.1059 -0.2249
   12MOL   C614 7676   6.042   1.725   5.929 -0.4631 -0.3349 -0.3344
   12MOL   C615 7677   6.021   1.651   5.797 -0.2748  0.5194 -0.1120
   12MOL   C616 7678   6.105   1.520   5.765  0.3065 -0.3962  0.8580
   12MOL   O617 7679   6.157   1.462   5.863  0.3522  0.5943 -0.7263
   12MOL   N618 7680   6.130   1.476   5.641  0.2050 -0.0198 -0.0339
   12MOL   C619 7681   6.198   1.349   5.604  0.4516 -0.4060  0.2936
   12MOL   C620 7682   6.186   1.314   5.457 -0.5131  0.0142  1.0343
   12MOL   C621 7683   6.256   1.181   5.410  0.1947  0.2445 -0.0747
   12MOL   C622 7684   6.241   1.068   5.511  0.1308  0.5543 -0.1451
   12MOL   N623 7685   6.308   0.952   5.451  0.1456 -0.8728  0.3205
   12MOL   H624 7686   6.267   1.957   6.063 -1.4901  2.8928  0.6797
   12MOL   H625 7687   6.237   1.801   6.126  2.1226  1.8341  0.9454
   12MOL   H626 7688   6.117   1.926   5.874 -1.6941 -0.5166  0.2469
   12MOL   H627 7689   6.239   1.795   5.878  0.1069 -0.6809 -0.6499
   12MOL   H628 7690   5.951   1.782   5.948 -1.8519 -2.4268 -0.4785
   12MOL   H629 7691   6.056   1.657   6.013  3.2435 -1.1726 -1.5547
   12MOL   H630 7692   6.014   1.719   5.712 -1.0804 -0.2026 -0.6459
   12MOL   H631 7693   5.922   1.606   5.810 -0.6722  1.0679 -1.1786
   12MOL   H632 7694   6.085   1.529   5.567 -0.1699  0.3090  0.4256
   12MOL   H633 7695   6.136   1.272   5.650  0.4359  0.3735  1.5803
   12MOL   H634 7696   6.301   1.347   5.639 -0.4717 -0.5337  3.0633
   12MOL   H635 7697   6.079   1.323   5.435  0.0096  2.4819 -0.7380
   12MOL   H636 7698   6.237   1.394   5.404 -2.1881  0.7877  0.5457
   12MOL   H637 7699   6.360   1.202   5.387 -0.0175  1.1668 -0.1858
   12MOL   H638 7700   6.208   1.159   5.315 -2.2576  1.3283  0.8666
   12MOL   H639 7701   6.135   1.048   5.531 -0.5883  3.4483 -0.9638
   12MOL   H640 7702   6.295   1.090   5.603 -0.9804  0.9688  0.4103
   12MOL   H641 7703   6.406   0.970   5.432  0.1753  0.1858  1.3773
   12MOL   H642 7704   6.286   0.868   5.501  1.3942 -0.9989  0.6758
   13MOL     C1 7705   3.540   1.554   2.159 -0.1580 -0.0751 -0.9666
   13MOL     O2 7706   3.637   1.481   2.166 -0.3814 -0.9036  0.5857
   13MOL     C3 7707   3.516   1.640   2.032  0.0030 -0.6292  0.0677
   13MOL     C4 7708   3.569   1.586   1.902 -0.3200  0.2791 -0.0163
   13MOL     C5 7709   3.510   1.451   1.854  0.0219 -0.5373 -0.1331
   13MOL     C6 7710   3.588   1.388   1.734  0.5572 -0.4359 -0.4334
   13MOL     C7 7711   3.504   1.296   1.646  0.2733  0.8853  0.3317
   13MOL     O8 7712   3.437   1.198   1.689  0.2593  0.4242 -0.2809
   13MOL     N9 7713   3.510   1.318   1.517  0.4592 -0.4594 -0.5733
   13MOL    C10 7714   3.422   1.244   1.425 -0.0793  0.3315  0.0469
   13MOL    C11 7715   3.439   1.310   1.286 -0.1615  0.2366 -0.5026
   13MOL    C12 7716   3.333   1.254   1.191  0.4406  0.8736  0.3016
   13MOL    C13 7717   3.358   1.103   1.152  0.1080  1.3716  0.1903
   13MOL    N14 7718   3.294   1.010   1.245  0.3987  0.6447  0.5943
   13MOL    H15 7719   3.409   1.661   2.036 -0.0110 -0.9818  2.6652
   13MOL    H16 7720   3.572   1.733   2.043  0.8850 -1.3286  1.6849
   13MOL    H17 7721   3.564   1.671   1.834 -1.6208  0.7631  0.6682
   13MOL    H18 7722   3.675   1.564   1.918 -0.3710  1.0856  1.5638
   13MOL    H19 7723   3.408   1.472   1.820 -0.0827  0.7590  0.9259
   13MOL    H20 7724   3.505   1.393   1.946  0.1856 -1.3592 -0.6369
   13MOL    H21 7725   3.673   1.332   1.774  1.8631  1.7066 -0.1706
   13MOL    H22 7726   3.617   1.474   1.675 -0.1927  1.3705  1.7440
   13MOL    H23 7727   3.573   1.385   1.474  0.7244 -0.6703 -0.5158
   13MOL    H24 7728   3.319   1.238   1.461  0.0507 -2.7457 -0.0381
   13MOL    H25 7729   3.463   1.144   1.422  1.9248  1.1043  1.0049
   13MOL    H26 7730   3.418   1.416   1.295  1.0362  0.3281  1.6415
   13MOL    H27 7731   3.537   1.288   1.243  0.1849 -0.7164  0.7380
   13MOL    H28 7732   3.337   1.321   1.105  0.6954  0.2473 -0.1763
   13MOL    H29 7733   3.235   1.250   1.237  1.0098 -3.9846  1.3649
   13MOL    H30 7734   3.460   1.072   1.133 -0.0222  0.4474  0.9619
   13MOL    H31 7735   3.318   1.086   1.052  1.6953 -0.8479 -0.0897
   13MOL    H32 7736   3.204   1.042   1.278 -0.4115 -0.0413 -0.8939
   13MOL    H33 7737   3.475   1.567   2.246 -0.0865  0.0025 -0.9247
   13MOL    C34 7738   3.343   0.897   1.307 -0.0035 -0.2367  0.4084
   13MOL    O35 7739   3.451   0.841   1.283 -0.0145 -0.0018  0.3448
   13MOL    C36 7740   3.257   0.834   1.414 -0.5310 -0.3930  0.3133
   13MOL    C37 7741   3.269   0.686   1.425 -0.1347  0.1158  0.0652
   13MOL    C38 7742   3.151   0.626   1.502 -0.8332  0.1073  0.3488
   13MOL    C39 7743   3.125   0.469   1.492 -0.3764 -0.2747  0.1430
   13MOL    C40 7744   3.241   0.381   1.543 -0.2784  0.3514  0.0165
   13MOL    O41 7745   3.267   0.374   1.664 -0.1647  0.3251  0.2251
   13MOL    N42 7746   3.320   0.329   1.448 -0.4416 -0.0280 -0.0704
   13MOL    C43 7747   3.436   0.241   1.470 -0.0450 -0.2603 -0.5360
   13MOL    C44 7748   3.398   0.099   1.458 -0.5355 -0.5814  0.7697
   13MOL    C45 7749   3.374   0.065   1.309 -0.1778  0.3424  0.7270
   13MOL    C46 7750   3.382   7.615   1.291  0.4181 -0.0315  0.5195
   13MOL    N47 7751   3.385   7.604   1.144 -0.5576  0.5100 -0.0759
   13MOL    H48 7752   3.281   0.891   1.503  0.7302 -0.4759  0.0366
   13MOL    H49 7753   3.159   0.872   1.385  0.2214  1.7944  0.5505
   13MOL    H50 7754   3.266   0.632   1.330 -0.0056 -0.8137  0.5888
   13MOL    H51 7755   3.368   0.657   1.461 -0.3568 -1.6968 -0.7619
   13MOL    H52 7756   3.054   0.663   1.468 -0.2843 -0.6813 -2.1752
   13MOL    H53 7757   3.167   0.665   1.602 -0.5045  0.0282  0.3254
   13MOL    H54 7758   3.108   0.444   1.388  0.9628  0.9746 -0.3947
   13MOL    H55 7759   3.031   0.439   1.540 -0.6788  0.0072 -0.2672
   13MOL    H56 7760   3.298   0.347   1.352  0.4213  1.0214 -0.0848
   13MOL    H57 7761   3.485   0.268   1.564  1.3944  1.9448 -1.8616
   13MOL    H58 7762   3.509   0.275   1.397  0.4545 -0.8754 -0.3311
   13MOL    H59 7763   3.478   0.039   1.502 -0.3610 -0.7652  0.2056
   13MOL    H60 7764   3.305   0.066   1.504 -1.3752  0.3088 -0.2458
   13MOL    H61 7765   3.450   0.114   1.249 -1.9735  2.3485  0.0468
   13MOL    H62 7766   3.282   0.109   1.270 -0.0346  0.6697  0.7580
   13MOL    H63 7767   3.292   7.567   1.329 -1.2191 -0.0034 -3.1336
   13MOL    H64 7768   3.471   7.573   1.338 -0.0379  0.5426  1.9268
   13MOL    H65 7769   3.404   7.686   1.090  0.1332  1.2873  1.3126
   13MOL    C66 7770   3.390   7.497   1.068 -0.5564  0.2926 -0.3110
   13MOL    O67 7771   3.372   7.381   1.102 -0.1217  0.4097  0.3946
   13MOL    C68 7772   3.413   7.524   0.919  0.8042  0.5257 -0.2639
   13MOL    C69 7773   3.551   7.574   0.878 -0.1270  0.1512  0.8009
   13MOL    C70 7774   3.666   7.494   0.934  0.0635 -0.6405  0.0348
   13MOL    C71 7775   3.809   7.562   0.916 -0.1111 -0.2829  0.0367
   13MOL    C72 7776   3.833   7.687   1.007  0.0276  0.4861  0.5877
   13MOL    O73 7777   3.745   0.046   1.068 -0.0943  0.0368 -0.0810
   13MOL    N74 7778   3.954   0.039   0.993  0.2331  0.0001 -0.0025
   13MOL    C75 7779   4.001   0.166   1.051  0.5690 -0.0208 -0.7160
   13MOL    C76 7780   3.984   0.299   0.974 -1.0621  0.1148  0.2104
   13MOL    C77 7781   4.029   0.272   0.825 -0.8570  0.3333  0.0205
   13MOL    C78 7782   4.025   0.403   0.740 -0.1562 -0.8539  0.4109
   13MOL    N79 7783   4.039   0.368   0.598 -0.2118 -1.0563  0.4523
   13MOL    H80 7784   3.384   7.440   0.856  2.7457 -0.5697  0.2764
   13MOL    H81 7785   3.338   7.597   0.888 -0.5141 -1.3284 -1.5270
   13MOL    H82 7786   3.563   7.581   0.770  0.7145  2.2265  1.0088
   13MOL    H83 7787   3.561   7.680   0.898 -0.2084  0.3041  0.0056
   13MOL    H84 7788   3.663   7.399   0.882  1.4189  0.5501 -2.2859
   13MOL    H85 7789   3.659   7.470   1.040  2.1206  2.1081  0.8639
   13MOL    H86 7790   3.825   7.592   0.813  3.6879 -0.5007  0.4932
   13MOL    H87 7791   3.882   7.485   0.942  0.0977  0.0710  0.5039
   13MOL    H88 7792   4.023   7.687   0.941  1.3541 -1.0331  2.4698
   13MOL    H89 7793   4.108   0.147   1.060  0.1542 -1.0839  2.6915
   13MOL    H90 7794   3.963   0.176   1.153  2.8625  1.3245  0.0476
   13MOL    H91 7795   3.881   0.335   0.984 -0.6807  1.0404  0.9601
   13MOL    H92 7796   4.053   0.374   1.011  1.6366 -1.4629 -1.5147
   13MOL    H93 7797   3.966   0.195   0.781  0.3292 -0.9533  0.5268
   13MOL    H94 7798   4.126   0.223   0.815 -1.0351  0.0327 -0.2425
   13MOL    H95 7799   4.100   0.479   0.760 -1.3363  0.9902 -1.9373
   13MOL    H96 7800   3.929   0.452   0.753  0.3471  0.5833 -1.0947
   13MOL    H97 7801   4.123   0.320   0.570 -0.1888 -0.8203  0.1028
   13MOL    C98 7802   3.955   0.405   0.495  0.1644  0.0156  0.0715
   13MOL    O99 7803   3.853   0.478   0.518 -0.3395  0.1346  0.4439
   13MOL   C100 7804   3.995   0.366   0.350  0.7396 -0.3911  0.4425
   13MOL   C101 7805   3.878   0.393   0.247  0.5378 -0.1883  0.0238
   13MOL   C102 7806   3.925   0.362   0.105  0.3331 -0.1503 -0.2418
   13MOL   C103 7807   4.028   0.467   0.057  0.2618  0.3852  0.4754
   13MOL   C104 7808   4.034   0.468   7.605 -0.1553 -0.3905  0.4437
   13MOL   O105 7809   4.147   0.466   7.551  0.1377  0.2389  0.1042
   13MOL   N106 7810   3.923   0.483   7.538  0.0078  0.9489  0.1199
   13MOL   C107 7811   3.910   0.478   7.394 -0.1638  0.1080 -0.0146
   13MOL   C108 7812   3.902   0.335   7.355 -0.2831  0.2156  0.1709
   13MOL   C109 7813   3.868   0.316   7.203  0.1146 -0.3760 -0.5622
   13MOL   C110 7814   3.874   0.168   7.165  0.2016  0.2235 -0.2186
   13MOL   N111 7815   3.846   0.153   7.019  0.4537 -0.3494  0.2756
   13MOL   H112 7816   4.071   0.441   0.325 -1.1905  0.9035 -1.6747
   13MOL   H113 7817   4.046   0.270   0.341  1.5984 -0.2479  3.0783
   13MOL   H114 7818   3.798   0.322   0.265 -0.8836  1.1794 -0.8107
   13MOL   H115 7819   3.838   0.494   0.248  2.2030  0.5159 -1.3944
   13MOL   H116 7820   3.837   0.354   0.040 -0.6239  1.1030  0.8642
   13MOL   H117 7821   3.978   0.267   0.099  0.3841 -0.1826  0.7693
   13MOL   H118 7822   4.125   0.439   0.096  0.9425 -1.6554 -2.5167
   13MOL   H119 7823   3.990   0.564   0.090 -1.0432  0.6402 -1.6618
   13MOL   H120 7824   3.839   0.494   7.594  0.6738 -1.7857  1.7603
   13MOL   H121 7825   3.994   0.530   7.348 -0.0740  0.8773  1.0139
   13MOL   H122 7826   3.827   0.542   7.366 -0.8438 -0.7330  0.0836
   13MOL   H123 7827   3.993   0.287   7.394  0.3535 -0.1084 -1.6433
   13MOL   H124 7828   3.817   0.299   7.412 -2.1547  1.6841 -1.5973
   13MOL   H125 7829   3.928   0.381   7.141  1.3626  0.0490  1.0453
   13MOL   H126 7830   3.768   0.358   7.187 -0.7811 -2.6272 -1.0270
   13MOL   H127 7831   3.801   0.113   7.225  1.7310 -1.0993  0.4638
   13MOL   H128 7832   3.969   0.123   7.195  0.2326 -0.0840 -0.7796
   13MOL   H129 7833   3.926   0.151   6.957 -1.2473 -0.3667 -1.9753
   13MOL   C130 7834   3.720   0.158   6.970 -0.9969  0.1507 -0.1625
   13MOL   O131 7835   3.627   0.183   7.043  0.3409  0.0528  0.4182
   13MOL   C132 7836   3.697   0.132   6.823  1.0703  0.2174  0.0177
   13MOL   C133 7837   3.554   0.092   6.779 -0.3404  0.8745  0.0078
   13MOL   C134 7838   3.504   7.659   6.834  0.4206  0.0639  0.0126
   13MOL   C135 7839   3.565   7.535   6.766 -0.2816  0.7975  0.3803
   13MOL   C136 7840   3.509   7.408   6.813  0.4952  0.7195  0.4007
   13MOL   O137 7841   3.525   7.366   6.933 -0.2812 -0.2292 -0.2270
   13MOL   N138 7842   3.447   7.336   6.715  0.4633  0.4453  0.3785
   13MOL   C139 7843   3.377   7.214   6.750  0.4187  0.4897 -0.0668
   13MOL   C140 7844   3.456   7.095   6.706  0.5296 -0.1906 -0.0232
   13MOL   C141 7845   3.377   6.960   6.705  0.6930  0.5990 -0.0545
   13MOL   C142 7846   3.394   6.886   6.836  0.0449  0.0825 -0.7533
   13MOL   N143 7847   3.314   6.761   6.834  0.0405 -0.2397 -0.0058
   13MOL   H144 7848   3.700   0.232   6.781 -1.1537 -0.1031 -0.9444
   13MOL   H145 7849   3.770   0.069   6.772 -0.1884 -0.8364 -0.5207
   13MOL   H146 7850   3.483   0.173   6.797 -0.7929  0.6435 -0.7203
   13MOL   H147 7851   3.533   0.095   6.672 -1.3535 -0.6658  0.1404
   13MOL   H148 7852   3.396   7.652   6.827  0.5361 -0.3168 -1.4806
   13MOL   H149 7853   3.516   7.657   6.942  0.2983 -0.9764  0.0129
   13MOL   H150 7854   3.672   7.536   6.783 -0.4222  0.4042  1.3159
   13MOL   H151 7855   3.559   7.550   6.658 -3.1708 -1.7028  0.1187
   13MOL   H152 7856   3.422   7.368   6.623  0.9517 -0.8055 -0.2052
   13MOL   H153 7857   3.278   7.213   6.703  0.1508 -1.0528  0.5002
   13MOL   H154 7858   3.351   7.193   6.854  1.3846 -1.3884 -0.1690
   13MOL   H155 7859   3.494   7.132   6.610 -0.3678 -0.2256 -0.3958
   13MOL   H156 7860   3.544   7.084   6.769  1.0907 -3.2871 -1.2301
   13MOL   H157 7861   3.421   6.899   6.626 -0.9321  1.6434 -1.8229
   13MOL   H158 7862   3.272   6.979   6.685  0.6670  0.2034 -0.3030
   13MOL   H159 7863   3.377   6.948   6.924 -0.4854  0.0881 -0.8605
   13MOL   H160 7864   3.501   6.866   6.844  0.4174  2.6058  1.1059
   13MOL   H161 7865   3.366   6.676   6.821  0.6012  0.0276  0.4421
   13MOL   C162 7866   3.183   6.750   6.851  0.1388  0.4702 -0.3328
   13MOL   O163 7867   3.112   6.849   6.868 -0.2899  0.2733 -0.4716
   13MOL   C164 7868   3.113   6.611   6.839  0.5377  0.8412 -0.1505
   13MOL   C165 7869   2.980   6.614   6.757 -0.0638  1.0517 -0.1962
   13MOL   C166 7870   2.996   6.615   6.608  0.6426  0.7541  0.1080
   13MOL   C167 7871   3.048   6.747   6.544  0.4177 -0.1261  0.1478
   13MOL   C168 7872   2.946   6.863   6.552  0.6282  0.0453 -0.4671
   13MOL   O169 7873   2.889   6.907   6.449  0.1886 -0.2683  0.0336
   13MOL   N170 7874   2.927   6.917   6.671 -0.4867 -0.7316 -0.2275
   13MOL   C171 7875   2.835   7.020   6.709 -0.2283 -0.2076  0.1053
   13MOL   C172 7876   2.880   7.159   6.676  0.2255 -0.4182  0.5020
   13MOL   C173 7877   3.007   7.201   6.755 -0.3541 -1.2442 -0.4906
   13MOL   C174 7878   3.050   7.354   6.734 -0.6946  0.5872 -0.7481
   13MOL   N175 7879   2.952   7.459   6.782  0.4107  0.3527  0.1966
   13MOL   H176 7880   3.171   6.536   6.787 -0.9709 -0.1801 -0.4045
   13MOL   H177 7881   3.097   6.576   6.941 -1.2619  0.5561 -0.5030
   13MOL   H178 7882   2.928   6.519   6.773  0.1293  0.7013 -1.6178
   13MOL   H179 7883   2.906   6.686   6.793 -0.5161 -0.7958  2.8053
   13MOL   H180 7884   2.904   6.594   6.553 -0.3767  1.0478  1.6614
   13MOL   H181 7885   3.070   6.540   6.581 -0.0028 -0.1226  0.7353
   13MOL   H182 7886   3.042   6.730   6.436 -0.3236  2.7015 -0.2916
   13MOL   H183 7887   3.146   6.787   6.569  0.4141 -0.2425  0.3453
   13MOL   H184 7888   3.000   6.884   6.732  0.7355 -1.0080 -1.7937
   13MOL   H185 7889   2.815   7.012   6.816 -1.5813 -2.6210 -0.2901
   13MOL   H186 7890   2.738   7.002   6.663 -0.6705 -1.6351  1.5331
   13MOL   H187 7891   2.894   7.177   6.570 -0.7383  2.8030  0.8805
   13MOL   H188 7892   2.798   7.228   6.694  1.2361  0.7310  0.7337
   13MOL   H189 7893   3.092   7.136   6.735  0.6475  0.3959 -1.6661
   13MOL   H190 7894   2.985   7.193   6.861  0.0701 -0.2649 -0.3226
   13MOL   H191 7895   3.083   7.363   6.631 -1.3808 -0.7985 -1.0901
   13MOL   H192 7896   3.135   7.386   6.796 -2.6319  0.1739  2.2181
   13MOL   H193 7897   2.898   7.508   6.713 -1.0272 -0.2953  0.8275
   13MOL   C194 7898   2.910   7.472   6.913 -0.3422  0.1115  0.2431
   13MOL   O195 7899   2.947   7.391   6.999 -0.2866 -0.2936  0.1567
   13MOL   C196 7900   2.817   7.585   6.942 -0.2486 -0.8588 -0.5550
   13MOL   C197 7901   2.864   7.658   7.074  0.1984  0.5317  0.3188
   13MOL   C198 7902   2.776   0.071   7.127  0.5621 -0.3086  0.1214
   13MOL   C199 7903   2.744   0.179   7.026  0.0086  0.4036 -0.0242
   13MOL   C200 7904   2.864   0.236   6.961  0.1006 -1.1500  0.1860
   13MOL   O201 7905   2.967   0.253   7.029  0.2037 -0.1171  0.0293
   13MOL   N202 7906   2.861   0.257   6.831  0.2467 -0.0375  0.1918
   13MOL   C203 7907   2.983   0.278   6.759 -0.2033 -0.4344  0.7180
   13MOL   C204 7908   3.033   0.141   6.708 -0.1107 -0.0349  0.2228
   13MOL   C205 7909   3.123   0.139   6.581  0.3557  0.3004  1.1608
   13MOL   C206 7910   3.152   7.689   6.542  0.6790 -0.3263  0.0820
   13MOL   N207 7911   3.254   7.683   6.441 -0.7151  0.0067 -0.9449
   13MOL   H208 7912   2.790   7.648   6.857  1.0951 -1.5513 -1.5153
   13MOL   H209 7913   2.721   7.544   6.973 -1.2271 -0.6879 -3.2225
   13MOL   H210 7914   2.876   7.579   7.149  2.3166 -0.8866 -1.4630
   13MOL   H211 7915   2.966   7.695   7.063  0.4951 -0.2427  0.4068
   13MOL   H212 7916   2.823   0.118   7.214 -1.4659  1.3611  0.3664
   13MOL   H213 7917   2.680   0.035   7.163  0.2149 -1.7078 -2.1221
   13MOL   H214 7918   2.680   0.255   7.071 -0.3744  1.2544 -1.9410
   13MOL   H215 7919   2.690   0.118   6.954 -0.0990  1.8818 -1.2160
   13MOL   H216 7920   2.783   0.240   6.770  2.2934  1.4688 -2.9518
   13MOL   H217 7921   3.074   0.318   6.803  0.3354 -0.8747  0.0273
   13MOL   H218 7922   2.954   0.334   6.670  3.8693 -0.1388 -0.5017
   13MOL   H219 7923   3.072   0.088   6.795 -1.1699 -3.0283 -1.0539
   13MOL   H220 7924   2.941   0.085   6.688 -1.1289  2.2920 -1.8522
   13MOL   H221 7925   3.218   0.185   6.608  2.1304 -2.2237 -0.5450
   13MOL   H222 7926   3.089   0.194   6.494  2.0113 -2.0369 -1.0316
   13MOL   H223 7927   3.062   7.631   6.517  0.5570 -0.3837  0.6535
   13MOL   H224 7928   3.189   7.632   6.627  1.6842 -0.4547 -0.4310
   13MOL   H225 7929   3.257   0.058   6.375 -1.1640  0.2817 -0.6469
   13MOL   C226 7930   3.338   7.579   6.415 -0.3537  0.2636 -0.4747
   13MOL   O227 7931   3.367   7.485   6.499  0.1206 -0.0815  0.0130
   13MOL   C228 7932   3.401   7.581   6.270  0.1242  0.3187  0.3209
   13MOL   C229 7933   3.551   7.623   6.269  0.6070  0.4999 -0.4767
   13MOL   C230 7934   3.653   7.511   6.311 -0.6846  0.0351 -0.1922
   13MOL   C231 7935   3.801   7.568   6.308  0.2510 -0.3301  0.1631
   13MOL   C232 7936   3.835   7.672   6.405 -0.8388 -0.1446 -0.3161
   13MOL   O233 7937   3.859   7.648   6.523  0.0974 -0.0115  0.1178
   13MOL   N234 7938   3.821   0.091   6.362 -0.6842 -0.3604  0.2560
   13MOL   C235 7939   3.814   0.219   6.438 -0.0251  0.3122  0.3133
   13MOL   C236 7940   3.671   0.275   6.452  1.0408  0.4331 -0.1036
   13MOL   C237 7941   3.593   0.287   6.316  0.2582 -0.1037  0.6632
   13MOL   C238 7942   3.455   0.356   6.328  0.0684 -0.2191  0.4117
   13MOL   N239 7943   3.378   0.342   6.207  0.1084  0.7656 -0.4967
   13MOL   H240 7944   3.388   7.486   6.219  0.4426  1.1578 -1.3569
   13MOL   H241 7945   3.354   7.658   6.209 -0.1994  0.1182  0.3187
   13MOL   H242 7946   3.583   7.666   6.174  0.1454 -1.8073 -1.7015
   13MOL   H243 7947   3.568   7.699   6.346  0.8184 -0.1582  0.1241
   13MOL   H244 7948   3.646   7.419   6.254  0.1993 -0.1162 -0.0563
   13MOL   H245 7949   3.632   7.472   6.410  3.0704 -0.6749  0.3805
   13MOL   H246 7950   3.808   7.607   6.206 -0.7047 -1.2219 -0.2549
   13MOL   H247 7951   3.868   7.482   6.319  0.9961  0.1822 -0.3670
   13MOL   H248 7952   3.816   0.112   6.264 -1.7459  1.6209  0.6929
   13MOL   H249 7953   3.882   0.288   6.388  1.1634 -1.6243 -0.8070
   13MOL   H250 7954   3.850   0.206   6.541 -0.0688 -0.9458  0.1788
   13MOL   H251 7955   3.612   0.209   6.516  2.4838 -0.4732  0.3220
   13MOL   H252 7956   3.677   0.374   6.497 -0.9553 -0.2980  1.9151
   13MOL   H253 7957   3.581   0.187   6.275 -0.3144 -0.0578  0.7084
   13MOL   H254 7958   3.651   0.341   6.241 -1.1838  0.9050  0.2489
   13MOL   H255 7959   3.473   0.461   6.348  2.5669 -0.7960  1.4098
   13MOL   H256 7960   3.401   0.314   6.413 -0.6040 -1.4510 -0.6036
   13MOL   H257 7961   3.399   0.395   6.124  0.1134  2.1876  0.3953
   13MOL   C258 7962   3.273   0.261   6.192 -0.1624 -0.6088  0.0336
   13MOL   O259 7963   3.240   0.185   6.285 -0.1238 -0.5750  0.0949
   13MOL   C260 7964   3.200   0.252   6.056 -0.1397 -0.3858  0.2098
   13MOL   C261 7965   3.042   0.252   6.077 -0.0823 -0.4736  0.2961
   13MOL   C262 7966   2.960   0.207   5.952  0.1345 -0.0734 -0.1896
   13MOL   C263 7967   2.805   0.198   5.967  0.0566  0.5438 -0.3969
   13MOL   C264 7968   2.724   0.184   5.836 -0.2142 -0.7463  0.1923
   13MOL   O265 7969   2.781   0.138   5.736  0.0702 -0.4583  0.3663
   13MOL   N266 7970   2.591   0.210   5.838  0.3396  0.2003  0.2870
   13MOL   C267 7971   2.501   0.187   5.726 -0.1052 -0.1474 -0.1536
   13MOL   C268 7972   2.367   0.256   5.749 -0.5627  0.0097 -0.6559
   13MOL   C269 7973   2.371   0.401   5.727 -0.5345  0.2875 -0.0570
   13MOL   C270 7974   2.241   0.488   5.739 -0.2670  0.0801 -0.3790
   13MOL   N271 7975   2.175   0.466   5.866  0.5437 -0.5069  0.6365
   13MOL   H272 7976   3.218   0.336   5.989 -0.3677 -1.7038 -1.5389
   13MOL   H273 7977   3.218   0.157   6.007 -1.0594  0.2148 -1.3274
   13MOL   H274 7978   3.018   0.196   6.167  0.3886  1.1006  1.4256
   13MOL   H275 7979   3.018   0.356   6.100  1.1233  0.1897 -1.3564
   13MOL   H276 7980   2.997   0.109   5.920 -2.5807 -0.4956 -2.1319
   13MOL   H277 7981   2.987   0.277   5.873  0.4336  0.5384  0.4478
   13MOL   H278 7982   2.770   0.288   6.017 -2.2424 -0.2084 -0.5925
   13MOL   H279 7983   2.772   0.115   6.029  0.6122  0.6599  0.0622
   13MOL   H280 7984   2.548   0.248   5.921 -1.4701 -0.2868 -0.3910
   13MOL   H281 7985   2.498   0.079   5.707  0.8907 -0.3143  0.5717
   13MOL   H282 7986   2.541   0.223   5.631 -1.4700 -0.8506 -1.0239
   13MOL   H283 7987   2.305   0.213   5.671  0.3214  0.6492 -1.7304
   13MOL   H284 7988   2.326   0.225   5.845 -0.4841 -0.5032 -0.7846
   13MOL   H285 7989   2.430   0.424   5.638  0.7294  1.9083  1.1593
   13MOL   H286 7990   2.441   0.436   5.803  0.2234 -0.0305 -0.5988
   13MOL   H287 7991   2.170   0.451   5.666 -1.8212  0.3797  0.9476
   13MOL   H288 7992   2.272   0.589   5.711 -1.7966  0.7562  0.3350
   13MOL   H289 7993   2.135   0.374   5.869 -0.7622  0.0062 -0.6926
   13MOL   C290 7994   2.138   0.563   5.951  0.3330 -0.7341  0.3287
   13MOL   O291 7995   2.188   0.676   5.940 -0.5681 -0.1469  0.0438
   13MOL   C292 7996   2.036   0.532   6.060 -0.8673  0.1115  0.4793
   13MOL   C293 7997   1.888   0.534   6.008 -0.2683  0.1328  0.3638
   13MOL   C294 7998   1.803   0.539   6.136  0.3898  0.1320  0.1063
   13MOL   C295 7999   1.651   0.543   6.108 -0.4540  0.1713 -0.0011
   13MOL   C296 8000   1.615   0.662   6.024 -0.1111  0.1490  0.0460
   13MOL   O297 8001   1.642   0.777   6.059  0.4290 -0.1039  0.1778
   13MOL   N298 8002   1.537   0.642   5.921  0.0280 -0.5521 -0.5286
   13MOL   C299 8003   1.480   0.756   5.848  0.7475  0.4662 -0.4133
   13MOL   C300 8004   1.584   0.837   5.763  0.0357  0.3762  0.2034
   13MOL   C301 8005   1.532   0.967   5.697  0.6733  0.4429 -0.1378
   13MOL   C302 8006   1.639   1.035   5.608 -0.1891  0.1708  0.1009
   13MOL   N303 8007   1.679   0.959   5.493  0.1642  0.1513  0.0183
   13MOL   H304 8008   2.058   0.431   6.096 -1.6767 -0.3596 -0.3057
   13MOL   H305 8009   2.058   0.594   6.146  2.4174  2.3525 -1.8498
   13MOL   H306 8010   1.872   0.626   5.952  0.8678  0.7968  1.0966
   13MOL   H307 8011   1.860   0.451   5.942  3.2198 -0.5073 -0.4403
   13MOL   H308 8012   1.834   0.619   6.203 -0.9914 -1.2990  2.5399
   13MOL   H309 8013   1.818   0.448   6.195  1.0974 -0.4001 -0.8769
   13MOL   H310 8014   1.593   0.561   6.199 -3.0858 -1.7209 -1.2219
   13MOL   H311 8015   1.609   0.454   6.062  1.3768 -2.1033  2.5109
   13MOL   H312 8016   1.512   0.546   5.904  2.0669 -1.3757  0.9436
   13MOL   H313 8017   1.426   0.814   5.924  0.4184  0.3159 -0.5312
   13MOL   H314 8018   1.398   0.727   5.783  0.6529  0.2601 -0.2026
   13MOL   H315 8019   1.680   0.846   5.815  0.3729 -1.2708 -0.0779
   13MOL   H316 8020   1.625   0.776   5.682 -1.0342  1.6611 -1.3153
   13MOL   H317 8021   1.502   1.039   5.773 -1.3502 -0.9637  0.4280
   13MOL   H318 8022   1.448   0.953   5.629 -0.4316 -0.1833  1.3312
   13MOL   H319 8023   1.729   1.031   5.670 -0.6469  1.5132  0.8797
   13MOL   H320 8024   1.605   1.136   5.584 -0.2513  0.4834  1.4131
   13MOL   H321 8025   1.767   0.910   5.497  0.1382  0.1114  0.0927
   13MOL   C322 8026   1.618   0.945   5.376 -0.0867 -0.3017  0.2514
   13MOL   O323 8027   1.510   0.993   5.361 -0.3231  0.4176  0.0549
   13MOL   C324 8028   1.686   0.850   5.285 -0.2213  0.2885 -0.1707
   13MOL   C325 8029   1.783   0.917   5.177  0.6447  0.0668  0.1423
   13MOL   C326 8030   1.938   0.907   5.204 -0.2081 -0.2901  0.1865
   13MOL   C327 8031   2.042   0.948   5.099 -0.2169  0.4150 -0.1366
   13MOL   C328 8032   2.058   1.095   5.071 -0.7521 -0.7415  0.3449
   13MOL   O329 8033   2.052   1.176   5.162  0.1358 -0.2321  0.4500
   13MOL   N330 8034   2.079   1.127   4.938  0.2117  1.0427  0.1174
   13MOL   C331 8035   2.055   1.259   4.880  0.0400  0.0285  0.1953
   13MOL   C332 8036   2.110   1.281   4.737 -0.4074  0.2791  0.1756
   13MOL   C333 8037   2.105   1.422   4.686  0.0663  0.2438  0.8965
   13MOL   C334 8038   2.180   1.449   4.554 -0.8889  0.1805  0.9959
   13MOL   N335 8039   2.120   1.561   4.485 -0.5164  0.4198  0.1683
   13MOL   H336 8040   1.741   0.777   5.345 -1.1751 -1.9888 -1.9949
   13MOL   H337 8041   1.613   0.797   5.223 -0.7311  0.3327  0.3876
   13MOL   H338 8042   1.750   0.877   5.081 -0.3144 -0.4381  0.6708
   13MOL   H339 8043   1.762   1.024   5.175 -3.6120 -0.7012 -0.7952
   13MOL   H340 8044   1.954   0.803   5.234 -0.8593  0.0757  1.8641
   13MOL   H341 8045   1.957   0.961   5.297  1.3559  0.5384 -0.6016
   13MOL   H342 8046   2.010   0.895   5.009  0.7267 -0.1374 -0.1452
   13MOL   H343 8047   2.141   0.909   5.120 -1.3985 -1.8954  1.3641
   13MOL   H344 8048   2.075   1.049   4.875 -0.0212  0.0649  1.3342
   13MOL   H345 8049   2.104   1.330   4.947  1.7372  0.4666 -1.4911
   13MOL   H346 8050   1.950   1.287   4.892 -0.1268 -1.0147  1.3197
   13MOL   H347 8051   2.215   1.257   4.729 -0.5428 -0.1621 -0.3058
   13MOL   H348 8052   2.055   1.229   4.658  1.6644 -0.0422 -1.0748
   13MOL   H349 8053   2.148   1.485   4.765 -1.6192  1.8734  0.5304
   13MOL   H350 8054   2.009   1.468   4.667  1.6929  2.4520 -2.4535
   13MOL   H351 8055   2.174   1.363   4.486 -0.1850 -0.5352  1.8271
   13MOL   H352 8056   2.288   1.459   4.566 -0.7105  0.8685 -0.9069
   13MOL   H353 8057   2.038   1.531   4.434 -0.2520 -0.8476  0.4603
   13MOL   C354 8058   2.174   1.683   4.482  0.1345  0.0680  0.9167
   13MOL   O355 8059   2.271   1.705   4.549 -0.3263 -0.2639  0.5100
   13MOL   C356 8060   2.098   1.795   4.414 -0.3525 -0.2875 -0.7876
   13MOL   C357 8061   2.072   1.920   4.503 -0.5510 -0.2884  0.5952
   13MOL   C358 8062   1.937   1.910   4.578 -0.4703 -0.2515  0.4038
   13MOL   C359 8063   1.906   2.026   4.670 -0.0128 -0.2999 -0.5331
   13MOL   C360 8064   1.851   2.146   4.598  0.0836 -0.1724 -0.1757
   13MOL   O361 8065   1.833   2.136   4.476  0.3124 -0.0163  0.1052
   13MOL   N362 8066   1.849   2.260   4.668 -0.3579 -0.4189  0.2051
   13MOL   C363 8067   1.775   2.381   4.619 -0.0160 -0.4214 -0.0833
   13MOL   C364 8068   1.882   2.491   4.581 -0.3687 -0.2634  0.1258
   13MOL   C365 8069   1.832   2.632   4.545 -0.1952 -0.3384  0.4073
   13MOL   C366 8070   1.935   2.715   4.471  0.1091  0.5385 -0.4743
   13MOL   N367 8071   2.061   2.747   4.545 -0.2819 -0.0797 -0.0431
   13MOL   H368 8072   2.171   1.832   4.342  0.7386 -0.0557  0.4065
   13MOL   H369 8073   2.008   1.763   4.362 -0.3570 -2.0155  0.2403
   13MOL   H370 8074   2.160   1.931   4.566 -0.2220 -1.3421  0.3454
   13MOL   H371 8075   2.081   2.005   4.435  0.4900 -0.5481  0.3930
   13MOL   H372 8076   1.941   1.825   4.647 -1.0633  0.6121  1.5211
   13MOL   H373 8077   1.856   1.892   4.508 -0.3855 -0.3230  0.3223
   13MOL   H374 8078   1.992   2.056   4.731 -0.9100  0.6222  0.2950
   13MOL   H375 8079   1.841   1.989   4.749 -0.2830 -0.5208 -0.8587
   13MOL   H376 8080   1.888   2.255   4.761 -0.2917 -0.9077  0.1517
   13MOL   H377 8081   1.706   2.408   4.699 -0.4065  0.3162 -0.6660
   13MOL   H378 8082   1.716   2.361   4.529 -1.5369 -0.4477  0.8956
   13MOL   H379 8083   1.957   2.498   4.660 -0.6493 -0.3277  0.3983
   13MOL   H380 8084   1.925   2.452   4.489  1.0141  0.2889  0.5348
   13MOL   H381 8085   1.790   2.684   4.631  0.4814 -0.3063  0.7263
   13MOL   H382 8086   1.749   2.633   4.475  0.5009  1.3152 -0.4519
   13MOL   H383 8087   1.887   2.807   4.439  1.2473  1.2386 -0.2050
   13MOL   H384 8088   1.959   2.667   4.376  2.7548 -1.3987  1.1107
   13MOL   H385 8089   2.131   2.675   4.549 -1.8152 -1.6123  0.0426
   13MOL   C386 8090   2.090   2.861   4.607  0.0108  0.2263 -0.0513
   13MOL   O387 8091   2.016   2.960   4.618  0.0913  0.3683  0.5009
   13MOL   C388 8092   2.228   2.867   4.660 -0.8748 -0.5131 -0.0522
   13MOL   C389 8093   2.312   2.970   4.582  1.0497 -0.2584  0.1273
   13MOL   C390 8094   2.443   3.006   4.654  0.1636 -0.3330  0.6288
   13MOL   C391 8095   2.514   3.127   4.583  0.4649 -0.0561  0.3759
   13MOL   C392 8096   2.650   3.148   4.641  0.4144 -0.2666 -0.1734
   13MOL   O393 8097   2.751   3.120   4.576  0.5733 -0.2154 -0.5776
   13MOL   N394 8098   2.662   3.193   4.765 -0.2654  0.0123 -0.5002
   13MOL   C395 8099   2.786   3.233   4.823 -0.8090  0.1384  0.0702
   13MOL   C396 8100   2.768   3.351   4.917 -0.8096  0.2159  0.0288
   13MOL   C397 8101   2.903   3.419   4.961 -0.6023 -0.4783 -0.3934
   13MOL   C398 8102   2.993   3.329   5.042 -0.8882 -0.1359  0.1689
   13MOL   N399 8103   3.112   3.386   5.101  0.2486 -0.3668 -0.0212
   13MOL   H400 8104   2.216   2.911   4.759  4.1001 -0.5876  0.6750
   13MOL   H401 8105   2.275   2.769   4.665  1.1564  0.4227 -0.4369
   13MOL   H402 8106   2.320   2.936   4.479 -1.0258 -2.2896  0.5862
   13MOL   H403 8107   2.263   3.066   4.571 -1.1295 -1.2730  0.6671
   13MOL   H404 8108   2.510   2.921   4.648  1.0013  0.3927 -0.5135
   13MOL   H405 8109   2.419   3.031   4.758 -0.6036  0.4857  0.2656
   13MOL   H406 8110   2.453   3.216   4.597 -3.2962 -2.3251 -0.7982
   13MOL   H407 8111   2.519   3.114   4.475 -0.7048 -0.1360  0.3242
   13MOL   H408 8112   2.577   3.236   4.798  0.1292  0.3899  0.0459
   13MOL   H409 8113   2.849   3.274   4.744  0.1217  0.7827  1.1310
   13MOL   H410 8114   2.853   3.155   4.860  1.8076  0.3690 -3.8643
   13MOL   H411 8115   2.712   3.430   4.868  1.2371  0.4026 -2.0887
   13MOL   H412 8116   2.697   3.327   4.996  2.5068 -2.2634  2.3970
   13MOL   H413 8117   2.876   3.495   5.034 -1.2971 -1.7283  0.6867
   13MOL   H414 8118   2.954   3.459   4.873  0.6853 -2.7529 -0.7287
   13MOL   H415 8119   3.020   3.236   4.993 -0.1958 -1.7772  3.5215
   13MOL   H416 8120   2.928   3.308   5.128  0.6598  1.5111  1.8119
   13MOL   H417 8121   3.126   3.398   5.201  1.0788  1.2662 -0.3238
   13MOL   C418 8122   3.220   3.414   5.035  0.5744  0.0717 -0.0137
   13MOL   O419 8123   3.227   3.388   4.912  0.1015  0.3380 -0.2266
   13MOL   C420 8124   3.341   3.467   5.113  0.0017 -0.1560 -0.1751
   13MOL   C421 8125   3.406   3.589   5.045 -0.0700 -0.5110 -0.7704
   13MOL   C422 8126   3.542   3.619   5.110  0.7811  0.6510  0.4679
   13MOL   C423 8127   3.648   3.509   5.076  0.4989 -0.1053  0.0107
   13MOL   C424 8128   3.671   3.491   4.927  0.6188  0.4055  0.8528
   13MOL   O425 8129   3.691   3.589   4.853 -0.0903 -0.4176  0.3263
   13MOL   N426 8130   3.665   3.364   4.878  0.1648  0.1330 -0.6122
   13MOL   C427 8131   3.672   3.330   4.739 -0.2959 -0.7967  0.4420
   13MOL   C428 8132   3.524   3.304   4.684  0.2745  0.3656  0.2711
   13MOL   C429 8133   3.504   3.310   4.531 -0.2138  0.3757 -0.1927
   13MOL   C430 8134   3.584   3.209   4.447 -0.6084 -0.0474 -0.3646
   13MOL   N431 8135   3.587   3.078   4.516  0.5835  0.1172  0.8763
   13MOL   H432 8136   3.308   3.492   5.214 -0.9406 -0.4164 -0.4098
   13MOL   H433 8137   3.404   3.379   5.119 -0.2663 -0.2527  1.3345
   13MOL   H434 8138   3.417   3.566   4.939 -0.7139  0.6191 -1.0886
   13MOL   H435 8139   3.340   3.673   5.066  0.3927 -0.5830  1.0420
   13MOL   H436 8140   3.530   3.620   5.218 -0.1409  2.5151  0.3739
   13MOL   H437 8141   3.578   3.719   5.088 -2.5918  1.6051 -1.0699
   13MOL   H438 8142   3.610   3.415   5.116 -1.5252  0.5456 -0.2800
   13MOL   H439 8143   3.742   3.537   5.123 -0.7835 -1.1884  3.4072
   13MOL   H440 8144   3.656   3.287   4.943 -0.9486  0.5222 -0.2864
   13MOL   H441 8145   3.741   3.247   4.724  0.7105 -0.1159  1.2584
   13MOL   H442 8146   3.708   3.419   4.686  1.6406 -0.6662  1.9541
   13MOL   H443 8147   3.494   3.205   4.720  0.8716  0.9355  2.4525
   13MOL   H444 8148   3.452   3.367   4.735  0.6624  0.7608  0.3340
   13MOL   H445 8149   3.519   3.414   4.501 -0.6520  0.9165  1.3646
   13MOL   H446 8150   3.398   3.290   4.518  0.1481 -1.7709  0.0247
   13MOL   H447 8151   3.687   3.245   4.440 -0.3449 -1.1374 -2.8084
   13MOL   H448 8152   3.557   3.200   4.341  1.3079  0.7516 -0.9482
   13MOL   H449 8153   3.505   3.044   4.563  1.0257 -1.7888  0.3180
   13MOL   C450 8154   3.695   3.009   4.536 -0.7751  0.3488 -0.0374
   13MOL   O451 8155   3.805   3.046   4.502  0.4386 -0.1279  0.5011
   13MOL   C452 8156   3.666   2.873   4.610  0.1650 -0.4565  0.1301
   13MOL   C453 8157   3.695   2.862   4.768 -0.3175 -0.1507 -0.9265
   13MOL   C454 8158   3.841   2.896   4.800 -0.8040 -0.0896  0.3191
   13MOL   C455 8159   3.888   2.888   4.946  0.1921  0.3517 -0.4269
   13MOL   C456 8160   3.822   2.994   5.025 -0.8489  0.1997  0.2784
   13MOL   O457 8161   3.873   3.107   5.028  0.2191  0.6957 -0.4495
   13MOL   N458 8162   3.711   2.966   5.091  0.0474  0.3518 -0.3368
   13MOL   C459 8163   3.632   3.058   5.176  0.3632  0.3505 -0.1461
   13MOL   C460 8164   3.482   3.033   5.170  0.4111  0.2467 -0.0113
   13MOL   C461 8165   3.412   3.058   5.036  0.4441 -0.1396 -0.4294
   13MOL   C462 8166   3.256   3.055   5.044  0.3094  0.1409  0.1876
   13MOL   N463 8167   3.204   3.075   4.906  0.4467 -0.4533 -0.1229
   13MOL   H464 8168   3.563   2.840   4.596 -0.3357  1.1959 -0.2091
   13MOL   H465 8169   3.714   2.794   4.552 -0.8788  0.7428 -2.4159
   13MOL   H466 8170   3.635   2.933   4.825  0.2535 -0.7199  0.4023
   13MOL   H467 8171   3.672   2.767   4.817 -0.9227  1.3195  1.6962
   13MOL   H468 8172   3.868   2.990   4.752 -3.8229  0.8090  0.2519
   13MOL   H469 8173   3.902   2.826   4.743  0.7289  3.2693 -2.3452
   13MOL   H470 8174   3.992   2.919   4.939  0.9963 -2.1288 -0.0126
   13MOL   H471 8175   3.898   2.788   4.986  0.9935  0.9197  0.8138
   13MOL   H472 8176   3.675   2.872   5.082 -0.4590  0.1790  3.0153
   13MOL   H473 8177   3.644   3.166   5.162 -1.0652  0.2671 -2.1230
   13MOL   H474 8178   3.669   3.039   5.277  1.6430 -2.5602 -1.0998
   13MOL   H475 8179   3.460   2.929   5.196 -0.8551  0.9548  1.7882
   13MOL   H476 8180   3.440   3.090   5.252  2.2119 -1.9845  2.5872
   13MOL   H477 8181   3.455   2.992   4.962 -0.8404  0.8605 -2.1232
   13MOL   H478 8182   3.439   3.157   4.998  1.0961  0.3263  1.2050
   13MOL   H479 8183   3.217   3.127   5.116 -0.6630  1.1211 -1.2994
   13MOL   H480 8184   3.230   2.958   5.087 -0.9301 -0.6872 -2.3361
   13MOL   H481 8185   3.175   3.168   4.878 -0.0347 -0.2109  1.1462
   13MOL   C482 8186   3.175   2.977   4.818  0.1296  0.7577  0.4201
   13MOL   O483 8187   3.190   2.860   4.840 -0.4597  0.5308  0.0091
   13MOL   C484 8188   3.101   3.025   4.694  0.0042 -0.6966  0.5395
   13MOL   C485 8189   3.178   2.982   4.567  0.2451  0.1800  0.8166
   13MOL   C486 8190   3.102   3.007   4.434 -0.2370 -0.3009  0.3639
   13MOL   C487 8191   3.150   2.912   4.320 -0.1463  0.1258  0.7957
   13MOL   C488 8192   3.108   2.768   4.329 -0.8144  0.1527 -0.0656
   13MOL   O489 8193   2.989   2.734   4.328  0.4138  0.9673  0.4179
   13MOL   N490 8194   3.206   2.679   4.331  0.7577  0.5604  0.4150
   13MOL   C491 8195   3.205   2.534   4.350  0.2524 -0.6853 -0.1426
   13MOL   C492 8196   3.245   2.499   4.497 -0.2044  0.2424 -0.2904
   13MOL   C493 8197   3.258   2.345   4.518 -0.7169  0.2012  0.1356
   13MOL   C494 8198   3.289   2.321   4.665 -0.3294 -0.4790 -0.0213
   13MOL   N495 8199   3.314   2.186   4.708 -0.3814  0.4072 -0.1841
   13MOL   H496 8200   3.007   2.971   4.691 -0.6673  0.5641 -1.9131
   13MOL   H497 8201   3.093   3.133   4.682  2.1568 -0.5102  0.5939
   13MOL   H498 8202   3.271   3.040   4.567  1.7538 -2.1711 -0.1217
   13MOL   H499 8203   3.213   2.880   4.582 -0.1356  0.0641  0.9248
   13MOL   H500 8204   3.122   3.106   4.394  1.2915 -1.2169 -1.1861
   13MOL   H501 8205   2.993   3.000   4.442 -0.2216  1.9513  3.2496
   13MOL   H502 8206   3.254   2.937   4.299 -0.5834  0.1812 -1.3794
   13MOL   H503 8207   3.111   2.944   4.223  1.9770 -1.1412 -0.5108
   13MOL   H504 8208   3.297   2.722   4.317  0.4915  1.2351  0.7151
   13MOL   H505 8209   3.280   2.483   4.290 -0.7931 -2.0719 -0.2826
   13MOL   H506 8210   3.113   2.485   4.317  0.2229 -1.0122  0.4267
   13MOL   H507 8211   3.339   2.550   4.521  0.2926 -1.0870  0.6501
   13MOL   H508 8212   3.169   2.520   4.572  0.4088  1.6003 -0.0315
   13MOL   H509 8213   3.351   2.318   4.468  0.0187  1.4772  0.7858
   13MOL   H510 8214   3.179   2.283   4.476 -0.3820  0.4219 -0.8195
   13MOL   H511 8215   3.204   2.343   4.730  0.2708 -2.6200  1.5569
   13MOL   H512 8216   3.366   2.391   4.698 -1.0630 -0.9347  2.7712
   13MOL   H513 8217   3.250   2.119   4.747 -0.1442  2.1004  3.2385
   13MOL   C514 8218   3.430   2.120   4.681  0.4564 -0.6116  0.8494
   13MOL   O515 8219   3.537   2.167   4.630  0.4542  0.3416  0.2353
   13MOL   C516 8220   3.440   1.980   4.736 -0.4732  0.2210 -0.0898
   13MOL   C517 8221   3.550   1.967   4.834  0.2834  0.5453  0.1774
   13MOL   C518 8222   3.519   2.049   4.963 -0.6678  0.6711 -0.0269
   13MOL   C519 8223   3.608   2.009   5.083 -0.7975  0.0438  0.0232
   13MOL   C520 8224   3.620   2.118   5.194 -0.7153  0.3672  0.7845
   13MOL   O521 8225   3.530   2.205   5.207 -0.2004  0.1408  0.2601
   13MOL   N522 8226   3.733   2.122   5.264 -0.2659 -0.4397 -0.0120
   13MOL   C523 8227   3.763   2.237   5.352  0.5420 -0.7166  0.2032
   13MOL   C524 8228   3.899   2.220   5.431  0.1297  0.1927  0.5341
   13MOL   C525 8229   4.022   2.193   5.342  0.7804  0.3848  0.0615
   13MOL   C526 8230   4.153   2.172   5.421 -0.5534  0.3415 -0.0934
   13MOL   N527 8231   4.260   2.118   5.334  0.7765 -0.2402  0.5739
   13MOL   H528 8232   3.340   1.951   4.770 -1.0841 -1.8439 -3.4578
   13MOL   H529 8233   3.451   1.910   4.653  0.9119 -0.9816  1.0945
   13MOL   H530 8234   3.548   1.862   4.866  1.7914  0.8496  1.3135
   13MOL   H531 8235   3.649   1.987   4.794  0.5778  0.9031  1.0827
   13MOL   H532 8236   3.414   2.028   4.984 -0.5456 -0.6286 -0.6305
   13MOL   H533 8237   3.524   2.155   4.940 -1.8455  0.2943 -2.2019
   13MOL   H534 8238   3.710   1.986   5.053 -0.6577 -0.9048  1.2026
   13MOL   H535 8239   3.582   1.922   5.144  0.6153  0.6296  1.4734
   13MOL   H536 8240   3.802   2.053   5.235 -0.9441 -1.0369 -0.2231
   13MOL   H537 8241   3.682   2.266   5.419  1.7994  1.0853  0.9723
   13MOL   H538 8242   3.779   2.320   5.284  0.1817 -2.6875 -2.3680
   13MOL   H539 8243   3.911   2.320   5.473  0.7365  1.6968 -3.0255
   13MOL   H540 8244   3.908   2.147   5.511 -2.9934 -0.6752  0.1552
   13MOL   H541 8245   4.034   2.273   5.268 -2.5567  1.1851  0.3196
   13MOL   H542 8246   4.001   2.104   5.284  2.0968 -0.1174  0.3475
   13MOL   H543 8247   4.138   2.100   5.501 -0.0401  2.8371  2.3434
   13MOL   H544 8248   4.184   2.255   5.486 -1.1645  1.6057 -1.4099
   13MOL   H545 8249   4.271   2.159   5.242 -1.4302 -1.9735 -0.4859
   13MOL   C546 8250   4.364   2.057   5.391  0.5980 -0.3248  0.3883
   13MOL   O547 8251   4.360   2.002   5.500  0.3521 -0.2653 -0.1181
   13MOL   C548 8252   4.500   2.059   5.317 -0.1298 -0.0094 -0.2127
   13MOL   C549 8253   4.566   2.192   5.335 -0.2673  0.1447  0.1879
   13MOL   C550 8254   4.496   2.313   5.257 -0.2447  0.3354  0.3356
   13MOL   C551 8255   4.596   2.424   5.213  0.1643  0.2240 -0.5343
   13MOL   C552 8256   4.639   2.505   5.331  0.0778  0.2988 -0.4028
   13MOL   O553 8257   4.573   2.509   5.432  0.1588 -0.1489 -0.1806
   13MOL   N554 8258   4.761   2.567   5.330  0.7062 -0.6867 -0.3974
   13MOL   C555 8259   4.813   2.639   5.447  0.7463  0.2537 -0.0978
   13MOL   C556 8260   4.969   2.666   5.442  0.3336  1.2929  0.4667
   13MOL   C557 8261   5.027   2.757   5.547  0.0855 -0.2315  0.1536
   13MOL   C558 8262   5.177   2.729   5.579 -0.4703 -0.3924  0.0544
   13MOL   N559 8263   5.228   2.809   5.691  0.0610 -0.3665  0.9187
   13MOL   H560 8264   4.561   1.977   5.355 -0.1393  0.8960  1.8287
   13MOL   H561 8265   4.481   2.044   5.211  1.2888  1.8803 -0.7608
   13MOL   H562 8266   4.596   2.216   5.437  2.3082 -1.2844 -0.1976
   13MOL   H563 8267   4.664   2.173   5.290 -0.8117 -3.1436  0.2857
   13MOL   H564 8268   4.409   2.347   5.313 -1.9765 -2.8603 -0.3312
   13MOL   H565 8269   4.458   2.279   5.161 -0.6537  2.3486 -0.2338
   13MOL   H566 8270   4.558   2.489   5.133  0.3979  1.0944  0.0592
   13MOL   H567 8271   4.683   2.372   5.173 -1.4106 -2.6009 -0.4486
   13MOL   H568 8272   4.814   2.555   5.244  2.7508 -1.1390  0.8942
   13MOL   H569 8273   4.779   2.588   5.537 -1.3288 -0.9499 -1.5457
   13MOL   H570 8274   4.766   2.737   5.454 -1.5801 -0.7177 -1.6905
   13MOL   H571 8275   5.021   2.572   5.457  0.4653  1.2136 -0.4773
   13MOL   H572 8276   4.997   2.686   5.339 -1.0166  0.6729 -0.0359
   13MOL   H573 8277   4.964   2.749   5.635  1.2710 -3.0288  0.7873
   13MOL   H574 8278   5.011   2.860   5.512  0.5360 -0.4424 -0.6952
   13MOL   H575 8279   5.241   2.756   5.495 -1.0906 -2.9542 -1.3134
   13MOL   H576 8280   5.192   2.623   5.599 -2.6438 -1.1295 -1.9046
   13MOL   H577 8281   5.294   2.881   5.665  0.3892 -1.5540 -1.7528
   13MOL   C578 8282   5.203   2.790   5.824  0.3976  0.7695  0.3612
   13MOL   O579 8283   5.129   2.697   5.857  0.3154 -0.5429 -0.0331
   13MOL   C580 8284   5.269   2.882   5.921 -0.7116  0.4928 -0.3884
   13MOL   C581 8285   5.279   2.842   6.068  0.3941  0.4990  0.4106
   13MOL   C582 8286   5.395   2.919   6.130  0.1214 -0.5034  0.6036
   13MOL   C583 8287   5.429   2.883   6.279  0.4794 -0.1615 -0.5740
   13MOL   C584 8288   5.335   2.908   6.391 -0.7418  0.0058 -0.0632
   13MOL   O585 8289   5.228   2.850   6.397  0.1823  0.3148  0.4438
   13MOL   N586 8290   5.368   3.000   6.477 -0.2610  0.6457 -0.5389
   13MOL   C587 8291   5.285   3.039   6.586  1.2620 -0.2338 -0.7697
   13MOL   C588 8292   5.342   3.166   6.653 -0.1319  0.1768  0.4810
   13MOL   C589 8293   5.321   3.167   6.810  0.0719 -0.0058  0.3957
   13MOL   C590 8294   5.176   3.172   6.847  0.0753  0.1609 -0.7238
   13MOL   N591 8295   5.168   3.181   6.995  0.0018 -0.6953  0.1916
   13MOL   H592 8296   5.372   2.898   5.888 -0.7863 -0.2243 -0.9672
   13MOL   H593 8297   5.225   2.981   5.919 -2.6558 -0.3807 -1.6132
   13MOL   H594 8298   5.183   2.858   6.116 -0.4820  2.1583 -1.7843
   13MOL   H595 8299   5.302   2.735   6.072  0.2130  0.4422  0.0084
   13MOL   H596 8300   5.389   3.026   6.112 -1.7792 -0.5838  0.6452
   13MOL   H597 8301   5.482   2.887   6.072  0.5387  1.2535  0.2285
   13MOL   H598 8302   5.528   2.923   6.301 -0.2573  1.5211 -0.2779
   13MOL   H599 8303   5.457   2.778   6.290 -0.5848 -0.1732  2.5524
   13MOL   H600 8304   5.455   3.052   6.480  0.1553 -0.1212  2.4616
   13MOL   H601 8305   5.276   2.951   6.650 -1.5353 -0.1732 -1.0518
   13MOL   H602 8306   5.183   3.053   6.552  0.4146 -1.5449  1.1538
   13MOL   H603 8307   5.446   3.184   6.626 -0.5585  1.7387 -0.1997
   13MOL   H604 8308   5.303   3.257   6.606  0.7410 -0.3087 -1.2082
   13MOL   H605 8309   5.380   3.247   6.853 -0.7878  0.0468  1.4981
   13MOL   H606 8310   5.361   3.073   6.849  2.1146  0.8232  0.3587
   13MOL   H607 8311   5.126   3.085   6.804 -1.4225  1.2588 -1.2378
   13MOL   H608 8312   5.129   3.260   6.801 -1.7809 -0.3441  0.1624
   13MOL   H609 8313   5.249   3.166   7.054 -0.0016  0.3474  0.4824
   13MOL   C610 8314   5.060   3.218   7.069  0.2529 -0.0726 -0.9199
   13MOL   O611 8315   4.955   3.248   7.013 -0.3068  0.5748  0.3187
   13MOL   C612 8316   5.081   3.223   7.216 -0.3893 -0.3434 -0.2899
   13MOL   C613 8317   5.088   3.079   7.281 -0.6851  0.4703 -0.3612
   13MOL   C614 8318   5.120   3.087   7.438 -0.3598  0.0834 -0.2406
   13MOL   C615 8319   5.142   2.948   7.500 -0.0421 -0.1184 -0.6865
   13MOL   C616 8320   5.261   2.864   7.446  0.1329 -0.2450 -0.2857
   13MOL   O617 8321   5.331   2.896   7.347 -0.0903 -0.7537 -0.2185
   13MOL   N618 8322   5.298   2.757   7.512  0.2414 -0.0579  0.2831
   13MOL   C619 8323   5.421   2.675   7.492  0.4927 -0.3310 -0.3912
   13MOL   C620 8324   5.530   2.696   7.597  0.3611  0.2236  0.0167
   13MOL   C621 8325   5.648   2.595   7.582 -0.2660  0.0893 -0.4501
   13MOL   C622 8326   5.719   2.590   0.014 -0.1298 -0.3353  0.4874
   13MOL   N623 8327   5.841   2.515   7.691  0.1169  0.0479  0.0633
   13MOL   H624 8328   5.174   3.276   7.236 -0.7948  0.3752 -0.3206
   13MOL   H625 8329   5.000   3.270   7.270  1.8198  0.6093  2.2878
   13MOL   H626 8330   4.997   3.022   7.266 -0.0636 -0.3162 -1.1912
   13MOL   H627 8331   5.168   3.028   7.228 -2.2560 -1.0248 -1.3314
   13MOL   H628 8332   5.047   3.145   7.495  1.2388  2.6098 -0.6966
   13MOL   H629 8333   5.215   3.140   7.445 -0.0925 -0.1960 -1.6216
   13MOL   H630 8334   5.046   2.897   7.496  0.3069 -1.0371  1.6180
   13MOL   H631 8335   5.160   2.963   7.607 -0.3748  2.5051 -0.9804
   13MOL   H632 8336   5.244   2.730   7.593 -1.2338  3.4466  0.5546
   13MOL   H633 8337   5.463   2.679   7.392  2.4319  1.7579  0.4687
   13MOL   H634 8338   5.383   2.573   7.502 -0.7427  0.0037 -1.4519
   13MOL   H635 8339   5.576   2.792   7.577  0.1302  0.2335 -0.4584
   13MOL   H636 8340   5.487   2.701   7.697 -2.5606 -0.7897 -1.1321
   13MOL   H637 8341   5.720   2.632   7.509  1.5769 -0.0651  1.2521
   13MOL   H638 8342   5.618   2.495   7.549  1.0333  0.0490 -1.5675
   13MOL   H639 8343   5.653   2.538   0.084 -0.9873  1.2849  0.9222
   13MOL   H640 8344   5.728   2.680   0.076 -3.1137  0.1000  0.3380
   13MOL   H641 8345   5.881   2.496   0.080  1.8760  3.7456  0.1519
   13MOL   H642 8346   5.824   2.425   7.648  1.3248 -0.8875  1.4911
   14MOL     C1 8347   6.339   2.956   3.903  0.5122 -0.2966 -0.0959
   14MOL     O2 8348   6.264   2.861   3.932  0.2829  0.0030 -0.2779
   14MOL     C3 8349   6.381   2.988   3.757  0.3070 -0.2635  0.0828
   14MOL     C4 8350   6.293   2.911   3.653  0.0635  0.2526  0.4106
   14MOL     C5 8351   6.146   2.954   3.651  1.0637  0.1643  0.8684
   14MOL     C6 8352   6.063   2.865   3.560  0.5961  0.6192  0.0719
   14MOL     C7 8353   6.084   2.878   3.412  0.1117  0.5610 -0.6066
   14MOL     O8 8354   6.068   2.778   3.344 -0.0358 -0.4611  0.1589
   14MOL     N9 8355   6.090   3.000   3.358 -0.1937  0.1571  0.2879
   14MOL    C10 8356   6.119   3.031   3.215 -0.4942  0.4365  0.2003
   14MOL    C11 8357   6.047   3.172   3.180 -0.5822  0.3495  0.7894
   14MOL    C12 8358   6.033   3.185   3.026  0.6881 -0.3552 -0.5094
   14MOL    C13 8359   5.941   3.294   2.996  0.5117  0.4392  0.4752
   14MOL    N14 8360   5.938   3.310   2.848  0.5471  0.0167 -0.0676
   14MOL    H15 8361   6.371   3.095   3.741  2.7797  0.1593  1.0255
   14MOL    H16 8362   6.485   2.955   3.746  0.4989  0.7888 -1.5098
   14MOL    H17 8363   6.347   2.917   3.559 -0.5879 -4.7928 -0.4212
   14MOL    H18 8364   6.296   2.804   3.671 -0.3373  0.4249  1.5871
   14MOL    H19 8365   6.129   3.058   3.623 -0.0536  0.2336  1.7658
   14MOL    H20 8366   6.106   2.939   3.751 -0.6999 -0.5549  0.0694
   14MOL    H21 8367   5.962   2.904   3.571  0.7633  0.7745  1.1197
   14MOL    H22 8368   6.078   2.760   3.586  0.6318  0.7031  0.3890
   14MOL    H23 8369   6.095   3.075   3.425 -1.7748 -0.5277  1.1881
   14MOL    H24 8370   6.085   2.955   3.145 -1.3474 -0.2870  1.3908
   14MOL    H25 8371   6.227   3.038   3.202 -0.3050 -0.7022  1.0936
   14MOL    H26 8372   5.949   3.156   3.224 -0.2417  0.8439  1.7288
   14MOL    H27 8373   6.098   3.257   3.225  1.4589 -0.5586  0.2900
   14MOL    H28 8374   5.995   3.087   2.996 -0.1815  0.1761 -1.1663
   14MOL    H29 8375   6.132   3.203   2.983  0.5756  1.7173  0.0206
   14MOL    H30 8376   5.968   3.386   3.047 -0.3314  0.6036  0.6386
   14MOL    H31 8377   5.840   3.282   3.034  0.1228  0.1411 -0.6118
   14MOL    H32 8378   6.026   3.316   2.799  2.0229 -1.3822  2.3170
   14MOL    H33 8379   6.381   3.019   3.982  3.7501 -1.5509 -0.7400
   14MOL    C34 8380   5.828   3.323   2.774 -0.2168  0.4119 -0.3747
   14MOL    O35 8381   5.710   3.317   2.814 -0.0431 -0.2857 -0.4274
   14MOL    C36 8382   5.849   3.350   2.620  0.2625  0.0964 -0.2667
   14MOL    C37 8383   5.741   3.452   2.569  0.4775 -0.0406 -0.2019
   14MOL    C38 8384   5.742   3.468   2.418 -0.1369  0.6268 -0.4296
   14MOL    C39 8385   5.672   3.597   2.365 -0.3033 -0.0275 -0.0171
   14MOL    C40 8386   5.520   3.592   2.377  0.0119 -0.3650  0.2885
   14MOL    O41 8387   5.465   3.503   2.312 -0.2207  0.0179  0.1179
   14MOL    N42 8388   5.453   3.678   2.453  0.0147 -0.4099 -0.7117
   14MOL    C43 8389   5.306   3.693   2.465 -0.2603  0.4017  0.9039
   14MOL    C44 8390   5.255   3.659   2.609  0.3974  0.1099  0.1423
   14MOL    C45 8391   5.347   3.698   2.724  0.2355 -0.4200 -0.0935
   14MOL    C46 8392   5.359   3.854   2.731 -0.5231  0.3089 -0.0107
   14MOL    N47 8393   5.240   3.939   2.701  0.4779 -0.4362  0.0519
   14MOL    H48 8394   5.946   3.398   2.609  0.2328 -0.0328 -1.1519
   14MOL    H49 8395   5.839   3.253   2.572 -1.5217 -0.4479  1.1548
   14MOL    H50 8396   5.643   3.425   2.609 -0.4861  0.0632 -2.4408
   14MOL    H51 8397   5.758   3.550   2.613  2.2459 -0.7148  0.6549
   14MOL    H52 8398   5.695   3.383   2.370 -1.0862  0.8774  0.0277
   14MOL    H53 8399   5.846   3.480   2.388 -0.3680 -0.4783 -1.6574
   14MOL    H54 8400   5.684   3.609   2.258  2.6018  0.9746  0.3903
   14MOL    H55 8401   5.716   3.683   2.416 -0.7428  0.6591 -0.7763
   14MOL    H56 8402   5.503   3.746   2.510 -1.3518 -0.8686  1.0653
   14MOL    H57 8403   5.269   3.625   2.389  2.2648 -0.1619  0.1198
   14MOL    H58 8404   5.283   3.795   2.433 -0.0070  0.6260  1.4389
   14MOL    H59 8405   5.153   3.692   2.625  0.2713  0.2076 -0.8406
   14MOL    H60 8406   5.257   3.552   2.627  1.8688 -0.1154 -1.2484
   14MOL    H61 8407   5.439   3.642   2.708  0.0804 -1.1047  1.3478
   14MOL    H62 8408   5.303   3.666   2.819  0.8089  0.4639  0.4715
   14MOL    H63 8409   5.428   3.882   2.651  1.6941  1.0262  2.0714
   14MOL    H64 8410   5.412   3.874   2.825 -0.5649  2.6617 -0.4390
   14MOL    H65 8411   5.149   3.906   2.728 -0.2312  1.3752 -0.0987
   14MOL    C66 8412   5.236   4.059   2.638 -0.3738  0.0173  0.0919
   14MOL    O67 8413   5.342   4.123   2.612  0.6137  0.1181 -0.4709
   14MOL    C68 8414   5.107   4.114   2.605  0.4041 -0.3494  0.1453
   14MOL    C69 8415   5.104   4.211   2.486 -0.0692  1.0321  0.5714
   14MOL    C70 8416   5.156   4.153   2.349  0.3770  0.1262 -0.5185
   14MOL    C71 8417   5.197   4.262   2.249  0.2452 -0.2110  0.1987
   14MOL    C72 8418   5.249   4.187   2.114 -0.2429 -0.0731 -0.4471
   14MOL    O73 8419   5.210   4.075   2.075  0.1629 -0.5272 -0.1106
   14MOL    N74 8420   5.354   4.251   2.053  0.7321  0.6714  0.1286
   14MOL    C75 8421   5.412   4.209   1.926 -0.1334 -0.0322  0.3313
   14MOL    C76 8422   5.470   4.322   1.839  0.3341 -0.3654  1.1166
   14MOL    C77 8423   5.365   4.438   1.811 -0.4182  0.9535 -0.6191
   14MOL    C78 8424   5.264   4.411   1.693 -0.0292  0.1807 -0.0387
   14MOL    N79 8425   5.335   4.383   1.568  0.6451  0.0227 -0.2410
   14MOL    H80 8426   5.044   4.028   2.585  1.1665 -1.2443  1.4604
   14MOL    H81 8427   5.070   4.159   2.698 -0.7686 -2.3966  0.6931
   14MOL    H82 8428   5.001   4.243   2.465 -0.4632 -2.3445 -3.2341
   14MOL    H83 8429   5.154   4.306   2.503 -0.0758  1.2649 -0.6500
   14MOL    H84 8430   5.077   4.100   2.296 -1.1125  0.8415  0.9219
   14MOL    H85 8431   5.234   4.078   2.352 -0.5579 -0.8887 -1.5002
   14MOL    H86 8432   5.268   4.329   2.295 -0.5319  0.3356  0.6095
   14MOL    H87 8433   5.107   4.322   2.231 -0.2848 -1.2785 -0.8094
   14MOL    H88 8434   5.374   4.343   2.087  1.7683 -0.4031  2.5348
   14MOL    H89 8435   5.346   4.148   1.863 -0.0459 -0.1992  0.4004
   14MOL    H90 8436   5.497   4.146   1.952  0.4186  0.9662  0.9803
   14MOL    H91 8437   5.559   4.371   1.878  0.2515  0.3996  0.3472
   14MOL    H92 8438   5.492   4.276   1.743 -1.2664  2.0238 -0.4398
   14MOL    H93 8439   5.424   4.527   1.793 -0.0703  0.7396 -0.5399
   14MOL    H94 8440   5.306   4.463   1.900 -1.1946  0.3157 -0.9452
   14MOL    H95 8441   5.202   4.499   1.676  1.0597  0.7823 -0.9381
   14MOL    H96 8442   5.196   4.333   1.726  0.7334  0.0445  1.2384
   14MOL    H97 8443   5.373   4.290   1.552 -1.4357 -1.4663  2.9969
   14MOL    C98 8444   5.358   4.465   1.468 -1.2826 -0.3232 -0.1991
   14MOL    O99 8445   5.328   4.585   1.462  0.3134 -0.1490  0.5864
   14MOL   C100 8446   5.446   4.405   1.359  0.6771 -1.2166  0.0438
   14MOL   C101 8447   5.596   4.432   1.360  0.1661  0.2690  0.0665
   14MOL   C102 8448   5.631   4.544   1.260  0.9344 -0.2773  1.0485
   14MOL   C103 8449   5.783   4.584   1.257 -0.4428 -0.2807 -0.6943
   14MOL   C104 8450   5.861   4.481   1.169  0.2277  0.4024  0.1079
   14MOL   O105 8451   5.835   4.465   1.051  0.7106  0.0694  0.6442
   14MOL   N106 8452   5.951   4.409   1.231 -0.1871  0.1173  0.4967
   14MOL   C107 8453   6.010   4.285   1.176 -0.0167  0.1761  0.6830
   14MOL   C108 8454   6.156   4.323   1.154 -0.0826 -0.0817 -0.7142
   14MOL   C109 8455   6.240   4.343   1.277  0.1752  0.5055  0.1817
   14MOL   C110 8456   6.237   4.220   1.363  0.0281 -0.0211 -0.0007
   14MOL   N111 8457   6.355   4.201   1.442 -0.2894  0.2991  0.3022
   14MOL   H112 8458   5.447   4.298   1.382 -1.1511 -1.1781  0.3674
   14MOL   H113 8459   5.400   4.417   1.261 -0.3177  1.3460  0.7876
   14MOL   H114 8460   5.628   4.453   1.462  2.5740 -1.6037 -0.2534
   14MOL   H115 8461   5.655   4.348   1.324  0.1913  0.8353 -1.2195
   14MOL   H116 8462   5.571   4.634   1.272  1.3949  0.0897  0.6204
   14MOL   H117 8463   5.603   4.518   1.157  1.8719  1.4984  0.3271
   14MOL   H118 8464   5.831   4.601   1.354  0.7841 -1.7881 -1.0115
   14MOL   H119 8465   5.791   4.682   1.209  1.7968 -1.3131 -2.5380
   14MOL   H120 8466   5.957   4.423   1.331  0.2070  1.1637  0.3320
   14MOL   H121 8467   5.971   4.262   1.077  1.0571 -1.4660  0.6223
   14MOL   H122 8468   5.999   4.203   1.247 -0.7558 -0.0251  0.3423
   14MOL   H123 8469   6.211   4.259   1.085  1.3364  0.7548 -0.4027
   14MOL   H124 8470   6.150   4.408   1.087 -0.0182  0.4182 -0.0871
   14MOL   H125 8471   6.203   4.424   1.340  2.4442  1.3710  0.4331
   14MOL   H126 8472   6.340   4.370   1.242  0.5776  0.2649  1.1450
   14MOL   H127 8473   6.227   4.134   1.297 -1.3918  0.6316 -0.6647
   14MOL   H128 8474   6.160   4.226   1.440  1.5123  1.4121  1.4301
   14MOL   H129 8475   6.415   4.282   1.442 -1.2030  1.0072 -1.7739
   14MOL   C130 8476   6.389   4.087   1.519  0.4090 -0.4855  0.3565
   14MOL   O131 8477   6.312   3.990   1.527  0.3071  0.1388 -0.4063
   14MOL   C132 8478   6.519   4.098   1.595 -0.5185 -0.0304 -0.5207
   14MOL   C133 8479   6.647   4.042   1.528  0.1682  0.1315 -0.2047
   14MOL   C134 8480   6.774   4.043   1.614 -0.7018 -0.4546  0.3305
   14MOL   C135 8481   6.906   4.046   1.531 -0.4579 -0.1758  0.6062
   14MOL   C136 8482   7.036   4.075   1.613  0.2117 -0.1104  0.3352
   14MOL   O137 8483   7.037   4.077   1.736 -0.0409 -0.1332  0.2724
   14MOL   N138 8484   7.141   4.103   1.542  0.5956  0.5214  0.1120
   14MOL   C139 8485   7.266   4.151   1.600 -0.0315 -0.3875 -0.3064
   14MOL   C140 8486   7.335   4.048   1.682 -0.3158  0.3357 -0.6170
   14MOL   C141 8487   7.373   3.918   1.597  0.2126  0.4002 -0.3099
   14MOL   C142 8488   7.465   3.829   1.675  0.3703 -0.3297  0.2079
   14MOL   N143 8489   7.434   3.806   1.811 -0.1663  0.1990 -0.2845
   14MOL   H144 8490   6.541   4.203   1.614 -1.3944  0.2677 -1.1163
   14MOL   H145 8491   6.509   4.056   1.695 -0.8565  2.0160  0.3284
   14MOL   H146 8492   6.629   3.943   1.488  0.8102 -0.4452  0.9219
   14MOL   H147 8493   6.661   4.105   1.440 -1.8612  1.3971  0.3295
   14MOL   H148 8494   6.782   3.963   1.687 -2.3295 -0.8567  0.0767
   14MOL   H149 8495   6.772   4.129   1.682 -0.3414  1.2750 -1.8066
   14MOL   H150 8496   6.906   4.125   1.456 -3.4846 -0.0074  0.7157
   14MOL   H151 8497   6.929   3.965   1.461  1.7069  0.0238  1.0622
   14MOL   H152 8498   7.135   4.090   1.442 -1.3881 -0.1382  0.2940
   14MOL   H153 8499   7.244   4.244   1.652  0.5030 -1.0033  1.0467
   14MOL   H154 8500   7.328   4.192   1.520  2.5941  0.4509  2.0425
   14MOL   H155 8501   7.421   4.095   1.731 -2.1576  0.7619  2.3494
   14MOL   H156 8502   7.280   4.016   1.771  2.4909 -0.4899  0.8946
   14MOL   H157 8503   7.421   3.944   1.503 -1.0331 -1.3530 -1.4674
   14MOL   H158 8504   7.289   3.849   1.581  0.7593 -1.1925  3.2279
   14MOL   H159 8505   7.564   3.874   1.688 -0.2114  1.0932 -0.1578
   14MOL   H160 8506   7.482   3.737   1.620 -1.2790 -0.2517 -0.4583
   14MOL   H161 8507   7.399   3.890   1.856  0.4951 -0.0376  0.6928
   14MOL   C162 8508   7.447   3.696   1.883 -0.2256  0.4041 -0.3409
   14MOL   O163 8509   7.487   3.588   1.834  0.5479 -0.1222  0.0458
   14MOL   C164 8510   7.414   3.705   2.033  0.3540  0.2711 -0.3193
   14MOL   C165 8511   7.398   3.564   2.099  0.2658  0.0310 -0.0549
   14MOL   C166 8512   7.250   3.513   2.105 -0.1210  0.0843  0.5860
   14MOL   C167 8513   7.249   3.378   2.182  0.2481 -0.4639  0.0796
   14MOL   C168 8514   7.113   3.319   2.192 -0.0649  1.1452 -0.4706
   14MOL   O169 8515   7.055   3.325   2.302 -0.0737  0.4385  0.1735
   14MOL   N170 8516   7.067   3.245   2.091 -0.2917  0.1595 -0.8702
   14MOL   C171 8517   6.935   3.181   2.089 -0.2914 -0.4055  0.3834
   14MOL   C172 8518   6.858   3.222   1.956 -0.1468  0.2487 -0.4400
   14MOL   C173 8519   6.856   3.377   1.927  0.5312  0.2604 -0.5156
   14MOL   C174 8520   6.787   3.448   2.045  0.6238 -0.4087  0.5063
   14MOL   N175 8521   6.750   3.585   2.012 -0.3290 -0.6007 -0.1888
   14MOL   H176 8522   7.510   3.746   2.065 -0.1819  0.7446  0.6953
   14MOL   H177 8523   7.335   3.778   2.049  2.3143  1.7888  2.9387
   14MOL   H178 8524   7.470   3.493   2.057  0.0535  0.4795 -1.1900
   14MOL   H179 8525   7.435   3.558   2.201  1.3420  1.5341 -0.3508
   14MOL   H180 8526   7.215   3.491   2.004  0.7599  2.7182 -0.3219
   14MOL   H181 8527   7.174   3.583   2.140  0.5848  1.6360 -0.9000
   14MOL   H182 8528   7.279   3.387   2.286 -2.0525  0.0583  0.7306
   14MOL   H183 8529   7.320   3.314   2.130 -0.0403 -0.7287  0.0131
   14MOL   H184 8530   7.118   3.245   2.003 -0.3516  2.5804 -0.9261
   14MOL   H185 8531   6.877   3.201   2.179 -2.2983 -1.7064 -0.5621
   14MOL   H186 8532   6.954   3.074   2.099 -1.3570 -0.7998 -1.4189
   14MOL   H187 8533   6.914   3.181   1.872  3.1715  0.3027  1.6725
   14MOL   H188 8534   6.765   3.165   1.950  1.3511 -2.3200 -0.0009
   14MOL   H189 8535   6.792   3.390   1.840  1.0252  2.0830 -0.6330
   14MOL   H190 8536   6.955   3.421   1.910 -1.0694  3.8074 -1.0764
   14MOL   H191 8537   6.847   3.448   2.136  0.0255  0.8954  0.9088
   14MOL   H192 8538   6.695   3.392   2.064  0.9647 -1.4910 -0.8891
   14MOL   H193 8539   6.654   3.603   1.987  0.5151  0.2347 -2.9280
   14MOL   C194 8540   6.846   3.679   2.001 -0.5577 -0.1974  0.3212
   14MOL   O195 8541   6.967   3.659   2.011  0.4766 -0.4717  0.2948
   14MOL   C196 8542   6.790   3.819   1.986 -0.5137 -0.5614 -0.1385
   14MOL   C197 8543   6.878   3.924   2.051 -0.6547 -0.2495 -0.8567
   14MOL   C198 8544   6.829   4.064   2.032  0.2251 -0.8239  0.5378
   14MOL   C199 8545   6.697   4.106   2.101 -0.1850  0.6807 -0.0345
   14MOL   C200 8546   6.710   4.120   2.254 -0.4234  0.0298  0.6071
   14MOL   O201 8547   6.650   4.043   2.339 -0.2289 -0.1133 -0.3097
   14MOL   N202 8548   6.798   4.214   2.293 -0.6603 -0.5584  0.0912
   14MOL   C203 8549   6.846   4.241   2.426  0.2180  0.1719  0.6873
   14MOL   C204 8550   6.875   4.391   2.436 -0.2814  0.0600 -0.4911
   14MOL   C205 8551   6.906   4.428   2.580  1.0506 -0.3485  0.4395
   14MOL   C206 8552   7.040   4.399   2.647  0.5802  0.0406 -0.1311
   14MOL   N207 8553   7.141   4.477   2.579  0.4545 -0.1754  0.0530
   14MOL   H208 8554   6.784   3.848   1.881 -1.8531  0.3714  0.1846
   14MOL   H209 8555   6.691   3.830   2.031 -0.3519 -1.0148  0.3252
   14MOL   H210 8556   6.866   3.898   2.156  0.2222 -0.4321 -0.7977
   14MOL   H211 8557   6.984   3.915   2.028 -0.4444 -0.1108  0.0087
   14MOL   H212 8558   6.813   4.097   1.929  0.9511  0.2252  0.7461
   14MOL   H213 8559   6.908   4.125   2.077 -0.9577  1.3921 -0.3056
   14MOL   H214 8560   6.615   4.036   2.082 -0.9310  1.5107  0.0468
   14MOL   H215 8561   6.679   4.203   2.055  2.9478  1.2164 -0.2069
   14MOL   H216 8562   6.824   4.268   2.212 -2.5170  0.9324  0.4572
   14MOL   H217 8563   6.932   4.179   2.452 -1.8786 -2.5367  1.3540
   14MOL   H218 8564   6.771   4.218   2.502 -1.6062  1.2289 -0.7534
   14MOL   H219 8565   6.959   4.424   2.374  0.0072  0.2181 -0.0200
   14MOL   H220 8566   6.782   4.447   2.425  0.6077  1.7581  0.4730
   14MOL   H221 8567   6.835   4.386   2.652  0.1798  0.4091  0.0307
   14MOL   H222 8568   6.881   4.533   2.593 -1.7453 -1.1617  1.9935
   14MOL   H223 8569   7.062   4.294   2.629 -0.2179 -0.0230 -0.7493
   14MOL   H224 8570   7.033   4.408   2.755 -1.3833  0.0360 -0.2335
   14MOL   H225 8571   7.209   4.442   2.513  0.6242  3.0922 -1.6063
   14MOL   C226 8572   7.139   4.609   2.603 -0.3025  0.7256 -0.3041
   14MOL   O227 8573   7.080   4.669   2.694 -0.0072 -0.7085 -0.2161
   14MOL   C228 8574   7.227   4.694   2.517  0.1750  0.2522 -0.1341
   14MOL   C229 8575   7.169   4.823   2.467  0.3226 -0.4769 -0.6999
   14MOL   C230 8576   7.024   4.821   2.415 -0.1656 -0.7697  0.8928
   14MOL   C231 8577   7.012   4.733   2.284 -0.8729 -0.1997  1.0659
   14MOL   C232 8578   7.078   4.784   2.161 -0.4108 -0.4056 -0.1891
   14MOL   O233 8579   7.132   4.893   2.158 -0.6377 -0.4318 -0.1833
   14MOL   N234 8580   7.069   4.705   2.051  0.6228  0.1513 -0.1667
   14MOL   C235 8581   7.144   4.727   1.928  0.6325 -0.4504  0.5263
   14MOL   C236 8582   7.058   4.785   1.816  0.0336  0.3502 -0.3376
   14MOL   C237 8583   7.121   4.808   1.682  0.7072  0.3424 -0.7224
   14MOL   C238 8584   7.026   4.855   1.575 -0.0806  0.3823  0.0685
   14MOL   N239 8585   6.947   4.973   1.616 -0.1118  0.1119 -0.2678
   14MOL   H240 8586   7.316   4.722   2.572 -0.4413  1.2913  0.3463
   14MOL   H241 8587   7.281   4.634   2.443 -1.8004 -2.0326  0.2205
   14MOL   H242 8588   7.163   4.886   2.555  1.6600  1.4174 -1.9404
   14MOL   H243 8589   7.232   4.873   2.394  0.3194  0.2190 -0.2210
   14MOL   H244 8590   7.011   4.928   2.396  1.0329 -0.3852  2.1556
   14MOL   H245 8591   6.947   4.785   2.483 -1.9816  1.9221  0.3605
   14MOL   H246 8592   6.909   4.723   2.250 -0.3012  0.7744 -1.0945
   14MOL   H247 8593   7.043   4.631   2.303 -0.3226  0.0478  1.5079
   14MOL   H248 8594   7.025   4.617   2.071  0.9561 -0.5570 -2.3907
   14MOL   H249 8595   7.183   4.630   1.895  0.1405 -0.0815 -1.1811
   14MOL   H250 8596   7.234   4.786   1.942 -0.9269  2.1576 -0.1884
   14MOL   H251 8597   6.980   4.710   1.802  1.3610 -1.1449  0.0830
   14MOL   H252 8598   7.010   4.875   1.854  2.8547  0.9165  2.1006
   14MOL   H253 8599   7.154   4.711   1.645  2.1521 -0.0976  1.6411
   14MOL   H254 8600   7.204   4.877   1.699  0.9969 -0.5381  1.5725
   14MOL   H255 8601   6.969   4.770   1.537  0.7303 -0.2632  0.2979
   14MOL   H256 8602   7.075   4.891   1.485 -1.3375  1.7734 -0.0931
   14MOL   H257 8603   6.991   5.047   1.668 -1.6397  0.8793 -0.0563
   14MOL   C258 8604   6.823   4.986   1.572 -0.2806 -0.0789 -0.3670
   14MOL   O259 8605   6.775   4.920   1.481  0.2337 -0.5570 -0.2718
   14MOL   C260 8606   6.728   5.075   1.647  0.0162 -0.4898 -0.1384
   14MOL   C261 8607   6.590   5.003   1.682 -1.3591  0.0306  0.1438
   14MOL   C262 8608   6.602   4.859   1.748 -0.1585  0.1815  0.2929
   14MOL   C263 8609   6.676   4.869   1.881  0.1739 -0.3132  0.5096
   14MOL   C264 8610   6.666   4.734   1.955  0.3881 -0.9108 -0.3950
   14MOL   O265 8611   6.646   4.634   1.887 -0.7916  0.5804  0.5517
   14MOL   N266 8612   6.668   4.729   2.089  0.6197 -0.0025  0.0356
   14MOL   C267 8613   6.667   4.618   2.175  1.1053 -0.0361  0.4570
   14MOL   C268 8614   6.541   4.537   2.164  0.5105 -0.0327 -0.1118
   14MOL   C269 8615   6.421   4.613   2.219  0.0586  0.1372 -0.2597
   14MOL   C270 8616   6.343   4.700   2.122  0.6853 -0.4866  0.2999
   14MOL   N271 8617   6.236   4.796   2.167 -0.1653 -0.4784  0.6885
   14MOL   H272 8618   6.768   5.114   1.741  0.2810 -3.7566  1.1754
   14MOL   H273 8619   6.712   5.166   1.590  2.5129 -0.4180 -0.7446
   14MOL   H274 8620   6.532   5.065   1.751 -0.5347  0.5144  0.4015
   14MOL   H275 8621   6.531   4.994   1.591 -2.4666  2.0872  0.6022
   14MOL   H276 8622   6.638   4.784   1.677  0.5545 -0.2929  1.1379
   14MOL   H277 8623   6.500   4.828   1.768 -0.3349  0.6975  0.1914
   14MOL   H278 8624   6.638   4.956   1.934  1.1632  0.8134 -0.6289
   14MOL   H279 8625   6.780   4.893   1.864  0.5610 -2.0736  0.2223
   14MOL   H280 8626   6.681   4.817   2.137  3.6188 -0.0659 -0.5101
   14MOL   H281 8627   6.677   4.646   2.280 -1.9518 -0.2685  0.8659
   14MOL   H282 8628   6.753   4.558   2.147  3.5474  3.0635  0.9839
   14MOL   H283 8629   6.525   4.495   2.065 -2.0150 -0.2153  0.3409
   14MOL   H284 8630   6.565   4.451   2.228  0.4654  0.0543  0.0226
   14MOL   H285 8631   6.443   4.676   2.305 -2.9532 -0.3768  0.9699
   14MOL   H286 8632   6.349   4.541   2.260 -0.1443  0.7648  0.5110
   14MOL   H287 8633   6.312   4.638   2.038 -0.3109  0.4812 -0.0528
   14MOL   H288 8634   6.408   4.762   2.059  0.6513 -0.6951  0.0573
   14MOL   H289 8635   6.232   4.874   2.104  1.6686 -1.0376 -0.1582
   14MOL   C290 8636   6.137   4.776   2.253 -0.2135 -0.2969  0.5099
   14MOL   O291 8637   6.120   4.671   2.321  0.3574  0.0023 -0.2771
   14MOL   C292 8638   6.049   4.894   2.269 -0.0276  0.3136 -0.8573
   14MOL   C293 8639   5.918   4.894   2.190 -0.0795  0.5938  0.2369
   14MOL   C294 8640   5.922   4.866   2.043 -0.0535  0.1434  0.3269
   14MOL   C295 8641   5.967   4.986   1.960  0.0359  0.3902  0.4669
   14MOL   C296 8642   6.114   4.989   1.927 -0.1165 -0.1681  0.0778
   14MOL   O297 8643   6.160   4.889   1.869  0.2458 -0.1412 -0.2279
   14MOL   N298 8644   6.185   5.096   1.944  0.0538  0.0010 -0.1600
   14MOL   C299 8645   6.329   5.104   1.921  0.3737  0.5188 -0.3697
   14MOL   C300 8646   6.412   5.138   2.052  0.0520  0.8669  0.3777
   14MOL   C301 8647   6.368   5.253   2.134  0.7096 -0.3180  0.6744
   14MOL   C302 8648   6.419   5.390   2.085 -0.1329  0.1617 -0.4707
   14MOL   N303 8649   6.360   5.441   1.966 -0.6600  0.0150  0.4748
   14MOL   H304 8650   6.025   4.883   2.375  2.1416  0.8520 -0.2812
   14MOL   H305 8651   6.110   4.985   2.269  2.6847 -1.4198  0.3076
   14MOL   H306 8652   5.862   4.809   2.229 -2.2552  1.8671 -0.0643
   14MOL   H307 8653   5.866   4.988   2.208  1.3047  1.7171 -1.4662
   14MOL   H308 8654   5.815   4.855   2.023 -0.2703  0.2455  1.3947
   14MOL   H309 8655   5.984   4.778   2.031  0.5278  0.7108 -0.9834
   14MOL   H310 8656   5.940   5.074   2.017 -3.7728 -0.9336  0.8230
   14MOL   H311 8657   5.901   4.983   1.874  0.3636 -0.2127  0.2301
   14MOL   H312 8658   6.138   5.183   1.964  2.1866  0.8939  1.1347
   14MOL   H313 8659   6.353   5.185   1.851 -1.2267 -0.3116 -1.9168
   14MOL   H314 8660   6.364   5.014   1.870  1.2255  1.7986 -2.1022
   14MOL   H315 8661   6.402   5.050   2.116 -1.8288 -0.7659 -2.0859
   14MOL   H316 8662   6.518   5.138   2.027  0.3402  0.7995  1.5566
   14MOL   H317 8663   6.392   5.239   2.239  0.2661 -2.8218  0.4774
   14MOL   H318 8664   6.260   5.264   2.123  0.7467  0.5637  1.1225
   14MOL   H319 8665   6.527   5.400   2.075 -0.2552  1.3440 -0.6791
   14MOL   H320 8666   6.389   5.460   2.162  0.2379 -1.0378  0.7780
   14MOL   H321 8667   6.260   5.433   1.953 -0.2203 -1.3984 -2.3417
   14MOL   C322 8668   6.423   5.470   1.857 -0.2841  0.4595 -0.2733
   14MOL   O323 8669   6.545   5.467   1.840 -0.4725  0.7778 -0.5903
   14MOL   C324 8670   6.340   5.529   1.754  0.7268  0.4788  0.3544
   14MOL   C325 8671   6.335   5.445   1.626 -0.1986 -0.8820  0.2268
   14MOL   C326 8672   6.318   5.536   1.502 -0.2084 -0.5646  0.1212
   14MOL   C327 8673   6.291   5.451   1.370  0.2536  0.1117  0.4873
   14MOL   C328 8674   6.415   5.375   1.324  0.9048 -0.4860 -0.5798
   14MOL   O329 8675   6.527   5.419   1.351 -0.1299 -0.1542 -0.1094
   14MOL   N330 8676   6.392   5.253   1.270  0.6271  0.3041 -0.8996
   14MOL   C331 8677   6.490   5.151   1.248  0.2347  0.1551  0.2340
   14MOL   C332 8678   6.549   5.161   1.108  0.4823  0.3538 -0.4604
   14MOL   C333 8679   6.454   5.102   0.991 -0.4983  0.0708  0.3082
   14MOL   C334 8680   6.517   5.118   0.852 -0.0464  0.0345 -0.3761
   14MOL   N335 8681   6.484   5.017   0.754 -0.3148 -0.6351 -0.0173
   14MOL   H336 8682   6.235   5.538   1.780  0.5554 -1.2824  0.3924
   14MOL   H337 8683   6.377   5.631   1.748 -0.1084  0.7524 -0.2028
   14MOL   H338 8684   6.423   5.382   1.616  0.7949 -0.2479  4.0169
   14MOL   H339 8685   6.247   5.382   1.632 -1.0096  0.2763  0.8521
   14MOL   H340 8686   6.410   5.594   1.492 -0.0800 -0.3158  2.4024
   14MOL   H341 8687   6.236   5.604   1.521  1.0420  1.4643 -1.5411
   14MOL   H342 8688   6.263   5.512   1.284  2.4102  0.2749 -0.1279
   14MOL   H343 8689   6.210   5.378   1.378  0.9224 -0.8804 -1.4369
   14MOL   H344 8690   6.294   5.230   1.259  0.4560  0.4568  0.2817
   14MOL   H345 8691   6.440   5.054   1.258 -0.5919  0.4280 -1.1313
   14MOL   H346 8692   6.565   5.171   1.325 -0.6271 -0.7853  1.3473
   14MOL   H347 8693   6.584   5.261   1.084 -0.8486  1.1679  0.8873
   14MOL   H348 8694   6.641   5.102   1.108  1.6537  2.1293 -1.2362
   14MOL   H349 8695   6.364   5.163   0.983  0.0665  0.5960 -2.5944
   14MOL   H350 8696   6.420   5.001   1.015 -1.2742 -0.0461 -1.2039
   14MOL   H351 8697   6.624   5.128   0.869  0.1630  2.7403 -2.9545
   14MOL   H352 8698   6.471   5.208   0.812 -2.1056 -0.2775  1.2492
   14MOL   H353 8699   6.389   4.982   0.763 -0.0239 -1.1141  1.2749
   14MOL   C354 8700   6.571   4.961   0.673  0.2695 -0.1721 -0.3437
   14MOL   O355 8701   6.691   5.002   0.659 -0.0967 -0.2769 -0.6282
   14MOL   C356 8702   6.515   4.838   0.600 -0.0965 -0.3946  0.2064
   14MOL   C357 8703   6.597   4.777   0.487 -0.5955  0.4724 -0.0538
   14MOL   C358 8704   6.522   4.667   0.418  0.0977 -0.5807 -0.3992
   14MOL   C359 8705   6.487   4.545   0.507  0.4460 -0.0844  0.3405
   14MOL   C360 8706   6.347   4.556   0.571  0.0220 -0.4133  0.2697
   14MOL   O361 8707   6.249   4.596   0.507  0.0414 -0.3624  0.1231
   14MOL   N362 8708   6.331   4.502   0.692  0.3332 -0.4718 -0.8943
   14MOL   C363 8709   6.214   4.527   0.772 -0.1378 -0.1928 -0.6370
   14MOL   C364 8710   6.208   4.672   0.830  0.4018 -0.0720 -0.0645
   14MOL   C365 8711   6.121   4.690   0.964 -0.2572  0.7270  0.1977
   14MOL   C366 8712   6.133   4.828   1.029  0.3863  0.4290  0.3622
   14MOL   N367 8713   6.072   4.826   1.163  0.2069  0.4330 -0.0513
   14MOL   H368 8714   6.502   4.759   0.675 -0.1902 -0.8114 -0.2469
   14MOL   H369 8715   6.420   4.873   0.561 -0.6245 -0.3180  1.5070
   14MOL   H370 8716   6.620   4.849   0.409 -1.6366 -0.3654 -1.1649
   14MOL   H371 8717   6.693   4.740   0.523 -0.7345  0.1398 -0.0140
   14MOL   H372 8718   6.593   4.637   0.341  1.5101  2.1050 -0.2215
   14MOL   H373 8719   6.435   4.698   0.361  0.7906  0.7481 -0.7372
   14MOL   H374 8720   6.569   4.535   0.578  0.9641  0.4345 -0.1818
   14MOL   H375 8721   6.490   4.457   0.442 -0.2635 -0.8397  1.3204
   14MOL   H376 8722   6.412   4.454   0.729  1.4825  2.6451  0.8506
   14MOL   H377 8723   6.215   4.454   0.853  2.3771  0.5076 -0.0282
   14MOL   H378 8724   6.125   4.502   0.713 -1.0164  1.6951 -0.1320
   14MOL   H379 8725   6.307   4.715   0.845  0.2338  0.0476  0.7638
   14MOL   H380 8726   6.176   4.745   0.756 -0.8542 -0.7520 -0.1963
   14MOL   H381 8727   6.144   4.612   1.037  0.6048  1.3905  0.6491
   14MOL   H382 8728   6.014   4.689   0.945 -0.1107  1.5851 -0.7541
   14MOL   H383 8729   6.094   4.909   0.967  0.1526  0.5656  0.6857
   14MOL   H384 8730   6.241   4.843   1.037  0.3915  1.4382 -1.1829
   14MOL   H385 8731   6.028   4.747   1.207  0.1086  0.9406  0.7789
   14MOL   C386 8732   6.120   4.912   1.251 -0.3792  0.0480  0.0091
   14MOL   O387 8733   6.170   5.020   1.228  0.0257 -0.8542 -0.2141
   14MOL   C388 8734   6.123   4.869   1.396 -0.2187 -0.4920 -0.0359
   14MOL   C389 8735   6.026   4.939   1.492 -0.2942  0.0803 -0.2660
   14MOL   C390 8736   6.064   5.083   1.516 -0.2557  0.0505  0.0344
   14MOL   C391 8737   5.987   5.163   1.625 -0.3836  0.1609  0.0644
   14MOL   C392 8738   5.902   5.278   1.564 -0.0727  0.2743 -0.6012
   14MOL   O393 8739   5.955   5.380   1.528 -0.2603 -0.1690 -0.5297
   14MOL   N394 8740   5.766   5.267   1.583 -0.4834  0.8551 -0.4214
   14MOL   C395 8741   5.664   5.363   1.552 -0.1998  0.3588  1.4440
   14MOL   C396 8742   5.639   5.469   1.661  0.5060  0.3277  0.3604
   14MOL   C397 8743   5.519   5.559   1.641 -0.2318 -0.2695  0.1749
   14MOL   C398 8744   5.385   5.481   1.656  0.1757  1.2432  0.6873
   14MOL   N399 8745   5.272   5.561   1.617  0.0247 -0.3131  0.3567
   14MOL   H400 8746   6.106   4.761   1.401 -1.0879 -0.4089 -1.0315
   14MOL   H401 8747   6.223   4.889   1.434 -0.5264 -0.8412  0.9763
   14MOL   H402 8748   5.923   4.920   1.463 -0.3699 -1.3855  0.9169
   14MOL   H403 8749   6.030   4.898   1.593 -1.6249 -1.5498 -0.8536
   14MOL   H404 8750   6.052   5.138   1.423 -0.8938  1.2661  0.8211
   14MOL   H405 8751   6.169   5.100   1.537 -0.5024  2.1876 -0.3873
   14MOL   H406 8752   6.054   5.213   1.695  0.9888 -0.8384 -0.5165
   14MOL   H407 8753   5.913   5.103   1.679  0.4812 -0.9805 -0.0195
   14MOL   H408 8754   5.743   5.175   1.617  0.2828  0.7847 -0.0794
   14MOL   H409 8755   5.582   5.300   1.518 -0.2300 -0.0955  2.3582
   14MOL   H410 8756   5.696   5.414   1.461  2.8231 -2.7540  0.6319
   14MOL   H411 8757   5.632   5.410   1.752 -0.0129  0.3224  0.3208
   14MOL   H412 8758   5.729   5.530   1.651 -0.5644  1.8643 -0.1161
   14MOL   H413 8759   5.535   5.607   1.544 -0.9853 -1.0525 -0.3439
   14MOL   H414 8760   5.513   5.646   1.706  1.7236  1.4998 -1.9248
   14MOL   H415 8761   5.380   5.449   1.760  0.6067 -2.4266 -0.3432
   14MOL   H416 8762   5.401   5.389   1.600  0.7057  0.8961  1.3974
   14MOL   H417 8763   5.275   5.652   1.660 -0.0950  0.7481 -1.7811
   14MOL   C418 8764   5.183   5.534   1.525 -0.0087  0.5887 -0.2426
   14MOL   O419 8765   5.174   5.420   1.477 -0.2522 -0.4214  0.1722
   14MOL   C420 8766   5.096   5.651   1.479 -0.2700 -0.2524  0.0621
   14MOL   C421 8767   5.050   5.631   1.332 -0.0218  0.1562 -0.1446
   14MOL   C422 8768   4.976   5.754   1.286 -0.3220 -0.6242  0.2181
   14MOL   C423 8769   4.876   5.740   1.163  0.5026  0.6955 -0.2324
   14MOL   C424 8770   4.806   5.867   1.111 -0.5761  0.0529 -0.2832
   14MOL   O425 8771   4.769   5.951   1.195 -0.2072  0.2876 -1.3162
   14MOL   N426 8772   4.796   5.889   0.979 -1.0412 -0.0480 -0.0888
   14MOL   C427 8773   4.733   6.003   0.912 -0.8997  0.1538  0.3206
   14MOL   C428 8774   4.802   6.142   0.915 -0.0200  0.0160  0.8940
   14MOL   C429 8775   4.738   6.238   0.824  0.8415 -0.5728  0.5606
   14MOL   C430 8776   4.789   6.380   0.834 -0.0395 -0.0092  0.2031
   14MOL   N431 8777   4.708   6.468   0.756 -0.2486  0.0758 -0.0710
   14MOL   H432 8778   5.008   5.650   1.544  1.0823 -0.3957  1.9263
   14MOL   H433 8779   5.148   5.746   1.479 -0.4030 -0.1614 -2.2509
   14MOL   H434 8780   5.133   5.599   1.269 -0.3940 -1.1117 -0.0014
   14MOL   H435 8781   4.971   5.555   1.333 -1.7389  1.9101  2.7597
   14MOL   H436 8782   5.052   5.828   1.262 -0.1253 -0.2966  1.8415
   14MOL   H437 8783   4.925   5.803   1.369 -0.0013 -1.0260  0.6545
   14MOL   H438 8784   4.786   5.684   1.190  1.5088 -1.2257 -0.8090
   14MOL   H439 8785   4.916   5.678   1.083  2.2211  0.5340  0.7379
   14MOL   H440 8786   4.850   5.830   0.916 -0.2346  2.6346 -2.0250
   14MOL   H441 8787   4.631   6.016   0.948 -0.9033 -1.7083  1.0407
   14MOL   H442 8788   4.715   5.968   0.810  0.4326  0.4936 -0.0369
   14MOL   H443 8789   4.800   6.168   1.021 -0.0346  1.4711  0.5382
   14MOL   H444 8790   4.907   6.143   0.887  0.0173 -0.7788  0.9943
   14MOL   H445 8791   4.632   6.245   0.847  1.0422  1.1029  1.0457
   14MOL   H446 8792   4.736   6.206   0.720  0.5641 -2.2326  1.0619
   14MOL   H447 8793   4.890   6.393   0.795  0.2765 -1.4449  0.5251
   14MOL   H448 8794   4.795   6.403   0.941  2.5289  0.8011 -0.0831
   14MOL   H449 8795   4.608   6.453   0.753  0.0124 -1.4944 -1.5422
   14MOL   C450 8796   4.747   6.590   0.715 -0.0265  0.5801 -0.5195
   14MOL   O451 8797   4.863   6.628   0.736  0.3649  0.5318  0.4112
   14MOL   C452 8798   4.643   6.678   0.642 -0.1988 -0.0092  0.4053
   14MOL   C453 8799   4.668   6.684   0.493  0.9018  0.5310  0.2151
   14MOL   C454 8800   4.746   6.804   0.435  0.1093 -0.1569  0.9812
   14MOL   C455 8801   4.760   6.800   0.279  0.1784 -0.0863 -0.4277
   14MOL   C456 8802   4.822   6.933   0.243 -0.0023 -0.4258 -0.3445
   14MOL   O457 8803   4.944   6.944   0.240  0.9356 -0.1488  0.2149
   14MOL   N458 8804   4.743   7.038   0.215  0.5380  0.4686  0.8952
   14MOL   C459 8805   4.788   7.158   0.145  0.2975 -0.0512  0.1960
   14MOL   C460 8806   4.749   7.285   0.218 -0.0609 -0.0752  0.2378
   14MOL   C461 8807   4.796   7.409   0.141  0.8423  0.3946  0.0041
   14MOL   C462 8808   4.824   7.542   0.225  0.2041 -0.6025 -0.1953
   14MOL   N463 8809   4.699   7.588   0.293  0.3731  0.7548  0.5529
   14MOL   H464 8810   4.542   6.649   0.667 -1.2347  2.4845 -0.7068
   14MOL   H465 8811   4.650   6.780   0.681  2.3099  0.8389 -2.1072
   14MOL   H466 8812   4.710   6.590   0.457 -3.4008 -1.6968  0.7318
   14MOL   H467 8813   4.572   6.694   0.443  1.5827 -0.0031 -1.2343
   14MOL   H468 8814   4.842   6.814   0.485 -0.3056  1.2234  1.5352
   14MOL   H469 8815   4.686   6.890   0.467 -0.5919 -0.5255  0.6719
   14MOL   H470 8816   4.662   6.785   0.233 -1.2180 -0.9230  2.6617
   14MOL   H471 8817   4.823   6.715   0.253 -1.2623 -1.3696  0.1592
   14MOL   H472 8818   4.643   7.023   0.220  0.6206 -0.6557 -0.4599
   14MOL   H473 8819   4.748   7.162   0.043 -0.1670  2.9472  0.4533
   14MOL   H474 8820   4.896   7.160   0.133  0.2239 -0.6159 -0.5994
   14MOL   H475 8821   4.649   7.283   0.261  0.1563  0.7643  0.8076
   14MOL   H476 8822   4.817   7.296   0.303 -1.5558 -1.1013  1.5995
   14MOL   H477 8823   4.715   7.433   0.072  0.8735  1.5488  0.3651
   14MOL   H478 8824   4.892   7.393   0.091  1.0899  1.0150  0.2755
   14MOL   H479 8825   4.872   7.620   0.165  1.2046 -1.5380 -0.6403
   14MOL   H480 8826   4.900   7.526   0.302  0.7681  0.4477 -0.5196
   14MOL   H481 8827   4.650   7.662   0.245 -0.0953  0.2272  0.2160
   14MOL   C482 8828   4.638   7.557   0.407  0.4076  0.2229  0.2796
   14MOL   O483 8829   4.686   7.472   0.482 -0.2361  0.3369  0.0047
   14MOL   C484 8830   4.515   7.633   0.441  0.4721  0.1658 -0.3970
   14MOL   C485 8831   4.394   7.542   0.475  0.0075 -0.0338 -0.6843
   14MOL   C486 8832   4.406   7.504   0.624  0.3343 -0.3641  0.3467
   14MOL   C487 8833   4.347   7.617   0.707 -0.4644  0.2108 -0.8562
   14MOL   C488 8834   4.286   7.573   0.836  0.4023 -0.1182  0.2028
   14MOL   O489 8835   4.170   7.590   0.854 -0.6139 -0.1139  0.4044
   14MOL   N490 8836   4.366   7.521   0.937  0.1911 -0.2485  0.7348
   14MOL   C491 8837   4.321   7.485   1.069 -1.0082  0.4535  0.0899
   14MOL   C492 8838   4.315   7.327   1.073  0.2529  0.4302 -0.4039
   14MOL   C493 8839   4.189   7.265   1.017  0.1424  0.1645 -0.0118
   14MOL   C494 8840   4.174   7.118   1.036 -0.5030  0.0558  0.0053
   14MOL   N495 8841   4.265   7.041   0.948 -0.0463 -0.4394 -0.0418
   14MOL   H496 8842   4.541   0.007   0.515 -2.8005  1.6356 -0.6249
   14MOL   H497 8843   4.488   7.700   0.359 -1.8176 -0.1675  0.0244
   14MOL   H498 8844   4.301   7.598   0.466  0.5872  0.9532 -0.6748
   14MOL   H499 8845   4.389   7.448   0.422  0.3962 -0.8299  0.6489
   14MOL   H500 8846   4.511   7.490   0.650  0.8109  1.1540 -0.7313
   14MOL   H501 8847   4.358   7.408   0.642 -0.3770 -0.2362 -0.8161
   14MOL   H502 8848   4.269   7.668   0.651 -0.2374 -0.0169 -1.3743
   14MOL   H503 8849   4.420   7.691   0.740 -0.6352 -1.1345  2.8407
   14MOL   H504 8850   4.467   7.524   0.928  0.0387 -1.0710 -1.5588
   14MOL   H505 8851   4.220   7.520   1.091 -1.3058  0.3686 -1.1081
   14MOL   H506 8852   4.404   7.515   1.133  0.2718  1.9145 -2.1655
   14MOL   H507 8853   4.407   7.285   1.032  0.6948 -0.5049  1.4780
   14MOL   H508 8854   4.321   7.323   1.182  0.4541  1.0597 -0.3861
   14MOL   H509 8855   4.179   7.288   0.911 -1.9189 -0.5252  0.0152
   14MOL   H510 8856   4.111   7.325   1.065 -1.0808 -1.0467 -0.4531
   14MOL   H511 8857   4.071   7.082   1.030 -1.1158  1.2470  2.9639
   14MOL   H512 8858   4.198   7.094   1.139 -0.5369 -0.1210 -0.0277
   14MOL   H513 8859   4.252   7.042   0.848 -1.4932 -0.9861  0.1349
   14MOL   C514 8860   4.365   6.973   0.997  0.2538  0.2987 -0.5372
   14MOL   O515 8861   4.398   6.967   1.121  0.2194  0.2644  0.3809
   14MOL   C516 8862   4.455   6.904   0.892 -0.0357 -0.5900 -0.1857
   14MOL   C517 8863   4.593   6.976   0.887 -0.6832 -0.2066 -0.0327
   14MOL   C518 8864   4.582   7.111   0.813 -0.8254  0.2517  0.4293
   14MOL   C519 8865   4.704   7.148   0.732 -0.7571  0.1792  0.4149
   14MOL   C520 8866   4.824   7.171   0.819 -0.5619 -0.4438 -0.1752
   14MOL   O521 8867   4.828   7.277   0.873 -0.3801  0.0378  0.3420
   14MOL   N522 8868   4.916   7.076   0.824  0.3922 -0.5589 -0.2721
   14MOL   C523 8869   5.036   7.089   0.908 -0.4436 -0.4349  0.5994
   14MOL   C524 8870   5.129   6.964   0.904 -0.8443 -0.3642  0.1045
   14MOL   C525 8871   5.236   6.984   0.800  0.1551  0.3067 -0.2427
   14MOL   C526 8872   5.330   6.857   0.765 -0.1669 -0.6879 -0.8592
   14MOL   N527 8873   5.437   6.900   0.677  0.6748  0.4359 -0.2049
   14MOL   H528 8874   4.460   6.806   0.939 -0.8124  0.1760  1.5243
   14MOL   H529 8875   4.423   6.896   0.788  0.8357 -0.9490 -0.4332
   14MOL   H530 8876   4.632   7.000   0.985  0.9785 -1.6155 -0.3348
   14MOL   H531 8877   4.668   6.904   0.854  1.5577  2.4653 -0.9796
   14MOL   H532 8878   4.567   7.186   0.891  1.3228  0.1660  0.9709
   14MOL   H533 8879   4.492   7.121   0.753  0.6021 -0.5279 -1.9155
   14MOL   H534 8880   4.685   7.238   0.674  1.1203  0.4801  0.2312
   14MOL   H535 8881   4.731   7.079   0.651 -1.8322 -0.1290  0.3112
   14MOL   H536 8882   4.894   6.996   0.767 -1.0157 -1.1230  1.0112
   14MOL   H537 8883   5.004   7.077   1.011  0.5683 -0.1765  0.9489
   14MOL   H538 8884   5.090   7.182   0.895  2.8824 -2.3138  0.4401
   14MOL   H539 8885   5.177   6.945   1.000  0.4540 -0.1631 -0.5040
   14MOL   H540 8886   5.078   6.873   0.872 -3.9297  1.2222  0.2789
   14MOL   H541 8887   5.298   7.066   0.835 -1.4123  0.8591  1.3033
   14MOL   H542 8888   5.187   7.011   0.706 -0.8983 -1.6100 -0.2626
   14MOL   H543 8889   5.258   6.785   0.725 -1.5466 -0.1252  0.5633
   14MOL   H544 8890   5.370   6.826   0.862 -2.1215  1.1379  0.6012
   14MOL   H545 8891   5.407   6.940   0.589 -0.5410 -0.0280  0.0027
   14MOL   C546 8892   5.569   6.869   0.684 -0.7117 -0.3299 -0.4784
   14MOL   O547 8893   5.630   6.819   0.782 -0.3763  0.6504 -0.1630
   14MOL   C548 8894   5.652   6.893   0.562  0.3132  0.5847  0.1323
   14MOL   C549 8895   5.682   6.757   0.491  0.4627  0.2563 -0.4057
   14MOL   C550 8896   5.747   6.791   0.353  0.5866  0.4459  0.2279
   14MOL   C551 8897   5.766   6.676   0.250 -0.2146 -0.5169  0.3305
   14MOL   C552 8898   5.632   6.608   0.224  0.2972  0.1731  0.6576
   14MOL   O553 8899   5.534   6.676   0.178  0.2341 -0.0468  0.0458
   14MOL   N554 8900   5.623   6.481   0.251  0.2403 -0.2017 -0.4700
   14MOL   C555 8901   5.495   6.406   0.229 -0.3369  0.1780 -0.2316
   14MOL   C556 8902   5.497   6.261   0.282 -0.0465 -0.0268 -0.5394
   14MOL   C557 8903   5.586   6.159   0.206  0.0500 -0.8441 -0.1366
   14MOL   C558 8904   5.590   6.006   0.271  0.1609 -0.1771 -0.4705
   14MOL   N559 8905   5.473   5.929   0.242 -0.0005  0.1528 -0.5994
   14MOL   H560 8906   5.595   6.959   0.496 -0.8061  0.8464  1.3492
   14MOL   H561 8907   5.745   6.947   0.579 -0.5995  1.6204  1.9807
   14MOL   H562 8908   5.746   6.686   0.544  1.3799  1.2040 -0.2288
   14MOL   H563 8909   5.587   6.711   0.463 -0.5416  1.6362  0.6503
   14MOL   H564 8910   5.847   6.831   0.365  0.9285  0.0880 -1.2767
   14MOL   H565 8911   5.685   6.861   0.297 -1.3141 -1.5303 -0.2577
   14MOL   H566 8912   5.844   6.607   0.283 -0.5966 -0.6161  1.0395
   14MOL   H567 8913   5.806   6.719   0.159 -0.5767 -0.5859  0.1378
   14MOL   H568 8914   5.701   6.433   0.293 -0.8641 -0.1366  1.7430
   14MOL   H569 8915   5.457   6.407   0.127  0.6751 -3.1763 -0.7010
   14MOL   H570 8916   5.404   6.433   0.282 -1.0622 -4.8435  1.3436
   14MOL   H571 8917   5.525   6.262   0.387  0.6502 -0.1888 -0.7232
   14MOL   H572 8918   5.393   6.226   0.286 -0.1145  0.3480  1.7844
   14MOL   H573 8919   5.688   6.195   0.224  0.5873 -2.2263 -0.3163
   14MOL   H574 8920   5.558   6.163   0.101  2.5443 -0.2583 -0.8151
   14MOL   H575 8921   5.613   6.005   0.377  1.5751  1.2995 -0.7491
   14MOL   H576 8922   5.668   5.956   0.214  1.6051  1.7128 -0.2116
   14MOL   H577 8923   5.416   5.956   0.163 -1.2427 -1.8995 -0.4402
   14MOL   C578 8924   5.416   5.822   0.300  0.1569  0.4830 -0.0346
   14MOL   O579 8925   5.465   5.772   0.398  0.0233 -0.3319  0.0407
   14MOL   C580 8926   5.288   5.770   0.247 -0.2195  0.3995  0.5644
   14MOL   C581 8927   5.266   5.618   0.261  0.2625  0.8909  0.0987
   14MOL   C582 8928   5.361   5.541   0.173 -0.1505 -0.1855  0.1868
   14MOL   C583 8929   5.390   5.402   0.223 -0.2119  0.6932  0.0658
   14MOL   C584 8930   5.262   5.319   0.226  0.7875  0.4290 -0.8419
   14MOL   O585 8931   5.182   5.321   0.134  0.4057 -0.0999 -0.2449
   14MOL   N586 8932   5.234   5.249   0.340  0.0982  0.0306  0.4967
   14MOL   C587 8933   5.129   5.142   0.350  0.5996 -0.4746 -0.1651
   14MOL   C588 8934   5.178   5.026   0.432  0.2572  0.1815  0.4890
   14MOL   C589 8935   5.300   4.958   0.366 -0.8454  0.2258  0.1790
   14MOL   C590 8936   5.334   4.827   0.430  0.4291  0.5779  0.3916
   14MOL   N591 8937   5.448   4.760   0.360  0.1173 -0.1745 -0.4852
   14MOL   H592 8938   5.206   5.816   0.304  1.4780  1.0766  2.5181
   14MOL   H593 8939   5.276   5.803   0.144  1.2471  0.4184  0.3971
   14MOL   H594 8940   5.289   5.607   0.367  4.2273 -0.3521 -0.7945
   14MOL   H595 8941   5.162   5.595   0.235  0.7611  0.6351 -1.7888
   14MOL   H596 8942   5.458   5.590   0.159 -0.2829 -0.0120 -0.1467
   14MOL   H597 8943   5.313   5.537   0.075  0.4746  3.5098 -0.3693
   14MOL   H598 8944   5.435   5.397   0.322 -2.3451 -3.2198  0.9597
   14MOL   H599 8945   5.445   5.337   0.156  0.8590  1.0743  0.5646
   14MOL   H600 8946   5.306   5.248   0.411  0.9982  1.4636 -0.3453
   14MOL   H601 8947   5.113   5.104   0.249 -0.8625 -0.6940  0.1355
   14MOL   H602 8948   5.037   5.182   0.393 -0.4014 -3.0920  0.2417
   14MOL   H603 8949   5.193   5.056   0.536 -2.7256  0.5802  0.8478
   14MOL   H604 8950   5.092   4.960   0.432 -0.4507  1.0039 -3.7850
   14MOL   H605 8951   5.389   5.019   0.351 -0.8661  0.1238 -0.3479
   14MOL   H606 8952   5.284   4.934   0.261  0.1079  1.6220 -0.2912
   14MOL   H607 8953   5.250   4.759   0.414  1.8287 -0.9792 -0.5905
   14MOL   H608 8954   5.358   4.848   0.534  0.7652  0.7073  0.2890
   14MOL   H609 8955   5.428   4.735   0.264 -0.4005  1.0488 -0.7066
   14MOL   C610 8956   5.557   4.706   0.421  0.3872  0.1668 -0.2121
   14MOL   O611 8957   5.582   4.725   0.542  0.3009 -0.5862 -0.5521
   14MOL   C612 8958   5.646   4.613   0.336 -0.0548  0.0285  0.3190
   14MOL   C613 8959   5.714   4.495   0.409 -0.0677  0.5412 -0.7226
   14MOL   C614 8960   5.625   4.378   0.446  0.5170  0.4062 -0.2899
   14MOL   C615 8961   5.524   4.336   0.337  0.2475 -0.3838  0.1857
   14MOL   C616 8962   5.584   4.272   0.211 -0.7183 -0.1680  0.0589
   14MOL   O617 8963   5.657   4.175   0.227  0.1587 -0.3901 -0.5602
   14MOL   N618 8964   5.539   4.321   0.089 -0.2031 -0.0113 -0.8866
   14MOL   C619 8965   5.557   4.253   7.660 -0.5450 -0.2424  0.1965
   14MOL   C620 8966   5.608   4.361   7.562 -0.0202 -0.0180 -0.7356
   14MOL   C621 8967   5.750   4.410   7.584  0.4892  1.0822  0.4561
   14MOL   C622 8968   5.797   4.488   7.465  0.3834 -0.0367 -0.5384
   14MOL   N623 8969   5.944   4.514   7.472  0.2996  0.6015 -0.0391
   14MOL   H624 8970   5.595   4.576   0.247  0.7798  1.8166 -0.9122
   14MOL   H625 8971   5.720   4.684   0.298  0.1200 -0.2746  0.0857
   14MOL   H626 8972   5.803   4.461   0.355  0.8562 -0.8171  1.6049
   14MOL   H627 8973   5.764   4.529   0.499  0.5681 -1.5793 -0.2505
   14MOL   H628 8974   5.567   4.407   0.534  0.5919  0.8926 -0.4015
   14MOL   H629 8975   5.688   4.293   0.472 -0.0042  0.1394  0.1097
   14MOL   H630 8976   5.453   4.416   0.319 -1.0760 -1.3396  1.0677
   14MOL   H631 8977   5.458   4.261   0.380 -0.1937 -0.4088 -0.5283
   14MOL   H632 8978   5.483   4.405   0.092 -0.5785 -0.2805 -0.1676
   14MOL   H633 8979   5.458   4.220   7.628 -1.2917  1.5805  0.5514
   14MOL   H634 8980   5.629   4.173   7.677  0.3670  0.8201  1.5009
   14MOL   H635 8981   5.588   4.319   7.463 -1.5383  0.0778 -0.4735
   14MOL   H636 8982   5.542   4.447   7.569  2.0019  1.5539 -0.5038
   14MOL   H637 8983   5.817   4.326   7.599  0.4739  1.0504  0.3458
   14MOL   H638 8984   5.754   4.476   7.671 -0.1102  0.2552  1.1208
   14MOL   H639 8985   5.745   4.584   7.455  2.2752  1.0654 -0.0449
   14MOL   H640 8986   5.774   4.429   7.377  0.1671  1.2651 -1.3686
   14MOL   H641 8987   5.982   4.428   7.507  0.7293  0.6827 -0.2926
   14MOL   H642 8988   5.990   4.529   7.383 -0.3981  2.3236 -0.1249
   15MOL     C1 8989   4.889   3.585   0.693  0.0901 -0.4028 -0.2801
   15MOL     O2 8990   4.882   3.464   0.705 -0.1779  0.4860 -0.5735
   15MOL     C3 8991   4.794   3.677   0.767  0.3636 -0.4032 -0.4428
   15MOL     C4 8992   4.666   3.706   0.696  0.5949 -0.2143  0.7039
   15MOL     C5 8993   4.688   3.796   0.578 -0.2209  0.3079  0.0102
   15MOL     C6 8994   4.727   3.943   0.604  0.3264 -0.4140  0.4802
   15MOL     C7 8995   4.868   3.976   0.645 -0.5741 -0.1925 -0.4856
   15MOL     O8 8996   4.956   3.907   0.601 -0.0069  0.1098 -0.0112
   15MOL     N9 8997   4.889   4.091   0.705  0.4373 -0.1802  0.5710
   15MOL    C10 8998   5.013   4.143   0.737  0.1341  0.4680 -0.7443
   15MOL    C11 8999   5.049   4.106   0.880  0.3020 -0.0189 -0.2333
   15MOL    C12 9000   5.175   4.168   0.934 -0.3022  0.3147  0.0553
   15MOL    C13 9001   5.201   4.147   1.089  0.1706  0.2282 -0.4992
   15MOL    N14 9002   5.124   4.236   1.169 -0.1455 -0.4402  0.7905
   15MOL    H15 9003   4.772   3.638   0.866  1.0231  2.1739  0.7349
   15MOL    H16 9004   4.851   3.766   0.793  0.1394 -0.8339  1.5805
   15MOL    H17 9005   4.622   3.611   0.666 -0.4378  0.7868 -1.0210
   15MOL    H18 9006   4.589   3.750   0.760 -0.2753 -0.6682 -0.0276
   15MOL    H19 9007   4.588   3.793   0.535 -0.8760 -1.5255  1.5359
   15MOL    H20 9008   4.760   3.756   0.507  1.7397  2.9879  0.3992
   15MOL    H21 9009   4.654   3.995   0.666 -1.5001 -2.0996 -0.2115
   15MOL    H22 9010   4.723   3.986   0.504  1.0763  0.3007  0.7453
   15MOL    H23 9011   4.817   4.157   0.734  1.9769  0.3245  3.4415
   15MOL    H24 9012   5.009   4.249   0.713  0.5710  0.4494 -0.9122
   15MOL    H25 9013   5.093   4.096   0.679 -0.3555 -0.4414 -0.6954
   15MOL    H26 9014   4.969   4.135   0.948 -0.2554 -2.0257 -0.0202
   15MOL    H27 9015   5.051   3.999   0.898  3.2305 -0.0483 -0.5237
   15MOL    H28 9016   5.169   4.275   0.913  4.0476  0.2848 -1.7646
   15MOL    H29 9017   5.262   4.139   0.876 -0.3343 -0.5377  0.4177
   15MOL    H30 9018   5.305   4.172   1.106 -0.5720  0.9941  3.3524
   15MOL    H31 9019   5.189   4.044   1.124 -1.0278 -0.5252 -3.0193
   15MOL    H32 9020   5.092   4.319   1.121  0.0290 -1.2799 -0.8465
   15MOL    H33 9021   4.957   3.634   0.624 -0.9516 -0.7030 -1.5390
   15MOL    C34 9022   5.120   4.218   1.303 -0.8284 -0.4482  0.3838
   15MOL    O35 9023   5.200   4.153   1.372 -0.1589 -0.5827  0.0085
   15MOL    C36 9024   5.035   4.312   1.384  0.6523  0.2524 -0.4622
   15MOL    C37 9025   4.888   4.255   1.395  0.1002  0.2410 -0.4821
   15MOL    C38 9026   4.801   4.290   1.276 -0.1295 -0.8875 -0.1186
   15MOL    C39 9027   4.652   4.260   1.289 -0.7003  0.2006  0.8334
   15MOL    C40 9028   4.617   4.117   1.336 -0.0266 -1.0584  0.4929
   15MOL    O41 9029   4.678   4.061   1.424  0.0592  0.3084 -0.0140
   15MOL    N42 9030   4.501   4.063   1.287  0.4084 -0.0842  0.1514
   15MOL    C43 9031   4.451   3.933   1.333  0.3755  0.0504  0.5259
   15MOL    C44 9032   4.299   3.931   1.344 -0.0736  0.1440 -0.4294
   15MOL    C45 9033   4.251   3.994   1.475 -0.4491  0.3315  0.2514
   15MOL    C46 9034   4.101   3.970   1.508 -0.0633 -0.1957  0.3469
   15MOL    N47 9035   4.061   4.006   1.649  1.0448  0.3791  0.5089
   15MOL    H48 9036   5.074   4.323   1.485 -1.5210  0.9702  0.3406
   15MOL    H49 9037   5.029   4.415   1.347 -2.4906  0.7464  1.2326
   15MOL    H50 9038   4.891   4.147   1.410 -0.4362  0.4679  1.4210
   15MOL    H51 9039   4.854   4.291   1.492  1.9482  4.0532 -1.1513
   15MOL    H52 9040   4.840   4.241   1.187 -1.1654 -2.9276  0.5220
   15MOL    H53 9041   4.806   4.398   1.265  1.3299 -0.9661 -0.3191
   15MOL    H54 9042   4.595   4.302   1.206  1.0927  3.2975  1.1209
   15MOL    H55 9043   4.612   4.326   1.366 -1.3616 -0.0915  0.7511
   15MOL    H56 9044   4.440   4.125   1.236 -0.0664  0.1058  0.9468
   15MOL    H57 9045   4.494   3.899   1.427 -0.0406  3.4928  2.0434
   15MOL    H58 9046   4.484   3.857   1.262  1.2295  0.6169  0.3025
   15MOL    H59 9047   4.245   3.984   1.265  1.4219  1.6350 -0.5037
   15MOL    H60 9048   4.273   3.826   1.335 -3.1445  0.8858 -0.5298
   15MOL    H61 9049   4.270   4.101   1.478  2.4119 -0.1509  0.4485
   15MOL    H62 9050   4.308   3.947   1.555 -0.4650 -0.5483 -0.2485
   15MOL    H63 9051   4.077   3.864   1.502  0.7263 -0.4803  2.0241
   15MOL    H64 9052   4.035   4.028   1.443  0.4339  0.0406  0.0484
   15MOL    H65 9053   3.999   4.084   1.665 -1.8577 -1.9711  1.0469
   15MOL    C66 9054   4.079   3.939   1.758 -0.5309  0.0930  0.4744
   15MOL    O67 9055   4.131   3.831   1.763 -0.0817  0.3633 -0.1116
   15MOL    C68 9056   4.039   3.997   1.894  0.1695 -0.7745 -0.0477
   15MOL    C69 9057   4.142   4.090   1.968 -0.5223  1.0152  0.1114
   15MOL    C70 9058   4.129   4.089   2.123  0.1617  0.1687 -0.2837
   15MOL    C71 9059   4.231   4.183   2.189  0.3644 -0.0321 -0.1685
   15MOL    C72 9060   4.204   4.195   2.338 -0.0756 -0.1349 -0.5146
   15MOL    O73 9061   4.213   4.100   2.411  0.7447  0.1880 -0.6350
   15MOL    N74 9062   4.180   4.318   2.386 -0.4418  0.3959  0.5268
   15MOL    C75 9063   4.153   4.354   2.523 -0.5043  1.2543  0.4931
   15MOL    C76 9064   4.020   4.437   2.546 -0.5475  0.0797 -0.4646
   15MOL    C77 9065   3.894   4.355   2.521  1.0706  0.2143 -0.3966
   15MOL    C78 9066   3.759   4.436   2.519 -0.4766 -0.0675 -0.4431
   15MOL    N79 9067   3.655   4.341   2.495 -0.3473 -0.2967 -0.1776
   15MOL    H80 9068   3.952   4.056   1.866 -0.1072 -1.3395 -0.3713
   15MOL    H81 9069   3.998   3.920   1.959 -1.3780 -0.8877 -1.1395
   15MOL    H82 9070   4.247   4.063   1.953 -0.4914 -0.0331  2.0622
   15MOL    H83 9071   4.141   4.191   1.928 -2.3252  1.7301  1.9249
   15MOL    H84 9072   4.155   3.988   2.156  0.0432  0.3533  0.3748
   15MOL    H85 9073   4.026   4.108   2.152 -0.3550 -2.0520 -0.5232
   15MOL    H86 9074   4.219   4.278   2.136 -2.0223  0.8502  1.8299
   15MOL    H87 9075   4.334   4.151   2.173 -0.1642 -1.2814 -1.1523
   15MOL    H88 9076   4.172   4.392   2.318  0.0280  0.6781  0.7675
   15MOL    H89 9077   4.240   4.409   2.561  2.6027 -2.8280 -0.4329
   15MOL    H90 9078   4.148   4.269   2.591 -0.9118  0.1869 -0.8616
   15MOL    H91 9079   4.011   4.474   2.648 -1.6963  1.8695 -1.1864
   15MOL    H92 9080   4.030   4.522   2.478  2.3949  0.8102  0.8345
   15MOL    H93 9081   3.877   4.280   2.599  1.9308 -0.5293 -0.9159
   15MOL    H94 9082   3.912   4.305   2.425 -0.2345  0.4611 -0.7759
   15MOL    H95 9083   3.768   4.520   2.451  0.9458  0.4852  0.4212
   15MOL    H96 9084   3.750   4.470   2.622  0.3209 -1.6053  0.1526
   15MOL    H97 9085   3.661   4.259   2.553  1.9300 -1.0717 -1.4281
   15MOL    C98 9086   3.556   4.362   2.403  0.0912  0.3279  0.0180
   15MOL    O99 9087   3.543   4.470   2.342  0.2037 -0.1193  0.3855
   15MOL   C100 9088   3.460   4.248   2.363  0.4903  0.4357  0.3472
   15MOL   C101 9089   3.490   4.179   2.229 -0.7597 -0.2822 -0.0527
   15MOL   C102 9090   3.438   4.041   2.219  0.5783  0.6346  0.7186
   15MOL   C103 9091   3.408   3.983   2.081 -0.1937 -0.3710 -0.0507
   15MOL   C104 9092   3.521   3.994   1.979 -0.0311 -0.1196  0.0511
   15MOL   O105 9093   3.514   4.077   1.889 -0.4923 -0.2052  0.0393
   15MOL   N106 9094   3.616   3.901   1.973  0.3052  0.8943  0.2403
   15MOL   C107 9095   3.716   3.892   1.871  0.0079 -0.0928 -0.1856
   15MOL   C108 9096   3.662   3.819   1.743 -0.9285 -0.1778  0.8074
   15MOL   C109 9097   3.777   3.769   1.654 -0.0575  0.4903  0.0196
   15MOL   C110 9098   3.729   3.680   1.539  0.4076  0.6280  0.5010
   15MOL   N111 9099   3.670   3.764   1.432  0.5639 -0.1056 -0.3979
   15MOL   H112 9100   3.471   4.178   2.445 -0.6458 -0.4179 -0.2062
   15MOL   H113 9101   3.355   4.279   2.369  0.5159  0.8249 -1.0240
   15MOL   H114 9102   3.450   4.245   2.153 -0.2806 -0.1274 -0.1722
   15MOL   H115 9103   3.599   4.175   2.231 -0.7006  1.6129  2.9173
   15MOL   H116 9104   3.343   4.036   2.273 -0.0558 -0.3124 -0.4461
   15MOL   H117 9105   3.512   3.976   2.266  0.2035  1.5489  2.6144
   15MOL   H118 9106   3.329   4.047   2.043 -0.1328 -1.5610 -2.3156
   15MOL   H119 9107   3.369   3.881   2.088 -2.5685  0.2728 -2.7404
   15MOL   H120 9108   3.611   3.820   2.032 -0.1346  0.2672 -0.6508
   15MOL   H121 9109   3.806   3.854   1.919 -0.2195  0.8667  1.0316
   15MOL   H122 9110   3.745   3.994   1.848  0.9096 -0.2591  0.2053
   15MOL   H123 9111   3.597   3.735   1.766  0.6927 -1.6116  0.3215
   15MOL   H124 9112   3.600   3.883   1.681 -1.0120  0.5228  1.6101
   15MOL   H125 9113   3.854   3.708   1.704  0.0745  2.1742  1.9553
   15MOL   H126 9114   3.839   3.851   1.618  0.4048 -0.6912 -1.9375
   15MOL   H127 9115   3.668   3.593   1.563  1.8389 -0.6519 -0.3664
   15MOL   H128 9116   3.822   3.633   1.507 -0.7803 -1.3849 -0.0345
   15MOL   H129 9117   3.583   3.808   1.459  1.2940  1.7867 -1.0173
   15MOL   C130 9118   3.728   3.793   1.315 -0.3048  0.0761  0.4517
   15MOL   O131 9119   3.835   3.750   1.275  0.3950 -0.5116  0.4803
   15MOL   C132 9120   3.668   3.898   1.224  0.5283 -0.0608  0.1115
   15MOL   C133 9121   3.572   3.838   1.116  0.0586  0.0881 -1.0877
   15MOL   C134 9122   3.434   3.787   1.164 -0.1681 -0.0122 -0.5459
   15MOL   C135 9123   3.346   3.733   1.050  0.3583  0.1681 -1.1328
   15MOL   C136 9124   3.362   3.591   1.012 -1.4612 -0.2019 -0.2599
   15MOL   O137 9125   3.337   3.510   1.099  0.4139 -0.2220  0.2390
   15MOL   N138 9126   3.426   3.562   0.896 -0.2422 -0.6060  0.3839
   15MOL   C139 9127   3.466   3.425   0.853  0.5285  0.5814 -0.0639
   15MOL   C140 9128   3.621   3.412   0.867 -0.2867 -0.1123  0.2262
   15MOL   C141 9129   3.666   3.399   1.012 -0.2873  0.8497 -0.6864
   15MOL   C142 9130   3.818   3.382   1.025 -0.7415 -0.0180 -0.2557
   15MOL   N143 9131   3.869   3.385   1.163 -0.2788  0.5104  0.2889
   15MOL   H144 9132   3.619   3.969   1.291  0.3093 -0.5849  0.5103
   15MOL   H145 9133   3.746   3.959   1.179  1.5558 -3.3507 -2.7659
   15MOL   H146 9134   3.545   3.912   1.040  0.1469  2.2096  0.8956
   15MOL   H147 9135   3.621   3.756   1.064 -4.0696 -0.9327 -3.5944
   15MOL   H148 9136   3.389   3.872   1.214  0.6000  0.8359 -1.2869
   15MOL   H149 9137   3.443   3.707   1.237  1.3320  1.4613  0.9171
   15MOL   H150 9138   3.350   3.798   0.963  0.2187  0.6836 -0.7608
   15MOL   H151 9139   3.244   3.729   1.089  0.7074 -2.3865 -0.3885
   15MOL   H152 9140   3.440   3.633   0.826  0.1580 -1.8002 -0.7844
   15MOL   H153 9141   3.442   3.409   0.748 -0.0136 -1.3801  0.3477
   15MOL   H154 9142   3.410   3.349   0.908  3.1474 -0.6070  1.0432
   15MOL   H155 9143   3.649   3.327   0.805  0.3452  0.7584 -0.7010
   15MOL   H156 9144   3.669   3.492   0.811  2.5436 -0.9960  1.3215
   15MOL   H157 9145   3.616   3.316   1.062  0.6902  0.9576  0.4971
   15MOL   H158 9146   3.643   3.490   1.068 -1.3019  0.6151 -0.6993
   15MOL   H159 9147   3.874   3.453   0.964 -2.0861  1.6081  0.3525
   15MOL   H160 9148   3.831   3.282   0.984 -0.2508  0.4562 -1.2932
   15MOL   H161 9149   3.803   3.384   1.239 -1.0612 -0.3544 -0.3959
   15MOL   C162 9150   3.991   3.414   1.204 -0.2877 -0.2318  0.3485
   15MOL   O163 9151   4.083   3.431   1.120 -0.3358  0.2068 -0.1548
   15MOL   C164 9152   4.015   3.428   1.357  0.0845 -0.2491 -0.3622
   15MOL   C165 9153   4.090   3.551   1.410  0.9856  0.3642 -0.4033
   15MOL   C166 9154   4.245   3.536   1.411 -0.2343  0.7968 -0.0347
   15MOL   C167 9155   4.309   3.619   1.530  0.6283  0.0581  0.3184
   15MOL   C168 9156   4.320   3.540   1.657 -0.7050 -1.1221 -0.0413
   15MOL   O169 9157   4.358   3.422   1.657  0.3226  1.3475  0.0422
   15MOL   N170 9158   4.283   3.598   1.772 -0.5110 -0.9444  0.0610
   15MOL   C171 9159   4.249   3.522   1.893 -0.0979 -0.4825  0.0429
   15MOL   C172 9160   4.125   3.571   1.976 -0.3477  0.2829  0.3486
   15MOL   C173 9161   4.061   3.486   2.091  0.2634  0.0274  0.2234
   15MOL   C174 9162   3.924   3.536   2.142  0.1656  0.7643 -0.1655
   15MOL   N175 9163   3.925   3.677   2.190 -0.0665  0.4830 -0.3976
   15MOL   H176 9164   3.915   3.441   1.399  0.2539  0.5549 -0.2076
   15MOL   H177 9165   4.059   3.342   1.407  0.4663  0.3283  0.3073
   15MOL   H178 9166   4.067   3.641   1.353  1.2303  1.5854  1.3730
   15MOL   H179 9167   4.058   3.588   1.507 -2.8297 -0.2282 -1.3788
   15MOL   H180 9168   4.282   3.571   1.315  0.9996  1.8494  0.8010
   15MOL   H181 9169   4.270   3.430   1.420  1.2056  1.1005 -0.4091
   15MOL   H182 9170   4.255   3.709   1.557 -0.4505 -0.4712 -0.0602
   15MOL   H183 9171   4.410   3.652   1.507  1.1711 -1.5623  0.2678
   15MOL   H184 9172   4.246   3.691   1.762  1.0464 -0.4274 -1.2204
   15MOL   H185 9173   4.340   3.521   1.953 -0.4513  1.7643  0.6854
   15MOL   H186 9174   4.229   3.419   1.865 -2.0034 -0.0541 -0.2170
   15MOL   H187 9175   4.153   3.666   2.022  1.9723 -1.1074  1.8674
   15MOL   H188 9176   4.043   3.585   1.905  1.4207 -1.0471 -2.0095
   15MOL   H189 9177   4.144   3.484   2.161  1.0071  0.8180 -0.6285
   15MOL   H190 9178   4.053   3.380   2.066  0.1805  0.3723 -1.2769
   15MOL   H191 9179   3.901   3.478   2.232 -1.0857  1.5038  0.0001
   15MOL   H192 9180   3.842   3.517   2.072  0.4026  0.0253 -0.2496
   15MOL   H193 9181   4.013   3.718   2.216 -0.5101  0.5079  1.1405
   15MOL   C194 9182   3.817   3.744   2.229  0.2429 -0.4415 -0.3053
   15MOL   O195 9183   3.713   3.695   2.208  0.3930 -0.0809  0.0109
   15MOL   C196 9184   3.842   3.878   2.295 -0.2368 -0.3322  0.1730
   15MOL   C197 9185   3.807   3.882   2.444 -0.1938  1.0069 -0.3167
   15MOL   C198 9186   3.860   4.005   2.522  0.1990  0.3284 -0.0133
   15MOL   C199 9187   3.757   4.036   2.637 -0.2927  0.5056  0.6670
   15MOL   C200 9188   3.762   3.930   2.736 -0.1841  0.0256  0.4299
   15MOL   O201 9189   3.854   3.930   2.815  0.1682 -0.2502  0.2010
   15MOL   N202 9190   3.661   3.844   2.742 -0.1256  0.4005 -0.2803
   15MOL   C203 9191   3.636   3.737   2.839  0.1519 -0.1545 -0.4237
   15MOL   C204 9192   3.498   3.761   2.922 -0.2211 -0.0099  0.1953
   15MOL   C205 9193   3.511   3.843   3.049 -0.5886  0.4035 -0.4946
   15MOL   C206 9194   3.378   3.860   3.129 -0.5056 -0.0128 -0.0069
   15MOL   N207 9195   3.399   3.891   3.269  0.4215 -1.0848 -0.4139
   15MOL   H208 9196   3.942   3.919   2.279 -0.3584 -0.6619 -1.5484
   15MOL   H209 9197   3.779   3.950   2.242 -0.5072  0.9689  2.2101
   15MOL   H210 9198   3.700   3.900   2.448 -0.1450  2.1592 -2.8453
   15MOL   H211 9199   3.832   3.793   2.501  0.9247  0.1746 -2.0510
   15MOL   H212 9200   3.872   4.088   2.453 -1.1118 -1.0081 -1.9093
   15MOL   H213 9201   3.962   3.984   2.552  0.5729  0.9502 -0.8205
   15MOL   H214 9202   3.659   4.064   2.598  0.7277  2.5622 -0.5252
   15MOL   H215 9203   3.777   4.131   2.687  1.9935  0.5266 -0.2417
   15MOL   H216 9204   3.586   3.858   2.675 -0.8649  2.3316  0.8995
   15MOL   H217 9205   3.716   3.731   2.913 -0.8616 -1.5628  0.5998
   15MOL   H218 9206   3.629   3.639   2.793  2.0839 -0.4804 -0.0621
   15MOL   H219 9207   3.425   3.795   2.849  1.0297  1.0415 -0.5932
   15MOL   H220 9208   3.459   3.665   2.955  0.7629 -1.1503 -1.8365
   15MOL   H221 9209   3.562   3.934   3.018  1.1745 -1.1801 -2.4216
   15MOL   H222 9210   3.583   3.793   3.113 -1.4749  1.6990  1.5512
   15MOL   H223 9211   3.313   3.773   3.115 -1.6626  0.9499 -0.6680
   15MOL   H224 9212   3.315   3.934   3.080  1.7892 -0.1940 -3.3586
   15MOL   H225 9213   3.371   3.818   3.333 -0.0255 -0.7998 -0.2841
   15MOL   C226 9214   3.420   4.016   3.313  0.8938  0.1179 -0.7587
   15MOL   O227 9215   3.454   4.107   3.243  0.0746 -0.3753 -0.0009
   15MOL   C228 9216   3.388   4.044   3.462 -1.0274 -0.0226 -0.1130
   15MOL   C229 9217   3.258   4.121   3.491 -0.0618 -0.5322  0.5049
   15MOL   C230 9218   3.274   4.272   3.484  0.3594  0.2586 -0.0959
   15MOL   C231 9219   3.358   4.342   3.593  0.1791  0.3092  0.0527
   15MOL   C232 9220   3.378   4.493   3.559  0.1353 -0.5240 -0.1193
   15MOL   O233 9221   3.273   4.556   3.532 -0.0821 -0.3195 -0.5792
   15MOL   N234 9222   3.496   4.550   3.561  0.0612  0.1329 -0.6474
   15MOL   C235 9223   3.539   4.689   3.538 -0.4736  0.2513  0.7209
   15MOL   C236 9224   3.495   4.751   3.398  0.0911  0.2673 -0.5278
   15MOL   C237 9225   3.576   4.680   3.288 -1.4895 -0.0570 -0.0679
   15MOL   C238 9226   3.601   4.770   3.162  0.4997  0.4245 -0.2533
   15MOL   N239 9227   3.688   4.877   3.199  0.2447 -0.3387  0.0612
   15MOL   H240 9228   3.388   3.945   3.509 -1.7037  1.0548  2.1824
   15MOL   H241 9229   3.474   4.095   3.506 -1.3009 -0.2409  0.6755
   15MOL   H242 9230   3.192   4.101   3.407  0.8727  1.6077 -0.7944
   15MOL   H243 9231   3.221   4.085   3.587  0.3570  0.3648  1.0118
   15MOL   H244 9232   3.173   4.312   3.494  0.8079  1.3810  0.0234
   15MOL   H245 9233   3.310   4.304   3.386 -0.5454  2.2218  0.1870
   15MOL   H246 9234   3.455   4.293   3.588 -0.6221 -1.3155  0.0281
   15MOL   H247 9235   3.317   4.324   3.692 -0.6797  1.8465 -0.0013
   15MOL   H248 9236   3.577   4.495   3.588  0.4439  0.9511 -0.1089
   15MOL   H249 9237   3.647   4.689   3.551 -0.4427  1.1347  0.4624
   15MOL   H250 9238   3.506   4.762   3.611 -1.6856 -0.2426  0.6836
   15MOL   H251 9239   3.389   4.745   3.377  0.1550 -0.6494 -0.6146
   15MOL   H252 9240   3.520   4.857   3.399 -1.2505  0.5684  1.0795
   15MOL   H253 9241   3.533   4.582   3.265 -1.6598  0.6441 -2.8588
   15MOL   H254 9242   3.669   4.647   3.335 -1.0054  1.3711 -0.0259
   15MOL   H255 9243   3.513   4.786   3.100 -0.9536  0.6727  1.8075
   15MOL   H256 9244   3.675   4.714   3.104 -0.3743  0.2351 -1.1862
   15MOL   H257 9245   3.758   4.859   3.269 -1.7029 -2.6269  1.4667
   15MOL   C258 9246   3.699   5.000   3.142  0.0770 -0.1878  0.7709
   15MOL   O259 9247   3.639   5.024   3.033 -0.1337 -0.1108 -0.0217
   15MOL   C260 9248   3.788   5.107   3.203 -0.6479  0.0143 -0.6174
   15MOL   C261 9249   3.875   5.179   3.098 -0.4849  0.6051 -0.3837
   15MOL   C262 9250   3.991   5.089   3.042 -0.2260  0.9347  0.8234
   15MOL   C263 9251   4.069   5.154   2.923 -0.4893  1.1482 -0.5026
   15MOL   C264 9252   4.155   5.273   2.967 -0.4072  0.5436 -0.3935
   15MOL   O265 9253   4.145   5.332   3.076  0.4579 -0.3799 -0.3228
   15MOL   N266 9254   4.231   5.322   2.876  0.1237 -0.0759  0.6641
   15MOL   C267 9255   4.324   5.432   2.886  0.5710  0.0191  0.3453
   15MOL   C268 9256   4.250   5.563   2.907 -0.6811 -0.4061  0.0480
   15MOL   C269 9257   4.338   5.686   2.886  0.0078  0.4370 -0.8264
   15MOL   C270 9258   4.270   5.818   2.923 -0.1665  0.1617  0.6655
   15MOL   N271 9259   4.364   5.927   2.923 -0.7741  0.7802 -0.2319
   15MOL   H272 9260   3.721   5.182   3.245  0.4011  2.2652 -2.8408
   15MOL   H273 9261   3.847   5.057   3.280 -0.7876 -0.2138 -0.6569
   15MOL   H274 9262   3.809   5.212   3.018  1.0325  1.3810 -1.3358
   15MOL   H275 9263   3.917   5.265   3.150 -1.2153  2.0355 -2.1034
   15MOL   H276 9264   3.962   4.997   2.993  0.5008  2.1995 -2.1255
   15MOL   H277 9265   4.055   5.056   3.123  1.0130 -0.6790 -0.7666
   15MOL   H278 9266   4.001   5.191   2.847 -1.5478 -1.7601 -1.0282
   15MOL   H279 9267   4.116   5.067   2.878  0.4197  1.5023 -0.2625
   15MOL   H280 9268   4.220   5.290   2.780  3.2599  1.9555 -0.4734
   15MOL   H281 9269   4.372   5.436   2.788  0.2923  1.8867  0.2766
   15MOL   H282 9270   4.400   5.401   2.957  0.8636 -0.1024 -0.0194
   15MOL   H283 9271   4.158   5.572   2.849  0.3614  0.4849 -1.5232
   15MOL   H284 9272   4.210   5.566   3.008 -0.1751  1.8321  0.2128
   15MOL   H285 9273   4.384   5.697   2.787 -0.6320 -0.9281 -1.2919
   15MOL   H286 9274   4.432   5.676   2.939 -0.5873 -1.9567 -0.1491
   15MOL   H287 9275   4.215   5.810   3.017  0.3688 -2.3419  0.8220
   15MOL   H288 9276   4.197   5.835   2.844 -0.3213  0.3519  0.8505
   15MOL   H289 9277   4.398   5.970   2.838  0.3218 -0.2222 -0.3135
   15MOL   C290 9278   4.410   5.984   3.034 -0.0272 -0.8264  0.2514
   15MOL   O291 9279   4.365   5.961   3.147 -0.2240 -0.7357  0.1474
   15MOL   C292 9280   4.543   6.064   3.020 -0.4864 -0.3960 -0.2902
   15MOL   C293 9281   4.550   6.209   3.068  0.4634  0.4983 -0.1671
   15MOL   C294 9282   4.459   6.308   2.994 -0.3134  0.0187 -0.0717
   15MOL   C295 9283   4.462   6.455   3.050 -0.0543  0.0861 -0.2739
   15MOL   C296 9284   4.350   6.504   3.139  0.1705  0.2889 -0.0548
   15MOL   O297 9285   4.266   6.429   3.188  0.6546  0.1274  0.4444
   15MOL   N298 9286   4.354   6.639   3.167  0.6102 -0.4198 -0.6015
   15MOL   C299 9287   4.241   6.712   3.223 -0.3854 -0.3556 -0.2816
   15MOL   C300 9288   4.209   6.825   3.132 -0.3910  0.6247  0.1419
   15MOL   C301 9289   4.067   6.892   3.168 -0.3774  0.4400  0.4806
   15MOL   C302 9290   4.027   6.980   3.054 -0.0221 -0.1736  0.6174
   15MOL   N303 9291   4.007   6.902   2.929  0.3681  0.8076 -0.0878
   15MOL   H304 9292   4.615   6.008   3.080  1.9640  1.0599 -1.7717
   15MOL   H305 9293   4.587   6.046   2.922  0.9782  0.3048  0.2280
   15MOL   H306 9294   4.507   6.212   3.168  1.9050 -0.1105  0.4940
   15MOL   H307 9295   4.655   6.237   3.069  1.5380 -3.2368 -0.5393
   15MOL   H308 9296   4.358   6.269   2.982 -0.1592 -1.1437  2.1344
   15MOL   H309 9297   4.503   6.316   2.895 -2.8198  0.4927 -1.1926
   15MOL   H310 9298   4.479   6.535   2.977 -0.5116  0.3775 -0.0617
   15MOL   H311 9299   4.552   6.473   3.109  1.0406 -0.4146 -1.7385
   15MOL   H312 9300   4.440   6.688   3.146  0.0929  0.2696 -1.1286
   15MOL   H313 9301   4.271   6.753   3.319 -1.0949 -1.4189  0.4150
   15MOL   H314 9302   4.159   6.642   3.241 -0.6496  0.0945  0.2648
   15MOL   H315 9303   4.290   6.897   3.126 -0.9770  1.3900  1.3432
   15MOL   H316 9304   4.207   6.778   3.033 -0.6111 -0.5105  0.6777
   15MOL   H317 9305   4.077   6.952   3.258 -3.9822  1.3860  0.3294
   15MOL   H318 9306   4.004   6.804   3.182  0.7159 -0.0496  2.4961
   15MOL   H319 9307   4.112   7.046   3.036 -0.2110  0.3047  1.4595
   15MOL   H320 9308   3.932   7.028   3.076  0.2049 -0.6939  2.8763
   15MOL   H321 9309   4.081   6.837   2.906  0.2560  0.2554  1.0839
   15MOL   C322 9310   3.900   6.911   2.850 -0.2747 -0.5923 -0.4662
   15MOL   O323 9311   3.803   6.980   2.874  0.0809  0.0256  0.6125
   15MOL   C324 9312   3.900   6.832   2.719 -0.1897  0.5795  0.2927
   15MOL   C325 9313   3.756   6.812   2.668  0.0352  0.3652  0.0712
   15MOL   C326 9314   3.767   6.717   2.538  0.5004  0.1859  0.0732
   15MOL   C327 9315   3.631   6.675   2.495 -0.1401 -0.6251 -0.1123
   15MOL   C328 9316   3.582   6.559   2.594  0.8539  0.1207  0.8986
   15MOL   O329 9317   3.653   6.473   2.650 -0.4374 -0.3698  0.7863
   15MOL   N330 9318   3.447   6.556   2.613  0.2340  0.3241 -0.1151
   15MOL   C331 9319   3.381   6.456   2.702 -0.1687 -0.5665 -0.1018
   15MOL   C332 9320   3.260   6.402   2.638  0.1891 -0.4393 -0.1103
   15MOL   C333 9321   3.281   6.351   2.498  0.0530 -0.4463  0.2662
   15MOL   C334 9322   3.156   6.290   2.439  0.3992  0.3636  0.4927
   15MOL   N335 9323   3.043   6.386   2.445  0.2181 -0.5377  0.0846
   15MOL   H336 9324   3.984   6.852   2.654 -0.3884  0.4862  0.0083
   15MOL   H337 9325   3.930   6.730   2.741 -2.7453 -0.1459  0.5926
   15MOL   H338 9326   3.691   6.773   2.746  0.7510  0.9834  0.9907
   15MOL   H339 9327   3.706   6.903   2.636 -1.3537  0.9856  3.7500
   15MOL   H340 9328   3.827   6.627   2.555  0.9107  0.5988  0.8524
   15MOL   H341 9329   3.819   6.764   2.455 -2.0709 -0.8568 -2.2142
   15MOL   H342 9330   3.644   6.636   2.394  3.8912 -0.6777  0.3458
   15MOL   H343 9331   3.565   6.761   2.488  3.4970  2.2197 -0.8542
   15MOL   H344 9332   3.390   6.633   2.580 -0.5143 -0.4997 -0.7814
   15MOL   H345 9333   3.345   6.506   2.791  2.0019  1.4880 -0.3196
   15MOL   H346 9334   3.442   6.367   2.721  1.6468  0.3403 -1.4699
   15MOL   H347 9335   3.222   6.326   2.706  1.6428 -0.6654  0.4586
   15MOL   H348 9336   3.184   6.481   2.642 -0.1489 -0.6220 -2.1389
   15MOL   H349 9337   3.366   6.283   2.498 -0.1596 -0.8065  3.1759
   15MOL   H350 9338   3.324   6.426   2.432  3.0730 -1.4549  1.0051
   15MOL   H351 9339   3.111   6.209   2.496 -1.3899  0.3275 -0.9413
   15MOL   H352 9340   3.181   6.263   2.337 -2.7603 -3.5372  0.6485
   15MOL   H353 9341   2.986   6.374   2.528 -0.1463 -4.5386 -0.6107
   15MOL   C354 9342   3.018   6.485   2.358 -0.6054  1.1982  0.0559
   15MOL   O355 9343   3.105   6.520   2.278  0.4285  0.3055  0.0924
   15MOL   C356 9344   2.896   6.564   2.380  0.5124 -0.5967  0.8034
   15MOL   C357 9345   2.915   6.673   2.483 -0.3011 -0.4398 -0.1686
   15MOL   C358 9346   2.794   6.760   2.502  0.1611 -0.4045  0.5996
   15MOL   C359 9347   2.819   6.889   2.572 -0.0085 -0.3973  0.4817
   15MOL   C360 9348   2.840   6.887   2.726 -0.0809 -0.4640 -0.0859
   15MOL   O361 9349   2.770   6.815   2.793  0.0782 -0.1921  0.4783
   15MOL   N362 9350   2.936   6.961   2.777 -0.5685  0.1523  0.1161
   15MOL   C363 9351   3.005   6.941   2.901 -0.2865 -0.4849 -0.3138
   15MOL   C364 9352   3.156   6.969   2.878 -0.3816 -0.4140  0.3290
   15MOL   C365 9353   3.244   6.862   2.803 -0.0185  0.2398  0.2775
   15MOL   C366 9354   3.396   6.877   2.801 -0.1006 -0.1379 -0.3510
   15MOL   N367 9355   3.431   6.987   2.716 -0.7759  0.2356  0.4635
   15MOL   H368 9356   2.877   6.618   2.287  3.9846 -0.4239  0.1353
   15MOL   H369 9357   2.819   6.488   2.397 -0.0035 -0.2388  0.1287
   15MOL   H370 9358   2.967   6.633   2.570  0.8548  1.3127 -0.0171
   15MOL   H371 9359   2.997   6.730   2.441  0.5959 -0.3635  1.6199
   15MOL   H372 9360   2.725   6.698   2.559 -0.8436  0.5396  0.4334
   15MOL   H373 9361   2.741   6.790   2.411  0.6690  1.1340  0.7837
   15MOL   H374 9362   2.725   6.943   2.565  1.0367  1.3279 -0.7604
   15MOL   H375 9363   2.911   6.933   2.533 -0.9978 -0.2737 -1.7647
   15MOL   H376 9364   2.981   7.018   2.707  1.1858 -1.8156 -0.4216
   15MOL   H377 9365   2.996   6.844   2.950 -1.5517 -0.9304 -1.4135
   15MOL   H378 9366   2.967   7.008   2.979  0.9403  2.0072 -1.8051
   15MOL   H379 9367   3.158   7.063   2.823 -1.2191 -0.3332  0.4287
   15MOL   H380 9368   3.199   6.979   2.978  2.3785  2.3254 -1.0480
   15MOL   H381 9369   3.213   6.836   2.702  1.5042 -0.9784  0.1140
   15MOL   H382 9370   3.225   6.772   2.862  0.4397  0.6942  1.1292
   15MOL   H383 9371   3.450   6.797   2.750  1.5618  0.7667 -0.0756
   15MOL   H384 9372   3.437   6.897   2.900  1.4517 -2.1633 -0.5456
   15MOL   H385 9373   3.400   6.989   2.620 -2.1726  0.1242  0.9050
   15MOL   C386 9374   3.494   7.095   2.755  0.2948 -0.1290 -0.1910
   15MOL   O387 9375   3.509   7.116   2.876 -0.2911  0.1641 -0.0235
   15MOL   C388 9376   3.532   7.205   2.651  0.0066 -0.1301 -0.1010
   15MOL   C389 9377   3.423   7.311   2.625  0.6042 -0.7290  0.7880
   15MOL   C390 9378   3.282   7.261   2.598  0.7591  0.2581  0.0497
   15MOL   C391 9379   3.172   7.354   2.546 -0.1499 -0.4251  0.7261
   15MOL   C392 9380   3.033   7.291   2.565 -0.0427 -0.1477 -0.6294
   15MOL   O393 9381   3.020   7.182   2.621 -0.1847 -0.0400 -0.1357
   15MOL   N394 9382   2.931   7.364   2.525  0.8229 -0.3666 -0.0076
   15MOL   C395 9383   2.792   7.313   2.518 -0.1775  0.4971 -0.9692
   15MOL   C396 9384   2.717   7.380   2.638  0.0148 -0.4501 -0.7782
   15MOL   C397 9385   2.574   7.312   2.637 -0.0817  0.0156  0.4740
   15MOL   C398 9386   2.471   7.371   2.736 -0.6656 -0.0359  0.3874
   15MOL   N399 9387   2.342   7.313   2.727 -0.3783 -0.5367 -0.2406
   15MOL   H400 9388   3.620   7.250   2.698 -0.8118  1.0320  0.3414
   15MOL   H401 9389   3.572   7.147   2.568  0.6252  1.4199 -0.9085
   15MOL   H402 9390   3.428   7.377   2.711  1.5562  0.1486  0.0769
   15MOL   H403 9391   3.442   7.372   2.536 -0.3201  0.0667  1.1244
   15MOL   H404 9392   3.256   7.216   2.694  0.6405  1.3691  0.5433
   15MOL   H405 9393   3.299   7.179   2.528  0.0413 -0.3125  0.5322
   15MOL   H406 9394   3.188   7.357   2.438 -0.8193 -0.3998  0.6286
   15MOL   H407 9395   3.167   7.453   2.590  1.7189 -0.2323  0.5419
   15MOL   H408 9396   2.941   7.462   2.502 -0.3140  0.0230  1.0924
   15MOL   H409 9397   2.793   7.204   2.525  1.0992  0.5945  0.8888
   15MOL   H410 9398   2.750   7.333   2.420  1.4872  0.9959 -1.6026
   15MOL   H411 9399   2.761   7.353   2.734  1.4093  0.8739 -1.0351
   15MOL   H412 9400   2.719   7.489   2.630  0.4850 -0.4992 -1.3770
   15MOL   H413 9401   2.583   7.204   2.650 -0.7675  0.0949  1.6094
   15MOL   H414 9402   2.529   7.314   2.537  0.4471 -1.7106  0.1867
   15MOL   H415 9403   2.479   7.478   2.717  3.3663 -0.4578 -0.9255
   15MOL   H416 9404   2.510   7.350   2.836  1.7922 -0.1090 -0.5381
   15MOL   H417 9405   2.318   7.258   2.809  1.4472 -1.4127 -0.2718
   15MOL   C418 9406   2.256   7.336   2.624  0.5800 -0.3737  0.3427
   15MOL   O419 9407   2.282   7.412   2.534  0.1026 -0.1704 -0.6618
   15MOL   C420 9408   2.117   7.272   2.629 -0.0730 -0.1431 -0.2278
   15MOL   C421 9409   2.004   7.380   2.604  0.3657  0.3444 -0.8130
   15MOL   C422 9410   1.987   7.429   2.461 -0.0807  0.1642 -1.0101
   15MOL   C423 9411   2.005   7.333   2.347 -0.1338  0.5978  0.1640
   15MOL   C424 9412   1.982   7.414   2.217  0.6426 -0.0168  0.3948
   15MOL   O425 9413   1.999   7.533   2.214  0.7547 -0.8052 -0.5794
   15MOL   N426 9414   1.922   7.339   2.128 -0.9674  0.3157 -0.3374
   15MOL   C427 9415   1.895   7.388   1.996 -0.1123  0.1484 -0.2868
   15MOL   C428 9416   1.760   7.468   2.001 -0.1423  0.0826  0.0519
   15MOL   C429 9417   1.639   7.419   2.085  0.2852  0.5129 -0.0642
   15MOL   C430 9418   1.508   7.485   2.067 -0.4998 -0.9602 -0.0954
   15MOL   N431 9419   1.407   7.428   2.149  0.1180  0.3542 -0.5290
   15MOL   H432 9420   2.098   7.182   2.570 -0.2659 -0.8363  0.8744
   15MOL   H433 9421   2.117   7.245   2.735  1.5671  2.2102  0.4144
   15MOL   H434 9422   1.909   7.342   2.641  0.2106  3.8311  2.8048
   15MOL   H435 9423   2.028   7.470   2.662  0.4276  0.2736 -0.7287
   15MOL   H436 9424   2.050   7.518   2.453  1.5988 -0.8936  0.0607
   15MOL   H437 9425   1.885   7.461   2.444 -0.5466 -1.3762 -1.2277
   15MOL   H438 9426   1.937   7.248   2.353  0.5866  0.1071  1.7555
   15MOL   H439 9427   2.107   7.296   2.356  0.2787  1.5299 -0.5670
   15MOL   H440 9428   1.902   7.239   2.132  0.6440  0.0301  0.7508
   15MOL   H441 9429   1.885   7.298   1.935 -1.8737 -0.8875  1.4538
   15MOL   H442 9430   1.973   7.457   1.964 -0.7516  0.5294 -1.0489
   15MOL   H443 9431   1.781   7.570   2.030  0.1501 -0.0902  0.4426
   15MOL   H444 9432   1.729   7.474   1.896  1.7479  3.0531 -0.3796
   15MOL   H445 9433   1.665   7.423   2.191  0.2326  1.6638 -0.0781
   15MOL   H446 9434   1.626   7.312   2.073 -4.0332  0.8345  0.8157
   15MOL   H447 9435   1.484   7.482   1.961  0.1708  1.4610 -0.3412
   15MOL   H448 9436   1.523   7.590   2.091  2.1011 -1.3667  0.2507
   15MOL   H449 9437   1.420   7.371   2.231 -0.8014  0.7765 -0.0839
   15MOL   C450 9438   1.277   7.470   2.156  1.2405 -0.2033  0.5156
   15MOL   O451 9439   1.233   7.545   2.073  0.2465 -0.1630  0.4665
   15MOL   C452 9440   1.192   7.420   2.276  0.2433 -0.1252  0.1889
   15MOL   C453 9441   1.223   7.503   2.405  0.0445 -0.2865 -1.1318
   15MOL   C454 9442   1.105   7.583   2.468 -0.0781  0.2867  0.1462
   15MOL   C455 9443   1.141   7.652   2.604  0.3927 -0.5642  0.2249
   15MOL   C456 9444   1.121   7.566   2.722 -0.3421  0.1733 -0.6821
   15MOL   O457 9445   1.065   7.456   2.711  0.8066  0.2489 -0.5574
   15MOL   N458 9446   1.187   7.605   2.834 -0.0468  0.2887 -0.1258
   15MOL   C459 9447   1.210   7.524   2.953  0.1670  0.4929 -0.4482
   15MOL   C460 9448   1.188   7.615   3.076 -0.4037 -0.3370 -0.5546
   15MOL   C461 9449   1.239   7.553   3.208  0.1410  0.2359 -0.3457
   15MOL   C462 9450   1.228   7.645   3.324  0.2812 -0.8605 -0.5045
   15MOL   N463 9451   1.084   7.669   3.355  0.1147 -0.0217 -0.2397
   15MOL   H464 9452   1.090   7.408   2.241 -0.1959 -0.0286  1.4287
   15MOL   H465 9453   1.219   7.318   2.303 -1.1711  0.5289  4.3330
   15MOL   H466 9454   1.264   7.437   2.481  1.0702  0.6417 -0.8661
   15MOL   H467 9455   1.306   7.571   2.387 -0.9446  0.8335 -1.5121
   15MOL   H468 9456   1.026   7.509   2.474  0.1780  0.0828  0.9722
   15MOL   H469 9457   1.068   7.666   2.408 -0.9715 -0.6518 -0.6231
   15MOL   H470 9458   1.075   0.036   2.613 -0.3300 -1.0855 -0.1098
   15MOL   H471 9459   1.235   0.005   2.595  0.8659 -1.5689 -1.0460
   15MOL   H472 9460   1.228   7.697   2.835 -0.6610  0.5628 -0.4289
   15MOL   H473 9461   1.314   7.490   2.948  0.0725  0.2371 -0.6322
   15MOL   H474 9462   1.156   7.430   2.956  3.0826 -1.2398 -0.2001
   15MOL   H475 9463   1.241   0.008   3.065  2.0919 -1.6004  0.2561
   15MOL   H476 9464   1.079   7.626   3.083 -0.4830 -1.3781  0.0506
   15MOL   H477 9465   1.339   7.514   3.191  1.1147  2.1236  0.8818
   15MOL   H478 9466   1.180   7.465   3.236  1.0406 -0.3316 -0.2184
   15MOL   H479 9467   1.269   0.044   3.315  1.4671 -1.2532  0.3096
   15MOL   H480 9468   1.279   7.605   3.412 -0.4269  0.4553  0.5295
   15MOL   H481 9469   1.047   0.056   3.321 -0.1672  1.0392  2.6949
   15MOL   C482 9470   1.004   7.604   3.433  0.7372 -0.0080  0.7747
   15MOL   O483 9471   1.043   7.514   3.502  0.8092 -0.5718 -0.2502
   15MOL   C484 9472   0.852   7.637   3.434 -0.6788 -0.3559 -0.2303
   15MOL   C485 9473   0.809   7.696   3.570  0.0140  0.5432  0.0883
   15MOL   C486 9474   0.787   7.594   3.678 -0.5747 -1.1535  0.5820
   15MOL   C487 9475   0.829   7.634   3.823 -0.1331  0.0069  0.1318
   15MOL   C488 9476   0.977   7.635   3.859 -0.0040  0.5713  0.2446
   15MOL   O489 9477   1.010   7.663   3.974  0.6348  0.7167  0.3463
   15MOL   N490 9478   1.069   7.595   3.771 -0.0050  0.3678 -0.2260
   15MOL   C491 9479   1.213   7.591   3.796  0.3805 -0.4537  0.7051
   15MOL   C492 9480   1.257   7.463   3.877 -0.0074  0.2161 -0.6360
   15MOL   C493 9481   1.406   7.445   3.887 -0.4291  0.3730 -0.0601
   15MOL   C494 9482   1.448   7.312   3.943  0.1026 -0.3473  0.2215
   15MOL   N495 9483   1.414   7.310   4.086 -0.4584 -0.0764  0.1648
   15MOL   H496 9484   0.823   0.005   3.355 -1.1818  0.1194  0.3676
   15MOL   H497 9485   0.790   7.551   3.407 -0.0222 -0.7233 -0.5821
   15MOL   H498 9486   0.885   0.072   3.585  1.3120  0.2115 -4.0784
   15MOL   H499 9487   0.714   0.046   3.559 -1.1709 -1.3678  1.2531
   15MOL   H500 9488   0.828   7.496   3.654  3.0728  0.0217  1.7970
   15MOL   H501 9489   0.679   7.577   3.687 -0.4423 -1.8282  0.9412
   15MOL   H502 9490   0.791   7.546   3.875  2.3373 -0.9035  0.4659
   15MOL   H503 9491   0.771   0.020   3.855 -0.3403 -0.8898  2.3395
   15MOL   H504 9492   1.042   7.578   3.676 -0.2882 -2.1576  0.2738
   15MOL   H505 9493   1.244   7.684   3.843  0.5653  0.8288 -1.8407
   15MOL   H506 9494   1.259   7.601   3.698  0.5640  2.7320  1.0844
   15MOL   H507 9495   1.223   7.473   3.980 -4.0133  0.9901 -1.9651
   15MOL   H508 9496   1.204   7.380   3.832 -1.3809 -0.3381  1.9498
   15MOL   H509 9497   1.461   7.518   3.947  2.0939 -1.1663 -0.4069
   15MOL   H510 9498   1.448   7.458   3.788 -1.2682 -0.7157 -0.5603
   15MOL   H511 9499   1.557   7.303   3.935  0.5291  1.0266  3.5158
   15MOL   H512 9500   1.417   7.226   3.884 -1.0270 -0.5007  1.0391
   15MOL   H513 9501   1.469   7.373   4.142 -0.1080 -1.2714  1.1929
   15MOL   C514 9502   1.318   7.238   4.145 -0.6159  0.0880 -0.2096
   15MOL   O515 9503   1.264   7.147   4.091  0.5320 -0.2219 -0.3089
   15MOL   C516 9504   1.239   7.281   4.269  0.4666 -0.2365 -0.9444
   15MOL   C517 9505   1.290   7.418   4.325  0.3794 -0.5026 -0.5160
   15MOL   C518 9506   1.408   7.394   4.424 -0.1675  0.5567  0.5373
   15MOL   C519 9507   1.469   7.539   4.469 -0.1188  0.1170 -0.7691
   15MOL   C520 9508   1.556   7.541   4.591 -0.4024 -0.1987  0.0712
   15MOL   O521 9509   1.578   7.435   4.646  0.0801 -0.2222  0.0411
   15MOL   N522 9510   1.614   7.653   4.632  0.5845  0.4228  0.4316
   15MOL   C523 9511   1.732   7.663   4.727  0.2810  0.5516  0.0825
   15MOL   C524 9512   1.861   7.657   4.645 -0.3717 -0.3736  0.1627
   15MOL   C525 9513   1.989   7.677   4.726 -0.1790 -1.2597  0.1588
   15MOL   C526 9514   2.117   7.699   4.648 -0.1739  0.3329 -0.4280
   15MOL   N527 9515   2.159   7.585   4.565 -0.4008  0.2751  0.3151
   15MOL   H528 9516   1.133   7.284   4.245 -0.1684 -0.1779  1.7389
   15MOL   H529 9517   1.243   7.211   4.353  1.1369 -0.4562 -1.1485
   15MOL   H530 9518   1.321   7.479   4.241 -0.8534 -2.9069 -2.7677
   15MOL   H531 9519   1.206   7.466   4.374  1.3740  1.4733 -0.7194
   15MOL   H532 9520   1.486   7.329   4.386  0.5439  2.0062 -0.5405
   15MOL   H533 9521   1.377   7.335   4.510 -0.0190 -0.6686 -0.2483
   15MOL   H534 9522   1.389   7.611   4.480 -0.1560 -0.3728  2.7261
   15MOL   H535 9523   1.502   7.584   4.375 -1.9700 -0.1109 -1.5611
   15MOL   H536 9524   1.595   0.038   4.584  2.5101  1.0308  0.7411
   15MOL   H537 9525   1.718   7.590   4.807  1.1753  0.1561 -0.1192
   15MOL   H538 9526   1.727   0.060   4.774  1.3150  0.1746  1.0216
   15MOL   H539 9527   1.880   7.567   4.585 -1.2608  0.3346 -1.1816
   15MOL   H540 9528   1.863   0.026   4.562  0.0199  0.5849  0.9726
   15MOL   H541 9529   1.996   7.588   4.789 -1.4796 -0.1618  1.9196
   15MOL   H542 9530   1.975   0.063   4.791  0.3013  0.3660 -1.8678
   15MOL   H543 9531   2.203   0.011   4.714  0.4166 -0.0713 -1.1112
   15MOL   H544 9532   2.108   0.092   4.595 -0.6774  0.9064  0.6559
   15MOL   H545 9533   2.159   7.493   4.607  1.6555 -0.8704 -2.0790
   15MOL   C546 9534   2.160   7.594   4.428 -0.9096  0.1896 -0.2850
   15MOL   O547 9535   2.137   7.699   4.368  0.4779 -0.2996 -0.4101
   15MOL   C548 9536   2.199   7.461   4.358 -0.5598  0.7241  0.1691
   15MOL   C549 9537   2.235   7.452   4.204 -0.2942 -0.1664  0.1205
   15MOL   C550 9538   2.237   7.311   4.144  0.0221 -0.8011 -0.1143
   15MOL   C551 9539   2.263   7.296   3.993 -0.1615 -0.0026  0.0863
   15MOL   C552 9540   2.296   7.158   3.958  0.2290  0.2989 -0.2158
   15MOL   O553 9541   2.237   7.062   4.008 -0.3032 -0.1136 -0.0512
   15MOL   N554 9542   2.406   7.150   3.879 -0.2226 -0.0133  0.0934
   15MOL   C555 9543   2.483   7.031   3.839 -0.3725 -0.4943  0.0894
   15MOL   C556 9544   2.395   6.951   3.747 -0.4521 -0.5137 -1.0587
   15MOL   C557 9545   2.474   6.831   3.684 -0.8513 -0.3638 -0.5549
   15MOL   C558 9546   2.404   6.764   3.568 -0.3321  0.1164 -0.4808
   15MOL   N559 9547   2.281   6.701   3.602  0.1166  0.7843 -0.2653
   15MOL   H560 9548   2.289   7.430   4.411 -2.0622 -1.0672  1.7197
   15MOL   H561 9549   2.122   7.385   4.371 -2.2004  2.0175 -1.6668
   15MOL   H562 9550   2.162   7.514   4.152  0.7426 -0.6138 -1.9360
   15MOL   H563 9551   2.328   7.508   4.188 -0.7669  1.2416  2.0238
   15MOL   H564 9552   2.152   7.250   4.176  0.2251 -0.0913  1.8337
   15MOL   H565 9553   2.318   7.257   4.193 -0.7279 -1.9506 -0.1246
   15MOL   H566 9554   2.345   7.359   3.959 -0.4937 -0.6685 -2.0452
   15MOL   H567 9555   2.176   7.329   3.936  0.5011 -1.1875 -1.6622
   15MOL   H568 9556   2.447   7.238   3.853  0.8154 -0.4849  0.0632
   15MOL   H569 9557   2.520   6.979   3.928 -1.9881 -1.7569  0.0364
   15MOL   H570 9558   2.574   7.064   3.789 -0.8413  0.1033 -0.3753
   15MOL   H571 9559   2.303   6.929   3.802  0.3662 -0.9927  0.1517
   15MOL   H572 9560   2.363   7.007   3.660  1.2561 -0.8368 -1.9192
   15MOL   H573 9561   2.510   6.755   3.754 -1.3786  0.4096  0.5791
   15MOL   H574 9562   2.565   6.863   3.633 -1.4735 -0.6212 -1.8413
   15MOL   H575 9563   2.486   6.700   3.534 -0.1252 -0.4798  1.0984
   15MOL   H576 9564   2.377   6.836   3.490  0.3031  1.8041  0.8521
   15MOL   H577 9565   2.196   6.753   3.619  0.9736  1.9921  0.3695
   15MOL   C578 9566   2.265   6.566   3.591 -0.1701  0.0685  0.3247
   15MOL   O579 9567   2.355   6.483   3.574 -0.0988  0.6623  0.0604
   15MOL   C580 9568   2.121   6.517   3.608 -0.3274 -0.2675 -0.0611
   15MOL   C581 9569   2.100   6.375   3.543 -0.0291  0.3082 -0.5545
   15MOL   C582 9570   1.971   6.295   3.581 -0.0295 -0.3455  0.4442
   15MOL   C583 9571   1.973   6.144   3.577 -0.5048 -0.1719  0.4494
   15MOL   C584 9572   1.843   6.088   3.633  0.3469 -0.2653 -0.4135
   15MOL   O585 9573   1.743   6.157   3.643 -0.0299  0.3996  0.6992
   15MOL   N586 9574   1.849   5.959   3.662  0.0629 -0.3176  0.6273
   15MOL   C587 9575   1.730   5.887   3.706 -0.9275  0.8765  0.1124
   15MOL   C588 9576   1.705   5.892   3.861 -0.0540  0.2750 -0.1233
   15MOL   C589 9577   1.666   6.030   3.914 -0.8223  0.5181 -0.4938
   15MOL   C590 9578   1.625   6.041   4.058 -0.5263 -0.2337  0.1716
   15MOL   N591 9579   1.601   6.183   4.098  0.7288 -1.0505 -0.2382
   15MOL   H592 9580   2.085   6.528   3.711 -2.2705 -0.6623 -0.6848
   15MOL   H593 9581   2.055   6.579   3.549 -2.0862  0.5747  2.6901
   15MOL   H594 9582   2.096   6.382   3.434 -1.1448  1.3899 -0.4566
   15MOL   H595 9583   2.188   6.311   3.552 -0.6231 -0.5937 -1.0928
   15MOL   H596 9584   1.889   6.330   3.518  0.5837 -0.2697 -0.3041
   15MOL   H597 9585   1.947   6.333   3.681  1.0962 -0.6806  0.8491
   15MOL   H598 9586   2.053   6.112   3.643  0.2197 -1.2151 -0.9131
   15MOL   H599 9587   2.005   6.102   3.482 -0.3239  1.1929 -0.1043
   15MOL   H600 9588   1.932   5.905   3.683 -0.1151 -1.5409 -1.6518
   15MOL   H601 9589   1.760   5.785   3.680  0.0936  1.1423  0.2236
   15MOL   H602 9590   1.637   5.902   3.652 -0.9232 -2.5450 -0.9923
   15MOL   H603 9591   1.619   5.828   3.884 -0.1507  0.1078 -0.9621
   15MOL   H604 9592   1.795   5.857   3.913  1.2822  0.9459 -1.9450
   15MOL   H605 9593   1.593   6.076   3.847 -2.4750 -0.9526  0.2415
   15MOL   H606 9594   1.753   6.094   3.900  0.8584 -1.8799 -1.2635
   15MOL   H607 9595   1.703   5.991   4.115 -1.1889 -1.5342 -0.0500
   15MOL   H608 9596   1.529   5.991   4.069 -0.6282 -0.3442 -1.1198
   15MOL   H609 9597   1.513   6.224   4.068  0.6493 -1.8260 -1.1037
   15MOL   C610 9598   1.676   6.255   4.178  0.6530  0.5231 -0.0690
   15MOL   O611 9599   1.784   6.211   4.225  0.0600 -0.1990 -0.2848
   15MOL   C612 9600   1.628   6.399   4.207 -0.2658  0.8569 -0.4995
   15MOL   C613 9601   1.728   6.482   4.298  1.0612 -0.8371 -0.1564
   15MOL   C614 9602   1.865   6.531   4.238  0.0967 -0.0376  0.0724
   15MOL   C615 9603   1.858   6.606   4.108  0.2374  0.0076 -0.5081
   15MOL   C616 9604   1.801   6.746   4.122  0.0382 -0.1385 -0.1424
   15MOL   O617 9605   1.788   6.797   4.234  0.2066  0.5271 -0.2334
   15MOL   N618 9606   1.768   6.808   4.007 -0.0375  0.2626  0.4018
   15MOL   C619 9607   1.722   6.946   3.997  0.0079  0.1187 -0.4359
   15MOL   C620 9608   1.839   7.022   3.932 -1.2400  0.1133  0.1143
   15MOL   C621 9609   1.812   7.169   3.922 -0.2119  0.4820 -0.4631
   15MOL   C622 9610   1.940   7.247   3.893  0.2563  0.1492 -1.1951
   15MOL   N623 9611   1.892   7.380   3.874 -0.1599 -0.3280 -0.6528
   15MOL   H624 9612   1.607   6.457   4.118 -1.4181 -0.4819 -1.1226
   15MOL   H625 9613   1.531   6.376   4.252  0.6506 -1.2786  0.4788
   15MOL   H626 9614   1.685   6.574   4.338 -0.9389 -0.6940 -2.5568
   15MOL   H627 9615   1.752   6.421   4.385 -0.3908  0.6451  1.2997
   15MOL   H628 9616   1.933   6.447   4.223  0.4492  0.0586  1.0953
   15MOL   H629 9617   1.906   6.603   4.309  0.8809  2.4155 -2.7671
   15MOL   H630 9618   1.794   6.548   4.041  0.0718 -1.7042  1.0757
   15MOL   H631 9619   1.959   6.607   4.067  0.2309 -0.0994 -0.5273
   15MOL   H632 9620   1.762   6.758   3.919 -0.0174  1.2773 -0.1899
   15MOL   H633 9621   1.694   6.986   4.094  0.7483  3.6175 -1.6132
   15MOL   H634 9622   1.638   6.937   3.927  1.2000 -0.2933 -1.8376
   15MOL   H635 9623   1.928   7.022   3.995 -0.6393 -0.6912 -0.7204
   15MOL   H636 9624   1.879   6.980   3.840  0.5065  1.2483  0.3167
   15MOL   H637 9625   1.764   7.206   4.013 -0.2922  3.0004 -1.5023
   15MOL   H638 9626   1.739   7.178   3.842  0.8061 -0.0739 -1.4634
   15MOL   H639 9627   1.998   7.206   3.811 -0.5252  0.4156 -1.8842
   15MOL   H640 9628   1.999   7.240   3.984 -0.0492  0.2100 -0.9903
   15MOL   H641 9629   1.811   7.397   3.932 -0.7396 -1.6100 -1.0738
   15MOL   H642 9630   1.850   7.382   3.782 -0.0441  1.9538 -0.6780
   16MOL     C1 9631   3.017   2.829   5.338 -0.0075 -0.3496 -0.2965
   16MOL     O2 9632   2.931   2.898   5.278 -0.4180 -0.1673  0.0913
   16MOL     C3 9633   3.148   2.903   5.380  0.0286  0.0981  0.0315
   16MOL     C4 9634   3.125   3.054   5.415 -0.2826 -0.3290 -0.5664
   16MOL     C5 9635   3.006   3.082   5.520 -0.3677 -0.3678  0.2997
   16MOL     C6 9636   3.013   3.215   5.591  0.1184  0.2486 -0.0681
   16MOL     C7 9637   2.978   3.334   5.499  0.1879 -0.3085 -0.6408
   16MOL     O8 9638   3.055   3.366   5.412 -0.3045 -0.0534 -0.0880
   16MOL     N9 9639   2.866   3.402   5.526  0.0686  0.4618 -0.2596
   16MOL    C10 9640   2.805   3.517   5.465 -0.1550 -0.5051  0.6713
   16MOL    C11 9641   2.712   3.467   5.348 -0.3589 -0.3673 -0.3273
   16MOL    C12 9642   2.651   3.581   5.270 -0.8354 -0.0741  0.2265
   16MOL    C13 9643   2.573   3.681   5.358 -0.1877  0.1425  1.0917
   16MOL    N14 9644   2.499   3.784   5.280  0.1259 -0.0737 -0.4251
   16MOL    H15 9645   3.196   2.855   5.464  2.2200 -0.1815 -1.3441
   16MOL    H16 9646   3.221   2.905   5.299 -0.1226 -0.7563 -0.1233
   16MOL    H17 9647   3.215   3.097   5.460 -1.6937  2.0834  0.0680
   16MOL    H18 9648   3.112   3.123   5.332 -1.5076 -0.8918 -0.8571
   16MOL    H19 9649   3.021   3.001   5.592  0.7679  0.2159  0.7289
   16MOL    H20 9650   2.904   3.087   5.482 -0.7734  0.8407  1.5314
   16MOL    H21 9651   3.114   3.228   5.628  0.4577  1.1458 -1.2567
   16MOL    H22 9652   2.946   3.223   5.676 -0.2224  5.9085 -0.6598
   16MOL    H23 9653   2.807   3.344   5.583  2.1579 -0.2578  1.2417
   16MOL    H24 9654   2.877   3.576   5.409 -1.0449 -0.3925 -0.3683
   16MOL    H25 9655   2.774   3.591   5.539 -0.0733  0.7750 -0.5479
   16MOL    H26 9656   2.762   3.398   5.280 -0.8325  1.1010 -2.1812
   16MOL    H27 9657   2.627   3.408   5.383  0.7650 -0.1258  3.0133
   16MOL    H28 9658   2.578   3.542   5.200 -0.0381 -2.2951  0.6069
   16MOL    H29 9659   2.729   3.634   5.216  0.3258 -0.3253  1.6377
   16MOL    H30 9660   2.648   3.738   5.414 -0.2054  0.6190  0.6313
   16MOL    H31 9661   2.508   3.634   5.432  0.8481  0.5737  2.2911
   16MOL    H32 9662   2.511   3.780   5.180 -0.3256  2.1285 -0.5990
   16MOL    H33 9663   3.007   2.723   5.361 -2.8602 -0.3665 -1.3797
   16MOL    C34 9664   2.426   3.882   5.329  0.2970 -0.6080  0.0093
   16MOL    O35 9665   2.422   3.893   5.452  0.2314  0.1641 -0.2501
   16MOL    C36 9666   2.354   3.971   5.234  0.1227  0.3261  0.2293
   16MOL    C37 9667   2.212   4.016   5.274  1.2992 -0.4170  0.4280
   16MOL    C38 9668   2.164   4.140   5.199 -0.4068 -0.6300 -0.7973
   16MOL    C39 9669   2.137   4.109   5.047 -0.2669 -0.2369  1.3292
   16MOL    C40 9670   2.177   4.227   4.961  0.2028 -0.4499 -0.2598
   16MOL    O41 9671   2.088   4.299   4.912 -0.0981  0.3882  0.1721
   16MOL    N42 9672   2.310   4.260   4.952  0.0668 -0.0237 -0.4542
   16MOL    C43 9673   2.363   4.386   4.891  0.4808 -0.3025  0.3821
   16MOL    C44 9674   2.499   4.362   4.831 -0.2168 -0.6951 -0.7124
   16MOL    C45 9675   2.557   4.494   4.765 -0.1832 -0.3744 -0.1301
   16MOL    C46 9676   2.505   4.547   4.629 -0.7203 -0.3484  0.4241
   16MOL    N47 9677   2.509   4.441   4.522  0.3957 -0.4874  0.0939
   16MOL    H48 9678   2.411   4.064   5.237  1.5720 -0.6099  3.2360
   16MOL    H49 9679   2.356   3.912   5.142 -0.3851  0.7270 -0.0341
   16MOL    H50 9680   2.151   3.929   5.248 -0.5085  0.3977  1.8441
   16MOL    H51 9681   2.189   4.032   5.379  0.4942 -1.2782  0.3882
   16MOL    H52 9682   2.228   4.225   5.223 -0.0121 -1.9152  2.9720
   16MOL    H53 9683   2.067   4.171   5.237  0.9058 -0.6535  2.7716
   16MOL    H54 9684   2.034   4.076   5.030  0.2355 -0.2644 -2.1528
   16MOL    H55 9685   2.206   4.030   5.018 -0.5303 -0.9517  2.6596
   16MOL    H56 9686   2.372   4.209   5.013  0.2757  1.7771  0.8743
   16MOL    H57 9687   2.374   4.455   4.974 -1.0422  2.4834 -1.6584
   16MOL    H58 9688   2.295   4.439   4.825  0.0921 -1.0627  0.1573
   16MOL    H59 9689   2.575   4.337   4.904 -0.7367  0.2501  0.1516
   16MOL    H60 9690   2.498   4.281   4.758  0.0663 -0.7484 -0.6557
   16MOL    H61 9691   2.663   4.469   4.753  0.6893  2.2423  1.8785
   16MOL    H62 9692   2.560   4.583   4.827 -0.0939  0.6875 -1.6292
   16MOL    H63 9693   2.563   4.634   4.599  0.9637 -1.9252 -1.0967
   16MOL    H64 9694   2.408   4.594   4.639  0.5291  2.3606  0.0797
   16MOL    H65 9695   2.422   4.390   4.520  0.3271 -0.3749  0.1770
   16MOL    C66 9696   2.572   4.438   4.408 -0.7422 -0.7787 -0.0248
   16MOL    O67 9697   2.542   4.358   4.324  0.2162  0.4542  0.5564
   16MOL    C68 9698   2.699   4.521   4.391  0.0508  1.2957 -0.1026
   16MOL    C69 9699   2.791   4.469   4.285  0.1714 -0.0977  0.0176
   16MOL    C70 9700   2.889   4.580   4.228  0.7964  0.2521 -0.3957
   16MOL    C71 9701   3.000   4.627   4.333 -0.1270 -0.0974 -0.3579
   16MOL    C72 9702   3.096   4.518   4.358 -0.1907  0.4658  0.4396
   16MOL    O73 9703   3.060   4.425   4.433  0.4175 -0.0570 -0.4042
   16MOL    N74 9704   3.220   4.531   4.307  0.2195 -0.5200 -0.5510
   16MOL    C75 9705   3.327   4.435   4.315 -0.3198  0.8091  0.3883
   16MOL    C76 9706   3.451   4.494   4.386  0.2518  0.3705 -0.3496
   16MOL    C77 9707   3.531   4.606   4.305  0.9111  0.3198  0.1702
   16MOL    C78 9708   3.621   4.689   4.394  0.4247  0.1918  0.6127
   16MOL    N79 9709   3.692   4.602   4.490  0.6459  0.1940 -0.1213
   16MOL    H80 9710   2.669   4.623   4.367  2.1388  2.0566  0.4194
   16MOL    H81 9711   2.745   4.531   4.489  1.3791  0.2294 -0.6111
   16MOL    H82 9712   2.839   4.378   4.323  2.6511  0.7854 -0.9353
   16MOL    H83 9713   2.734   4.427   4.202  0.2182  0.2078 -0.1690
   16MOL    H84 9714   2.828   4.670   4.219  0.7725  0.5477  2.3172
   16MOL    H85 9715   2.930   4.545   4.134  3.5632  0.5961  0.6576
   16MOL    H86 9716   2.954   4.645   4.430  3.0753  0.6068  1.0759
   16MOL    H87 9717   3.050   4.717   4.299 -0.2017 -0.8002 -2.4231
   16MOL    H88 9718   3.230   4.605   4.239  0.3488 -1.1540 -1.2312
   16MOL    H89 9719   3.349   4.394   4.216 -1.9666 -1.3965  0.8830
   16MOL    H90 9720   3.296   4.343   4.365 -0.6753  1.5262  1.4902
   16MOL    H91 9721   3.426   4.512   4.491  0.8705  0.5859 -0.2396
   16MOL    H92 9722   3.520   4.410   4.392  1.3809  1.0335 -3.2581
   16MOL    H93 9723   3.464   4.668   4.245  0.5872  0.3362  0.5499
   16MOL    H94 9724   3.595   4.552   4.236  0.4301 -0.8798  0.6641
   16MOL    H95 9725   3.559   4.756   4.454 -2.9028 -1.5976 -0.6877
   16MOL    H96 9726   3.703   4.737   4.340  0.3416 -1.1629 -0.7449
   16MOL    H97 9727   3.769   4.553   4.448 -0.5624 -0.3418 -1.7843
   16MOL    C98 9728   3.670   4.586   4.620  0.9515 -0.5257 -0.4283
   16MOL    O99 9729   3.580   4.647   4.672  0.0932  0.1191 -0.0734
   16MOL   C100 9730   3.765   4.489   4.695  1.3012 -0.4120  0.4147
   16MOL   C101 9731   3.711   4.414   4.819  0.0929  0.0098 -0.0966
   16MOL   C102 9732   3.821   4.313   4.874  0.5071  0.1874  0.6579
   16MOL   C103 9733   3.770   4.176   4.933  0.2954  0.6035 -0.3987
   16MOL   C104 9734   3.730   4.063   4.834  0.1656  0.0217 -0.3426
   16MOL   O105 9735   3.779   4.054   4.722  0.1083 -0.0506 -0.9893
   16MOL   N106 9736   3.631   3.986   4.875 -0.1435 -0.0717 -0.0077
   16MOL   C107 9737   3.568   3.876   4.810 -0.3979  0.3295 -0.3233
   16MOL   C108 9738   3.453   3.914   4.713  0.6183 -0.5815  0.3251
   16MOL   C109 9739   3.345   3.805   4.703  0.5438  0.6009  0.0067
   16MOL   C110 9740   3.391   3.675   4.638  0.5642 -0.7808 -0.8127
   16MOL   N111 9741   3.292   3.571   4.652 -0.0730 -0.0493  0.0530
   16MOL   H112 9742   3.798   4.411   4.626 -1.5800  0.9905 -2.6708
   16MOL   H113 9743   3.847   4.552   4.729 -1.5008  2.9017  1.2981
   16MOL   H114 9744   3.690   4.488   4.897  0.8926 -0.6015  0.7150
   16MOL   H115 9745   3.616   4.366   4.799  0.0735  0.2707 -0.6549
   16MOL   H116 9746   3.884   4.358   4.951  2.1439 -0.0196 -0.5353
   16MOL   H117 9747   3.879   4.276   4.790 -0.6556  2.8041 -1.4008
   16MOL   H118 9748   3.699   4.208   5.009 -1.0568 -1.4605 -0.7326
   16MOL   H119 9749   3.851   4.128   4.988  1.4965  0.5439 -2.1959
   16MOL   H120 9750   3.599   4.001   4.970  0.9009 -1.0854  0.5060
   16MOL   H121 9751   3.526   3.808   4.884  0.3254 -0.4034 -0.5795
   16MOL   H122 9752   3.639   3.810   4.761  0.3657  0.9461 -0.0659
   16MOL   H123 9753   3.411   4.005   4.755  0.7344  0.1707 -1.1580
   16MOL   H124 9754   3.507   3.931   4.620  1.0747 -1.0815  0.4997
   16MOL   H125 9755   3.250   3.839   4.662  1.1311  1.4737 -0.6436
   16MOL   H126 9756   3.305   3.780   4.802  2.0828 -0.6449  0.3409
   16MOL   H127 9757   3.485   3.646   4.685  1.6269  1.1017 -1.7341
   16MOL   H128 9758   3.407   3.695   4.532  0.7892  1.9022 -0.3030
   16MOL   H129 9759   3.281   3.525   4.741  0.0207 -2.0222 -0.9299
   16MOL   C130 9760   3.212   3.525   4.556  0.6388 -0.1450 -0.5643
   16MOL   O131 9761   3.222   3.561   4.436  0.2024  0.4249 -0.2246
   16MOL   C132 9762   3.109   3.419   4.593  0.1148  0.0366 -0.0803
   16MOL   C133 9763   2.976   3.438   4.521  0.0408  0.0281 -0.3206
   16MOL   C134 9764   2.903   3.572   4.538 -0.3341 -0.0815  0.3567
   16MOL   C135 9765   2.745   3.569   4.528  0.2350 -0.0240 -0.1424
   16MOL   C136 9766   2.692   3.522   4.390 -0.0250 -0.3608 -0.1669
   16MOL   O137 9767   2.771   3.513   4.290  0.1828  0.1260 -0.1761
   16MOL   N138 9768   2.565   3.480   4.386  0.1608 -0.1183  0.1250
   16MOL   C139 9769   2.501   3.418   4.281 -0.5154 -0.1304 -0.3058
   16MOL   C140 9770   2.452   3.532   4.182  0.8093  0.2057 -0.0573
   16MOL   C141 9771   2.341   3.476   4.097  0.1996  0.3179  0.2386
   16MOL   C142 9772   2.293   3.573   3.979 -0.2148 -0.0813  0.1278
   16MOL   N143 9773   2.219   3.683   4.044 -0.4712  0.3196 -0.2667
   16MOL   H144 9774   3.152   3.327   4.554  0.8852  0.3401  0.0499
   16MOL   H145 9775   3.111   3.414   4.702  0.7425 -0.9779 -0.1285
   16MOL   H146 9776   2.986   3.411   4.416 -1.7503 -2.7658  0.1974
   16MOL   H147 9777   2.912   3.356   4.554  1.1097  0.5487  3.2488
   16MOL   H148 9778   2.947   3.639   4.465  1.1264 -1.5088 -0.1125
   16MOL   H149 9779   2.930   3.608   4.637 -0.5672  1.3692 -0.0951
   16MOL   H150 9780   2.705   3.665   4.560 -0.1344 -0.7962  1.7583
   16MOL   H151 9781   2.707   3.503   4.605  2.7018  0.5254  1.6164
   16MOL   H152 9782   2.510   3.490   4.470  1.3150  2.4880  0.6004
   16MOL   H153 9783   2.421   3.359   4.326 -1.9622  0.4712 -2.0517
   16MOL   H154 9784   2.554   3.346   4.218 -0.7304  0.4408 -1.1490
   16MOL   H155 9785   2.423   3.624   4.233  2.4119 -0.3834  2.0263
   16MOL   H156 9786   2.538   3.567   4.124  1.3282  1.8572  1.6304
   16MOL   H157 9787   2.255   3.478   4.165  1.0744 -0.8177  1.4147
   16MOL   H158 9788   2.377   3.379   4.063  0.9101 -0.1859  2.3063
   16MOL   H159 9789   2.229   3.533   3.900  0.7719  0.6124 -1.0285
   16MOL   H160 9790   2.374   3.613   3.918 -1.7231  0.2163 -1.7373
   16MOL   H161 9791   2.226   3.708   4.141 -3.2258  0.9336 -0.1833
   16MOL   C162 9792   2.152   3.778   3.974 -0.8416  1.1618 -0.0793
   16MOL   O163 9793   2.125   3.761   3.853 -0.2395  0.4840  0.1186
   16MOL   C164 9794   2.111   3.904   4.042 -0.2457 -0.6847  0.7462
   16MOL   C165 9795   2.232   3.989   4.094  0.1408 -0.1392  0.4267
   16MOL   C166 9796   2.348   4.031   3.998 -0.1024 -0.5380 -0.3524
   16MOL   C167 9797   2.470   4.106   4.064  1.0062  0.2286  0.0143
   16MOL   C168 9798   2.552   4.000   4.149 -0.5305  0.1366 -0.4838
   16MOL   O169 9799   2.571   3.890   4.101  0.3898  0.5475  0.4561
   16MOL   N170 9800   2.570   4.020   4.281 -0.4424 -0.2168 -0.2562
   16MOL   C171 9801   2.615   3.927   4.380  0.3445  0.0896 -0.3032
   16MOL   C172 9802   2.761   3.947   4.418  0.6702  0.3592 -0.1069
   16MOL   C173 9803   2.786   4.090   4.478 -0.1863  0.1940 -0.9353
   16MOL   C174 9804   2.926   4.118   4.526  0.9904  0.0106  0.1980
   16MOL   N175 9805   2.937   4.235   4.615  0.3853 -0.0269  0.2344
   16MOL   H176 9806   2.059   3.960   3.964  2.0474  1.4082  0.6241
   16MOL   H177 9807   2.037   3.889   4.121 -0.1231 -0.7974  0.8391
   16MOL   H178 9808   2.191   4.079   4.140  0.6903 -0.0021  0.6476
   16MOL   H179 9809   2.264   3.936   4.184  0.9040  0.4606  0.5079
   16MOL   H180 9810   2.303   4.094   3.921  0.2593 -0.7627 -0.7495
   16MOL   H181 9811   2.390   3.950   3.939  1.2118  0.2420 -0.5030
   16MOL   H182 9812   2.437   4.191   4.122 -1.4878 -0.3196 -0.5447
   16MOL   H183 9813   2.537   4.142   3.986 -0.8684  3.4694 -0.1612
   16MOL   H184 9814   2.572   4.117   4.307  0.3004 -0.2324 -0.2339
   16MOL   H185 9815   2.586   3.825   4.354 -0.9878  0.5530 -0.6627
   16MOL   H186 9816   2.560   3.932   4.474 -0.6109 -0.8109 -0.8010
   16MOL   H187 9817   2.807   3.870   4.481 -0.5241 -1.1250 -1.0084
   16MOL   H188 9818   2.816   3.934   4.324 -2.0077  2.2591 -2.0174
   16MOL   H189 9819   2.717   4.107   4.561  1.0484 -1.8107  0.5377
   16MOL   H190 9820   2.757   4.163   4.403  0.3829  0.9614 -0.4163
   16MOL   H191 9821   2.979   4.145   4.434 -2.9058  0.8688 -1.9120
   16MOL   H192 9822   2.981   4.031   4.562  0.0352 -0.1586  1.2652
   16MOL   H193 9823   2.975   4.323   4.585  0.0225 -0.1944 -0.7174
   16MOL   C194 9824   2.906   4.241   4.746  0.1105  0.6958  0.7388
   16MOL   O195 9825   2.862   4.147   4.798 -0.1385 -0.2563  0.5593
   16MOL   C196 9826   2.923   4.366   4.822 -0.4005 -0.1115  0.2236
   16MOL   C197 9827   3.053   4.372   4.910 -0.0410 -0.0746 -0.0699
   16MOL   C198 9828   3.183   4.367   4.827  0.1967 -0.5017 -0.2043
   16MOL   C199 9829   3.277   4.485   4.849 -0.4392  0.3779  0.1201
   16MOL   C200 9830   3.224   4.618   4.785  0.1474 -0.5405  0.1173
   16MOL   O201 9831   3.116   4.662   4.823  0.7507  0.1807 -0.1344
   16MOL   N202 9832   3.305   4.674   4.696 -0.3936  0.5342 -0.5219
   16MOL   C203 9833   3.278   4.786   4.613  0.0176  0.0168 -0.2073
   16MOL   C204 9834   3.325   4.918   4.667 -0.3502 -0.1735  0.4904
   16MOL   C205 9835   3.233   4.985   4.775 -0.2198  0.2057  0.3553
   16MOL   C206 9836   3.284   5.119   4.839 -0.1473  0.0493 -0.4803
   16MOL   N207 9837   3.375   5.074   4.940 -0.6094  0.6808  1.1548
   16MOL   H208 9838   2.916   4.452   4.756 -0.6551  0.3914  0.9083
   16MOL   H209 9839   2.832   4.377   4.881 -0.8930  1.6408 -0.8481
   16MOL   H210 9840   3.046   4.465   4.966  0.3780 -1.2306  1.9365
   16MOL   H211 9841   3.051   4.290   4.982 -1.1973 -0.7880 -0.9000
   16MOL   H212 9842   3.149   4.377   4.724  0.3601  0.0200 -0.2109
   16MOL   H213 9843   3.237   4.273   4.835  1.6426  0.5175  2.7898
   16MOL   H214 9844   3.374   4.456   4.808 -1.0690 -0.6389 -0.6796
   16MOL   H215 9845   3.292   4.492   4.957  1.8046 -1.7940 -0.0033
   16MOL   H216 9846   3.396   4.630   4.695 -1.4159 -1.8392  1.7547
   16MOL   H217 9847   3.171   4.797   4.595  0.2888  1.4573 -1.0279
   16MOL   H218 9848   3.320   4.757   4.516  2.6923 -1.8126  1.4376
   16MOL   H219 9849   3.431   4.919   4.692 -0.3485 -1.1233  0.5122
   16MOL   H220 9850   3.323   4.985   4.581  2.4913 -0.4321  0.1604
   16MOL   H221 9851   3.202   4.916   4.853 -2.3274 -0.7957 -1.3564
   16MOL   H222 9852   3.139   5.014   4.729 -0.8268  1.2542  2.1910
   16MOL   H223 9853   3.209   5.186   4.881  0.5313 -0.0805  0.9961
   16MOL   H224 9854   3.344   5.171   4.765  1.1940 -1.4129 -0.4655
   16MOL   H225 9855   3.471   5.053   4.914 -0.1079 -0.4358  3.7227
   16MOL   C226 9856   3.334   5.038   5.063 -0.8530 -0.3466 -0.1242
   16MOL   O227 9857   3.228   5.067   5.116 -0.5986 -0.1356 -0.6045
   16MOL   C228 9858   3.439   4.969   5.142 -0.2993  0.3921 -0.5701
   16MOL   C229 9859   3.416   4.818   5.132 -0.3569  0.0142  0.3521
   16MOL   C230 9860   3.474   4.745   5.007  0.1967 -0.0570 -0.2096
   16MOL   C231 9861   3.631   4.746   5.008 -0.3384  0.0686 -0.0844
   16MOL   C232 9862   3.695   4.642   5.105 -0.1435  0.3183 -0.6009
   16MOL   O233 9863   3.614   4.567   5.169 -0.0075 -0.1229 -0.2894
   16MOL   N234 9864   3.832   4.638   5.110  0.3609 -0.6326 -0.0887
   16MOL   C235 9865   3.910   4.542   5.194 -0.5049 -0.1684  0.0997
   16MOL   C236 9866   4.011   4.618   5.285 -0.6969 -0.2693 -0.4199
   16MOL   C237 9867   4.079   4.527   5.387  0.5898  0.1240 -0.0255
   16MOL   C238 9868   4.150   4.586   5.511  0.5421 -0.0350 -0.3752
   16MOL   N239 9869   4.206   4.477   5.595 -0.9620 -0.5952  0.1107
   16MOL   H240 9870   3.540   4.989   5.107  0.1282  0.0197  0.4463
   16MOL   H241 9871   3.439   5.014   5.241  0.6061  0.4746 -0.6046
   16MOL   H242 9872   3.476   4.784   5.217 -0.1057 -1.0909 -0.2489
   16MOL   H243 9873   3.315   4.786   5.160 -0.2447  0.8756  1.7939
   16MOL   H244 9874   3.433   4.788   4.916 -1.0585 -1.0778 -0.1575
   16MOL   H245 9875   3.445   4.639   5.011  1.6408 -0.5213 -1.8044
   16MOL   H246 9876   3.668   4.848   5.018 -0.6215  0.0236  1.6396
   16MOL   H247 9877   3.657   4.706   4.910  0.6101  1.5118 -0.4329
   16MOL   H248 9878   3.881   4.682   5.033 -0.7484 -0.8329 -0.9247
   16MOL   H249 9879   3.963   4.477   5.125 -0.0532 -0.6893  0.9352
   16MOL   H250 9880   3.837   4.477   5.243  0.9305 -1.5028  0.4923
   16MOL   H251 9881   4.090   4.671   5.232 -1.5516  0.5152 -0.9220
   16MOL   H252 9882   3.958   4.697   5.337  1.1733  0.0865  0.9666
   16MOL   H253 9883   4.136   4.450   5.334 -0.1851  0.6879 -1.7048
   16MOL   H254 9884   4.002   4.466   5.434  0.3596  0.0149 -0.5368
   16MOL   H255 9885   4.084   4.653   5.565  2.0721  1.5748 -0.4336
   16MOL   H256 9886   4.235   4.652   5.493  1.4204 -0.6844  1.3005
   16MOL   H257 9887   4.301   4.448   5.577 -0.6756  1.0128 -1.0735
   16MOL   C258 9888   4.143   4.406   5.691  0.5798  0.3648 -0.0501
   16MOL   O259 9889   4.035   4.440   5.743 -0.1908 -0.3424  0.2513
   16MOL   C260 9890   4.210   4.276   5.746 -0.5890  0.3497  0.2977
   16MOL   C261 9891   4.307   4.310   5.864  0.1693 -0.5851 -0.2488
   16MOL   C262 9892   4.445   4.367   5.828 -0.0727 -0.2833 -0.6134
   16MOL   C263 9893   4.538   4.412   5.942 -0.1521 -0.0262 -0.7284
   16MOL   C264 9894   4.665   4.469   5.885  0.4398  0.1557 -0.1706
   16MOL   O265 9895   4.741   4.391   5.822  0.2387  0.3957  0.2654
   16MOL   N266 9896   4.683   4.596   5.895  0.2361  0.3361  0.1499
   16MOL   C267 9897   4.773   4.680   5.820  0.0854 -0.0692  0.1459
   16MOL   C268 9898   4.699   4.778   5.730 -0.5256  0.2243 -0.0769
   16MOL   C269 9899   4.594   4.718   5.636  0.1640 -1.0950  0.3905
   16MOL   C270 9900   4.569   4.793   5.505  1.0115  0.6751 -0.1660
   16MOL   N271 9901   4.496   4.710   5.409  0.3521  0.0680  0.2697
   16MOL   H272 9902   4.135   4.207   5.784 -1.0282  1.2821  1.1408
   16MOL   H273 9903   4.256   4.212   5.670 -0.1090  1.0041  0.0324
   16MOL   H274 9904   4.256   4.384   5.925  0.7736 -0.8364  0.5629
   16MOL   H275 9905   4.321   4.224   5.929  0.5651 -0.7726 -0.5812
   16MOL   H276 9906   4.426   4.443   5.752 -3.3776 -1.8318 -1.4403
   16MOL   H277 9907   4.479   4.283   5.769 -0.0979 -0.9479  0.3105
   16MOL   H278 9908   4.563   4.326   6.004  1.8388  1.6680  0.8895
   16MOL   H279 9909   4.490   4.485   6.007  0.0221 -0.3329 -0.2531
   16MOL   H280 9910   4.618   4.643   5.956  0.0988  1.8904 -1.1701
   16MOL   H281 9911   4.821   4.611   5.751 -2.0320 -0.3547 -1.0990
   16MOL   H282 9912   4.851   4.731   5.876 -0.4361  0.7354  0.1525
   16MOL   H283 9913   4.655   4.858   5.789 -0.0929  0.6955 -0.3977
   16MOL   H284 9914   4.767   4.836   5.669  0.2113  0.4260  0.9321
   16MOL   H285 9915   4.501   4.701   5.690  0.7217 -0.3854  1.6156
   16MOL   H286 9916   4.643   4.623   5.613  0.5122 -1.1727  1.4294
   16MOL   H287 9917   4.657   4.835   5.456  1.0472  1.4443  0.5544
   16MOL   H288 9918   4.507   4.875   5.540 -1.4451 -2.1647  2.3938
   16MOL   H289 9919   4.404   4.745   5.385 -0.4043 -0.1077  2.7910
   16MOL   C290 9920   4.551   4.612   5.348 -0.0902  0.6572  0.2441
   16MOL   O291 9921   4.669   4.582   5.376 -0.5771 -0.3786  0.4544
   16MOL   C292 9922   4.469   4.528   5.248  0.1354  0.8842 -0.0268
   16MOL   C293 9923   4.453   4.377   5.289  0.0427 -0.4244 -0.2408
   16MOL   C294 9924   4.581   4.300   5.314 -0.0546 -0.5636  0.2235
   16MOL   C295 9925   4.569   4.147   5.323 -0.1576 -0.3208  0.1989
   16MOL   C296 9926   4.504   4.100   5.453  0.8406  0.6291 -0.4185
   16MOL   O297 9927   4.402   4.151   5.481  0.0850 -0.0833  0.0068
   16MOL   N298 9928   4.564   4.008   5.531 -0.0636  0.2900 -0.0056
   16MOL   C299 9929   4.522   3.951   5.656 -0.3453  0.4298  0.5758
   16MOL   C300 9930   4.637   3.921   5.754 -0.1705 -0.4214 -0.2290
   16MOL   C301 9931   4.736   4.043   5.772 -0.4996 -0.7085  0.3140
   16MOL   C302 9932   4.839   4.020   5.886  0.5081  0.3011 -0.0773
   16MOL   N303 9933   4.903   4.140   5.929 -0.1987 -0.0082 -0.2952
   16MOL   H304 9934   4.370   4.567   5.228 -0.2072 -0.1679 -0.4218
   16MOL   H305 9935   4.529   4.526   5.156  0.5726 -4.3771  0.1920
   16MOL   H306 9936   4.390   4.376   5.379 -1.1078 -1.4184 -1.0376
   16MOL   H307 9937   4.394   4.313   5.223 -1.1156 -0.9507  1.2591
   16MOL   H308 9938   4.626   4.339   5.405 -0.5021 -3.1971  1.6274
   16MOL   H309 9939   4.651   4.320   5.232 -1.1725 -1.4005 -0.9530
   16MOL   H310 9940   4.668   4.103   5.313  0.4825  0.5285  2.5644
   16MOL   H311 9941   4.507   4.108   5.242 -0.1978 -0.9757  0.5368
   16MOL   H312 9942   4.649   3.965   5.497 -0.6279 -1.6377  0.9809
   16MOL   H313 9943   4.458   3.865   5.637 -0.5967  0.9009 -0.7720
   16MOL   H314 9944   4.456   4.021   5.707  0.1232  0.6987  0.8160
   16MOL   H315 9945   4.588   3.904   5.849  2.0775  1.1265  1.2518
   16MOL   H316 9946   4.682   3.825   5.727  0.8793 -0.2959  1.0462
   16MOL   H317 9947   4.674   4.129   5.797 -0.5481 -0.8940  0.8316
   16MOL   H318 9948   4.788   4.056   5.677 -0.8277 -1.0399  0.0862
   16MOL   H319 9949   4.909   3.947   5.845  1.8135  0.6230  1.5312
   16MOL   H320 9950   4.795   3.967   5.971  0.6630 -0.5590 -0.5214
   16MOL   H321 9951   4.872   4.231   5.899  1.7943  1.0342  0.6579
   16MOL   C322 9952   4.998   4.137   6.022  0.6542  0.0413 -0.0257
   16MOL   O323 9953   5.054   4.035   6.054 -0.0487  0.1215  0.1952
   16MOL   C324 9954   5.027   4.263   6.100  0.5434 -0.6726 -0.8353
   16MOL   C325 9955   4.952   4.264   6.239 -0.4020 -0.0821 -0.1646
   16MOL   C326 9956   4.811   4.310   6.241  0.8162 -0.4854  0.3323
   16MOL   C327 9957   4.743   4.283   6.380  0.2710  0.5276 -0.9974
   16MOL   C328 9958   4.633   4.377   6.408  0.0316 -0.3210 -0.4064
   16MOL   O329 9959   4.661   4.476   6.472  0.0937 -0.3873  0.3514
   16MOL   N330 9960   4.508   4.334   6.382 -0.0012  0.3615 -0.5800
   16MOL   C331 9961   4.388   4.414   6.417  0.3404 -0.1031  0.0826
   16MOL   C332 9962   4.352   4.523   6.318 -0.3686  0.2445  0.2349
   16MOL   C333 9963   4.227   4.603   6.366 -0.7883  0.1248  0.0918
   16MOL   C334 9964   4.194   4.731   6.298 -0.7537 -0.2734  0.2499
   16MOL   N335 9965   4.171   4.718   6.156  0.0231  0.7030  0.2536
   16MOL   H336 9966   5.135   4.261   6.116  0.1422 -0.7136  2.2342
   16MOL   H337 9967   5.014   4.351   6.036  0.7712  0.8801  1.2015
   16MOL   H338 9968   4.961   4.163   6.280  0.2944  0.7722  1.8712
   16MOL   H339 9969   5.015   4.325   6.304  1.2318  0.3284 -2.0895
   16MOL   H340 9970   4.748   4.264   6.165 -1.0070 -0.1798  1.6191
   16MOL   H341 9971   4.816   4.416   6.215 -0.6260 -1.1591 -2.8864
   16MOL   H342 9972   4.817   4.296   6.459  0.7955 -1.4211 -1.1495
   16MOL   H343 9973   4.714   4.179   6.397  1.3286  0.5181  0.8479
   16MOL   H344 9974   4.489   4.247   6.333  0.5622  0.1526 -0.4325
   16MOL   H345 9975   4.421   4.463   6.509 -0.0941 -1.5756  1.0391
   16MOL   H346 9976   4.303   4.351   6.440  0.1209  0.8306  1.8993
   16MOL   H347 9977   4.441   4.586   6.318 -1.2812  1.5786 -0.7835
   16MOL   H348 9978   4.340   4.484   6.217  1.1061  0.6082 -0.0932
   16MOL   H349 9979   4.236   4.606   6.474  0.7150  0.2194 -0.0375
   16MOL   H350 9980   4.144   4.532   6.356 -0.6604 -0.0134  0.0179
   16MOL   H351 9981   4.272   4.803   6.323 -1.2507  0.6598 -0.7979
   16MOL   H352 9982   4.097   4.772   6.327 -1.3880  0.7972 -3.1495
   16MOL   H353 9983   4.077   4.692   6.129  0.6682 -1.1635 -0.2472
   16MOL   C354 9984   4.262   4.719   6.061 -0.3759  0.6115 -0.3649
   16MOL   O355 9985   4.385   4.723   6.077 -0.2119  0.1829 -0.2009
   16MOL   C356 9986   4.216   4.707   5.917 -0.3245 -0.4252 -0.3507
   16MOL   C357 9987   4.142   4.829   5.865 -0.5873  0.0844  0.2890
   16MOL   C358 9988   4.213   4.938   5.784  0.3228 -0.0348  0.4752
   16MOL   C359 9989   4.340   5.005   5.853  0.0221  0.0830  0.0278
   16MOL   C360 9990   4.417   5.100   5.760  0.1374  0.4173 -0.1690
   16MOL   O361 9991   4.362   5.136   5.657 -0.5664 -0.3028  0.5818
   16MOL   N362 9992   4.540   5.134   5.801  0.2242 -0.8917 -0.2138
   16MOL   C363 9993   4.618   5.240   5.737 -0.6001  0.3184  0.2014
   16MOL   C364 9994   4.737   5.182   5.649  0.0443  0.1481  0.2952
   16MOL   C365 9995   4.810   5.303   5.574  0.1591 -0.7941 -1.0706
   16MOL   C366 9996   4.936   5.260   5.498  0.5537  0.1489  0.7563
   16MOL   N367 9997   5.006   5.368   5.428 -0.0715  0.1775 -0.0059
   16MOL   H368 9998   4.300   4.679   5.852 -0.2307 -1.1045  0.0551
   16MOL   H369 9999   4.146   4.624   5.904 -1.5845  0.3754  1.1162
   16MOL   H37010000   4.065   4.785   5.801 -0.8646  0.4075  0.4012
   16MOL   H37110001   4.087   4.870   5.950  2.2995 -0.4556  2.4945
   16MOL   H37210002   4.138   5.008   5.747  1.4662  0.4642 -0.9294
   16MOL   H37310003   4.256   4.898   5.692 -2.5236  1.3396 -1.5088
   16MOL   H37410004   4.417   4.934   5.882 -0.7971 -0.5992  0.5531
   16MOL   H37510005   4.319   5.068   5.940 -0.8620  0.6968 -0.6146
   16MOL   H37610006   4.573   5.100   5.891 -0.4443  0.7968  0.6835
   16MOL   H37710007   4.646   5.301   5.823 -4.0688  0.4818  1.3046
   16MOL   H37810008   4.544   5.302   5.686  0.6337  0.5132 -1.3991
   16MOL   H37910009   4.795   5.106   5.701 -1.0106 -0.4988  0.5546
   16MOL   H38010010   4.675   5.123   5.581 -0.5154 -1.4199  2.1268
   16MOL   H38110011   4.839   5.376   5.650  1.2406 -2.6891  0.3853
   16MOL   H38210012   4.744   5.354   5.504 -0.4977 -0.4623 -0.2165
   16MOL   H38310013   4.901   5.190   5.422 -2.8195  0.9376  1.4978
   16MOL   H38410014   5.000   5.209   5.570  0.0623  0.6699  1.5757
   16MOL   H38510015   4.985   5.386   5.331 -0.5805  1.5041  0.3352
   16MOL   C38610016   5.094   5.457   5.482  0.2858  0.5270  0.6064
   16MOL   O38710017   5.132   5.453   5.599  0.3100 -0.1841 -0.3808
   16MOL   C38810018   5.142   5.576   5.392 -0.2977  0.6317  0.5975
   16MOL   C38910019   5.284   5.552   5.334 -0.1898 -0.5169  0.3386
   16MOL   C39010020   5.286   5.445   5.225 -0.3959 -0.1258 -0.1524
   16MOL   C39110021   5.234   5.491   5.084 -0.5718  0.1136  0.5120
   16MOL   C39210022   5.123   5.396   5.038  0.1035 -0.3227 -0.6994
   16MOL   O39310023   5.020   5.378   5.103 -0.8463  0.5315 -0.1880
   16MOL   N39410024   5.155   5.322   4.932  0.0070 -0.0988 -0.0846
   16MOL   C39510025   5.076   5.206   4.889  0.1081  0.5315  0.0467
   16MOL   C39610026   5.105   5.170   4.742  0.1629  0.1624  0.3532
   16MOL   C39710027   5.024   5.055   4.680 -0.8272 -0.2065 -0.2988
   16MOL   C39810028   5.057   4.917   4.743  0.1382 -0.0222 -0.7270
   16MOL   N39910029   4.963   4.818   4.686 -0.6729 -0.6036 -1.0730
   16MOL   H40010030   5.066   5.586   5.315 -1.7665 -0.6960  1.8269
   16MOL   H40110031   5.138   5.664   5.457  2.1372  0.3739  1.1498
   16MOL   H40210032   5.322   5.644   5.291 -1.4535  0.5770  1.5225
   16MOL   H40310033   5.353   5.534   5.417  0.8753 -0.0962 -0.4514
   16MOL   H40410034   5.243   5.354   5.267  0.7024  0.0480  1.4127
   16MOL   H40510035   5.390   5.416   5.211 -0.0347  0.3837  1.3776
   16MOL   H40610036   5.313   5.503   5.010 -0.2170  0.1861  0.9049
   16MOL   H40710037   5.181   5.586   5.092  0.4397  0.8260 -1.0149
   16MOL   H40810038   5.248   5.321   4.893  0.7173 -0.4529  1.5659
   16MOL   H40910039   4.971   5.231   4.906 -0.1305 -1.1350  1.1155
   16MOL   H41010040   5.107   5.128   4.958 -0.9099  0.4048  0.3728
   16MOL   H41110041   5.103   5.258   4.678  0.7748 -1.1652 -1.5235
   16MOL   H41210042   5.209   5.140   4.734  0.1902  0.4990 -0.6491
   16MOL   H41310043   5.045   5.054   4.573  1.2306 -1.1728  0.0943
   16MOL   H41410044   4.924   5.097   4.686 -0.7577  0.3199 -2.4104
   16MOL   H41510045   5.048   4.944   4.849 -0.0779 -1.1207 -0.4642
   16MOL   H41610046   5.161   4.893   4.723 -0.1784 -1.6944 -0.4055
   16MOL   H41710047   4.876   4.803   4.735 -0.3192  1.2871  0.2245
   16MOL   C41810048   4.981   4.752   4.573 -0.3489  1.0719 -0.5020
   16MOL   O41910049   5.060   4.783   4.487 -0.8178  0.7046  0.6702
   16MOL   C42010050   4.879   4.637   4.554 -0.4113  0.1021  0.2420
   16MOL   C42110051   4.791   4.665   4.430  0.1544 -0.0569 -0.0708
   16MOL   C42210052   4.853   4.596   4.308 -0.6096  0.1932 -0.0265
   16MOL   C42310053   4.788   4.648   4.180 -0.0912 -0.0617 -0.5124
   16MOL   C42410054   4.845   4.595   4.049  0.6977 -0.3793  0.5048
   16MOL   O42510055   4.895   4.484   4.039 -0.4372 -0.1425  0.2044
   16MOL   N42610056   4.852   4.678   3.945 -0.6885  0.3111  0.0949
   16MOL   C42710057   4.904   4.656   3.815 -0.0774 -0.2675 -0.2490
   16MOL   C42810058   4.894   4.775   3.715 -0.1309 -0.4154 -0.0435
   16MOL   C42910059   4.970   4.751   3.582 -0.5904  0.2811 -0.1295
   16MOL   C43010060   4.888   4.665   3.489 -0.2574  0.2445 -0.0200
   16MOL   N43110061   4.961   4.636   3.365  0.0869 -0.2246  0.2107
   16MOL   H43210062   4.922   4.537   4.562  0.2178  0.3597  0.1417
   16MOL   H43310063   4.817   4.647   4.643  0.0262  3.3109  0.2320
   16MOL   H43410064   4.696   4.613   4.448  0.6593 -0.6838  0.8554
   16MOL   H43510065   4.767   4.771   4.423 -1.1070 -0.3864 -0.8275
   16MOL   H43610066   4.863   4.488   4.314 -0.0231  0.2327 -0.2748
   16MOL   H43710067   4.960   4.618   4.312 -1.1123  3.1700 -1.4905
   16MOL   H43810068   4.789   4.757   4.189 -1.0637  0.1930 -2.9201
   16MOL   H43910069   4.685   4.614   4.185 -0.7489  2.1271  1.7301
   16MOL   H44010070   4.798   4.764   3.950  0.0993  0.9992 -2.5613
   16MOL   H44110071   4.862   4.568   3.767  0.8066 -0.1311 -1.2955
   16MOL   H44210072   5.002   4.615   3.843 -0.0623 -1.3787 -1.9122
   16MOL   H44310073   4.793   4.800   3.683 -0.1149  1.3255  1.1943
   16MOL   H44410074   4.939   4.863   3.762  0.8396 -0.9253 -0.0143
   16MOL   H44510075   5.074   4.728   3.605 -0.5437  0.4053 -0.2173
   16MOL   H44610076   4.979   4.848   3.535 -0.1708 -0.8332 -2.4314
   16MOL   H44710077   4.788   4.703   3.470 -1.2632 -3.3689 -2.6416
   16MOL   H44810078   4.882   4.573   3.548 -0.4874 -0.7289 -1.5191
   16MOL   H44910079   5.061   4.640   3.379  0.2274  2.1971 -1.1270
   16MOL   C45010080   4.900   4.646   3.248  0.1647 -0.2012 -0.5091
   16MOL   O45110081   4.788   4.678   3.228  0.1549 -0.4489  0.4535
   16MOL   C45210082   4.990   4.611   3.129 -0.0640 -0.1401 -0.3157
   16MOL   C45310083   4.938   4.512   3.027  0.1375 -0.1517 -0.2186
   16MOL   C45410084   5.005   4.507   2.888 -0.3869 -0.4648 -0.1987
   16MOL   C45510085   4.924   4.407   2.815  0.7111  0.8178 -0.0024
   16MOL   C45610086   4.817   4.473   2.725  0.1818 -0.6881 -0.5087
   16MOL   O45710087   4.842   4.577   2.662  0.3691  0.5848 -0.1035
   16MOL   N45810088   4.700   4.412   2.720 -0.0863  0.0104 -0.1062
   16MOL   C45910089   4.589   4.459   2.635 -0.5289 -0.6195 -0.3750
   16MOL   C46010090   4.549   4.347   2.536  0.3658  0.4572 -0.5343
   16MOL   C46110091   4.654   4.299   2.432 -0.0162 -0.0933 -0.8183
   16MOL   C46210092   4.603   4.165   2.377 -0.0684 -1.1752  0.1466
   16MOL   N46310093   4.697   4.117   2.281 -0.2839  0.4039  0.4559
   16MOL   H46410094   5.002   4.705   3.076  1.9088  0.0153  0.3670
   16MOL   H46510095   5.084   4.578   3.173 -0.5307  0.8305  1.4729
   16MOL   H46610096   4.944   4.413   3.073 -0.8643 -0.2828 -0.3544
   16MOL   H46710097   4.832   4.537   3.016  0.2655  2.6451  3.7032
   16MOL   H46810098   5.105   4.468   2.907  0.6212  0.4276 -3.3249
   16MOL   H46910099   5.015   4.606   2.844 -1.1340  0.5831  1.9262
   16MOL   H47010100   4.882   4.326   2.874  3.7825 -2.1627 -1.6905
   16MOL   H47110101   4.991   4.356   2.746 -1.7004  1.1220 -2.6635
   16MOL   H47210102   4.679   4.351   2.798  1.0566  2.1095  1.9119
   16MOL   H47310103   4.623   4.545   2.577  0.2874 -0.8807 -0.3017
   16MOL   H47410104   4.513   4.501   2.700 -1.4741 -0.1933 -1.7419
   16MOL   H47510105   4.506   4.267   2.596 -0.9653  1.3660 -0.2737
   16MOL   H47610106   4.478   4.397   2.471  1.5637  0.5187 -1.8304
   16MOL   H47710107   4.742   4.272   2.491  0.0412  2.3138  0.2402
   16MOL   H47810108   4.685   4.372   2.358 -1.2650 -1.6101 -2.9124
   16MOL   H47910109   4.509   4.181   2.325  0.7468 -0.7745 -1.2191
   16MOL   H48010110   4.574   4.093   2.454  0.1785 -1.1532  0.2605
   16MOL   H48110111   4.769   4.058   2.319 -0.3036  0.4038  0.4931
   16MOL   C48210112   4.706   4.147   2.150  0.5150  0.8481 -0.5953
   16MOL   O48310113   4.624   4.216   2.094  0.2712 -0.0933  0.2008
   16MOL   C48410114   4.831   4.094   2.083  0.5104 -0.3788  0.4723
   16MOL   C48510115   4.862   4.175   1.959  0.6235  0.2577 -0.4877
   16MOL   C48610116   4.913   4.320   1.985  0.3897  0.0278  0.6521
   16MOL   C48710117   4.923   4.401   1.858  0.1162 -0.2844  0.2179
   16MOL   C48810118   4.948   4.545   1.865  0.6952 -0.1223 -0.0563
   16MOL   O48910119   4.995   4.597   1.970  0.1931  0.2267  0.5494
   16MOL   N49010120   4.927   4.603   1.748 -0.5959  0.2517 -0.4605
   16MOL   C49110121   4.943   4.748   1.723  0.2148 -1.3432  0.2551
   16MOL   C49210122   5.069   4.764   1.630  0.6623 -0.7821 -0.0310
   16MOL   C49310123   5.073   4.916   1.586  0.0357 -0.3235 -1.1215
   16MOL   C49410124   5.199   4.947   1.501  0.0810  0.1480  0.2178
   16MOL   N49510125   5.213   4.843   1.394 -0.0929  0.5935  0.4243
   16MOL   H49610126   4.921   4.093   2.145  1.0616  2.2098 -0.1864
   16MOL   H49710127   4.815   3.997   2.037 -2.3263  0.5976 -0.7742
   16MOL   H49810128   4.933   4.127   1.892  0.4335 -1.3716  0.4532
   16MOL   H49910129   4.769   4.196   1.906 -1.6675 -1.9022  2.4958
   16MOL   H50010130   5.008   4.323   2.038  1.1740 -2.4656 -0.5128
   16MOL   H50110131   4.847   4.375   2.051 -0.7089 -1.2424  0.6298
   16MOL   H50210132   4.832   4.385   1.800 -0.4358 -1.1780  1.2937
   16MOL   H50310133   5.003   4.352   1.803  0.0263  1.3884 -1.4301
   16MOL   H50410134   4.923   4.545   1.665 -1.0466 -0.9866  0.4017
   16MOL   H50510135   4.954   4.801   1.817  0.9980 -1.4596  0.2303
   16MOL   H50610136   4.853   4.786   1.674  0.1947  0.0630  1.3417
   16MOL   H50710137   5.157   4.737   1.689  1.3147  1.9429  0.2932
   16MOL   H50810138   5.065   4.690   1.550 -0.8802 -0.8785  0.1310
   16MOL   H50910139   5.061   4.978   1.675  1.7388 -1.6238  0.0504
   16MOL   H51010140   4.988   4.926   1.519 -1.4221 -0.2101  0.7177
   16MOL   H51110141   5.287   4.954   1.565 -0.3446  2.5143  0.5644
   16MOL   H51210142   5.189   5.045   1.454  0.9694 -0.5298 -1.4656
   16MOL   H51310143   5.242   4.749   1.420  2.3645  0.1079 -3.6176
   16MOL   C51410144   5.159   4.838   1.273 -0.6514 -0.2081  0.4003
   16MOL   O51510145   5.095   4.938   1.238 -0.4369 -0.4822 -0.3724
   16MOL   C51610146   5.179   4.707   1.193 -0.0853 -0.5103 -0.3660
   16MOL   C51710147   5.078   4.679   1.083 -0.1188  0.2580 -0.5343
   16MOL   C51810148   4.936   4.649   1.123  0.5572  0.5776 -0.4829
   16MOL   C51910149   4.844   4.638   1.008  0.8871  0.6471  0.2437
   16MOL   C52010150   4.826   4.497   0.949 -0.7971 -0.3656 -1.4038
   16MOL   O52110151   4.894   4.403   0.993  0.1739  0.4606 -0.2151
   16MOL   N52210152   4.729   4.481   0.863 -0.0818 -0.2342  0.5149
   16MOL   C52310153   4.633   4.570   0.816  0.0302 -0.3729  0.1199
   16MOL   C52410154   4.490   4.515   0.816  0.2519  0.0044  0.3627
   16MOL   C52510155   4.395   4.630   0.788 -0.3162  0.1205 -0.2225
   16MOL   C52610156   4.247   4.593   0.794  0.3587  0.0953  0.5422
   16MOL   N52710157   4.165   4.706   0.755  0.8852 -0.3981  0.2621
   16MOL   H52810158   5.280   4.710   1.154  0.3294  0.3607  0.7622
   16MOL   H52910159   5.180   4.626   1.266 -0.8050  0.6373  0.9600
   16MOL   H53010160   5.098   4.761   1.014  3.3829  0.8900  1.0903
   16MOL   H53110161   5.120   4.590   1.036 -0.5872 -0.6109  0.6623
   16MOL   H53210162   4.898   4.725   1.191 -0.3690  0.8205 -1.2581
   16MOL   H53310163   4.928   4.560   1.185  0.1781  0.3283 -0.8904
   16MOL   H53410164   4.868   4.708   0.928  0.4203 -1.1646 -1.5314
   16MOL   H53510165   4.747   4.670   1.045 -0.7841 -2.5560 -1.1309
   16MOL   H53610166   4.715   4.382   0.859  0.8136 -0.3444  0.0465
   16MOL   H53710167   4.666   4.609   0.719 -0.2378 -3.8148 -1.4529
   16MOL   H53810168   4.630   4.664   0.871  1.5554  0.9206 -1.9279
   16MOL   H53910169   4.478   4.443   0.735 -3.6986 -0.0009  0.8558
   16MOL   H54010170   4.463   4.468   0.910  0.3814  1.0581  0.9249
   16MOL   H54110171   4.414   4.672   0.689 -2.7452 -0.3056 -0.9070
   16MOL   H54210172   4.419   4.703   0.865 -1.6561 -0.3996  0.7156
   16MOL   H54310173   4.218   4.560   0.894 -1.2092  1.2740  0.4878
   16MOL   H54410174   4.237   4.504   0.731 -2.1425  0.6378  0.1297
   16MOL   H54510175   4.199   4.798   0.778 -0.0532  1.1319 -3.9184
   16MOL   C54610176   4.036   4.698   0.716  0.4741 -0.9566 -0.3335
   16MOL   O54710177   3.972   4.591   0.702 -0.0975  0.2675 -0.8616
   16MOL   C54810178   3.978   4.837   0.681  0.0003  0.2944  0.0700
   16MOL   C54910179   3.848   4.839   0.618  0.6890 -0.0746 -0.0880
   16MOL   C55010180   3.846   4.817   0.463  0.2187 -0.2204  0.1064
   16MOL   C55110181   3.939   4.914   0.379 -0.2202  0.2737  0.5103
   16MOL   C55210182   3.941   4.894   0.226 -0.4023 -0.1205 -0.3596
   16MOL   O55310183   3.861   4.815   0.184 -0.2109  0.3802 -0.3231
   16MOL   N55410184   4.029   4.949   0.146  0.3109  1.0497 -0.2698
   16MOL   C55510185   4.050   4.912   0.003 -0.1853 -0.1943 -0.5156
   16MOL   C55610186   4.132   5.025   7.635 -0.5066  0.1603  0.2060
   16MOL   C55710187   4.251   5.065   0.019  0.2498 -0.0133  0.3023
   16MOL   C55810188   4.361   5.134   7.637 -0.3186  0.2965  1.3251
   16MOL   N55910189   4.473   5.170   0.019 -0.2368  0.1596 -0.2470
   16MOL   H56010190   3.963   4.886   0.777  0.2119  1.6320 -0.5774
   16MOL   H56110191   4.049   4.909   0.641  1.2522 -0.9818 -0.0430
   16MOL   H56210192   3.783   4.770   0.671 -0.4863  0.4174 -0.8689
   16MOL   H56310193   3.794   4.934   0.624 -0.0182 -0.3248 -2.2749
   16MOL   H56410194   3.747   4.831   0.419  1.3833  0.0717 -2.5086
   16MOL   H56510195   3.875   4.712   0.457  0.2563 -0.3062  1.6172
   16MOL   H56610196   4.042   4.910   0.415  0.5544 -1.1740 -1.7879
   16MOL   H56710197   3.906   5.012   0.413 -2.7784 -0.2507 -0.3738
   16MOL   H56810198   4.076   5.033   0.178 -2.4398  2.2610  0.7783
   16MOL   H56910199   3.951   4.885   7.666  0.9959 -3.1995 -1.6694
   16MOL   H57010200   4.109   4.821   7.693  1.7380  0.8771  0.7508
   16MOL   H57110201   4.175   4.982   7.545 -0.0066 -1.4586  1.2022
   16MOL   H57210202   4.069   5.111   7.615 -0.3251  0.4605  0.8861
   16MOL   H57310203   4.279   4.976   0.077 -0.5652 -0.6245 -0.2321
   16MOL   H57410204   4.207   5.134   0.090  0.6847 -1.4565  2.0322
   16MOL   H57510205   4.316   5.215   7.580 -1.8512 -0.6484  1.1954
   16MOL   H57610206   4.388   5.070   7.553  0.4594 -1.5422  2.9508
   16MOL   H57710207   4.484   5.263   0.056 -2.2090 -0.4308  1.9656
   16MOL   C57810208   4.584   5.092   0.046  0.1362  0.0440  0.4075
   16MOL   O57910209   4.583   4.971   0.029 -0.8254  0.6914  0.0914
   16MOL   C58010210   4.696   5.164   0.114  0.3817  0.4894  0.2746
   16MOL   C58110211   4.817   5.180   0.018 -0.2048  0.5684 -0.0320
   16MOL   C58210212   4.797   5.253   7.588 -0.0848 -0.7536 -0.0603
   16MOL   C58310213   4.932   5.287   7.520 -0.4191 -0.2314  0.3651
   16MOL   C58410214   4.911   5.377   7.393  0.0755  0.5257  0.9583
   16MOL   O58510215   4.821   5.462   7.383 -0.0321  0.5253 -0.5924
   16MOL   N58610216   4.982   5.339   7.285  0.0703  0.1632 -0.1030
   16MOL   C58710217   4.993   5.409   7.157 -0.6201  0.2196  0.2836
   16MOL   C58810218   5.066   5.549   7.163 -0.3748  0.3794 -0.3006
   16MOL   C58910219   5.115   5.594   7.025 -0.1023  0.2151  0.5289
   16MOL   C59010220   5.200   5.722   7.037  0.6091 -0.1845 -0.2818
   16MOL   N59110221   5.202   5.784   6.903  0.1733 -0.7272 -0.1203
   16MOL   H59210222   4.662   5.261   0.149 -0.2882  1.1049 -2.0135
   16MOL   H59310223   4.716   5.101   0.202  1.5667  0.5831  0.0838
   16MOL   H59410224   4.898   5.235   0.065  0.5657 -0.2315 -0.4076
   16MOL   H59510225   4.860   5.084   7.691  1.7764  0.8574  1.8727
   16MOL   H59610226   4.740   5.342   7.615 -0.0050 -0.2903 -1.3734
   16MOL   H59710227   4.738   5.192   7.519 -0.4204 -0.0553 -0.3868
   16MOL   H59810228   4.982   5.195   7.491 -1.3777 -0.9723  1.0305
   16MOL   H59910229   4.992   5.346   7.589 -0.1882  0.7828 -0.6917
   16MOL   H60010230   5.042   5.260   7.302  0.3518  1.1579  4.0179
   16MOL   H60110231   4.890   5.414   7.123  0.2540 -0.8253 -2.6583
   16MOL   H60210232   5.045   5.346   7.084 -0.6254  0.0229  0.4503
   16MOL   H60310233   5.001   5.627   7.205  0.7012  0.4799  1.2275
   16MOL   H60410234   5.148   5.543   7.235 -0.7001 -0.1123  0.0383
   16MOL   H60510235   5.025   5.619   6.969  1.1793 -0.7471 -2.0464
   16MOL   H60610236   5.158   5.504   6.980 -2.2832 -0.5273 -0.1498
   16MOL   H60710237   5.299   5.703   7.077 -0.0494  0.7118  1.8568
   16MOL   H60810238   5.140   5.795   7.091 -0.0984 -0.1515 -1.0974
   16MOL   H60910239   5.134   5.856   6.881  0.7998 -0.1906 -0.2983
   16MOL   C61010240   5.287   5.743   6.808 -0.2488 -0.2663  0.0736
   16MOL   O61110241   5.373   5.645   6.821  0.1744 -0.6665  0.1809
   16MOL   C61210242   5.274   5.815   6.676 -0.1145  0.5266  0.6429
   16MOL   C61310243   5.393   5.839   6.593  0.4292  0.3288 -0.4100
   16MOL   C61410244   5.518   5.907   6.660 -0.3721  0.4880  0.6166
   16MOL   C61510245   5.614   5.826   6.742 -0.1803 -0.1472  0.1925
   16MOL   C61610246   5.671   5.702   6.668  0.0938 -0.8643  0.4630
   16MOL   O61710247   5.728   5.714   6.556 -0.0104 -0.1007 -0.3215
   16MOL   N61810248   5.649   5.587   6.727  0.4947  0.1522 -0.4849
   16MOL   C61910249   5.718   5.460   6.703  0.2242  0.3442 -0.3379
   16MOL   C62010250   5.806   5.425   6.821 -0.0745 -0.0936  0.4478
   16MOL   C62110251   5.867   5.284   6.827  0.3782 -0.6507 -0.2076
   16MOL   C62210252   5.926   5.258   6.965  0.7034 -0.5960  0.0336
   16MOL   N62310253   6.000   5.136   6.956  0.2936  0.3901 -0.0329
   16MOL   H62410254   5.195   5.765   6.620  0.4551  1.5470 -1.0961
   16MOL   H62510255   5.230   5.912   6.699 -2.8634 -0.9650  1.9303
   16MOL   H62610256   5.423   5.751   6.536  0.0967 -0.3585  0.4666
   16MOL   H62710257   5.349   5.904   6.518 -2.5798  0.5250  1.4600
   16MOL   H62810258   5.480   5.992   6.717  1.5919  1.7171  0.1011
   16MOL   H62910259   5.575   5.943   6.575  2.8041  0.7216  2.7394
   16MOL   H63010260   5.571   5.798   6.837  1.1637 -0.9621  0.5815
   16MOL   H63110261   5.690   5.896   6.776  0.3106 -0.3642 -0.4473
   16MOL   H63210262   5.570   5.586   6.791  0.5377  2.3845 -0.3624
   16MOL   H63310263   5.781   5.467   6.614  1.6845  4.3975  0.9023
   16MOL   H63410264   5.641   5.384   6.691  1.7648 -1.0280 -1.8039
   16MOL   H63510265   5.885   5.499   6.833 -0.3444  0.2973 -0.1132
   16MOL   H63610266   5.746   5.440   6.911 -1.1187  0.7954 -0.3782
   16MOL   H63710267   5.944   5.283   6.750 -0.2456 -1.1601 -0.8270
   16MOL   H63810268   5.797   5.204   6.801  0.6701 -0.5401 -1.3640
   16MOL   H63910269   5.846   5.252   7.038  0.6517  1.4162  0.1540
   16MOL   H64010270   5.999   5.333   6.994  1.5258 -1.9903  1.6195
   16MOL   H64110271   6.064   5.147   6.878 -0.2728  1.1844 -0.3983
   16MOL   H64210272   6.060   5.124   7.036 -0.7010 -3.1367  0.2758
   17MOL     C110273   0.405   2.550   7.231 -0.3826 -0.1280 -0.4013
   17MOL     O210274   0.514   2.494   7.209  0.7295  0.3532  0.0753
   17MOL     C310275   0.309   2.507   7.342  0.7920  0.0587  0.0236
   17MOL     C410276   0.345   2.376   7.404  0.0224  0.5092 -0.1725
   17MOL     C510277   0.247   2.315   7.498  0.1397 -0.3713 -0.1369
   17MOL     C610278   0.208   2.399   7.621  0.0837 -0.2720 -0.1230
   17MOL     C710279   0.326   2.439   0.008 -0.2405  0.0864 -0.9340
   17MOL     O810280   0.420   2.361   0.026 -0.0047  0.7192  0.0765
   17MOL     N910281   0.312   2.560   0.072  0.3135  0.0130 -0.6516
   17MOL    C1010282   0.406   2.613   0.169  0.0012 -0.6982 -0.2798
   17MOL    C1110283   0.350   2.626   0.309 -0.0723  0.0902 -0.0658
   17MOL    C1210284   0.289   2.496   0.366  0.6862 -0.0391 -0.2344
   17MOL    C1310285   0.393   2.396   0.421  0.6392 -0.0116 -0.7863
   17MOL    N1410286   0.341   2.288   0.502 -0.3445 -0.2165 -0.0515
   17MOL    H1510287   0.302   2.584   7.418 -1.4399  0.7059 -0.7884
   17MOL    H1610288   0.213   2.524   7.293  0.9244  1.4795  0.2485
   17MOL    H1710289   0.354   2.297   7.330 -0.4726  1.7546 -1.5797
   17MOL    H1810290   0.437   2.401   7.457  0.6401 -1.8052 -0.1082
   17MOL    H1910291   0.272   2.218   7.543  2.3170 -0.8398 -2.2335
   17MOL    H2010292   0.155   2.290   7.447 -1.5735  3.1151  1.1015
   17MOL    H2110293   0.136   2.339   7.676  1.0773  0.1931  1.7103
   17MOL    H2210294   0.152   2.488   7.592  0.3064 -0.0468  0.1302
   17MOL    H2310295   0.238   2.620   0.037 -0.5639 -0.0887  0.9821
   17MOL    H2410296   0.430   2.713   0.133 -1.2575 -0.4417 -0.4374
   17MOL    H2510297   0.492   2.547   0.162 -1.4265 -2.5298 -1.0145
   17MOL    H2610298   0.413   2.693   0.366 -0.0361 -0.6297  0.7457
   17MOL    H2710299   0.260   2.685   0.292  0.0894  0.2836 -0.2431
   17MOL    H2810300   0.225   2.453   0.289 -2.1779  1.2233  1.3699
   17MOL    H2910301   0.236   2.543   0.448  0.8298 -1.5178  0.7237
   17MOL    H3010302   0.474   2.449   0.473 -0.9219  0.7203  0.9768
   17MOL    H3110303   0.453   2.354   0.341  1.8417 -1.4786  0.8247
   17MOL    H3210304   0.288   2.218   0.451 -0.1773 -0.2682 -0.1530
   17MOL    H3310305   0.374   2.640   7.177  1.1316  0.3325 -0.5110
   17MOL    C3410306   0.414   2.235   0.602 -0.1726 -0.3281  1.3781
   17MOL    O3510307   0.507   2.299   0.655  0.6595  0.1165  0.3042
   17MOL    C3610308   0.377   2.095   0.647  0.4699  0.5951  0.6345
   17MOL    C3710309   0.433   2.064   0.786 -0.0283 -0.0741 -0.1281
   17MOL    C3810310   0.448   1.911   0.804  0.0468  0.8491  0.5671
   17MOL    C3910311   0.316   1.833   0.827  0.5200  0.3552 -0.6012
   17MOL    C4010312   0.330   1.696   0.875  0.1264  0.2872  0.3914
   17MOL    O4110313   0.404   1.623   0.800  0.9409  1.0566 -0.4767
   17MOL    N4210314   0.259   1.655   0.979  0.0563  0.2976 -0.4435
   17MOL    C4310315   0.268   1.520   1.029 -0.6444  0.1517  0.5002
   17MOL    C4410316   0.278   1.523   1.185  0.8245  0.3362 -0.1908
   17MOL    C4510317   0.310   1.389   1.263  0.2308 -0.4136 -0.3687
   17MOL    C4610318   0.307   1.417   1.412  1.2318  0.1982 -0.3344
   17MOL    N4710319   0.350   1.303   1.498  0.1376  0.0949  0.4406
   17MOL    H4810320   0.271   2.072   0.656  0.5952 -1.2778 -2.0305
   17MOL    H4910321   0.425   2.031   0.573  0.5711 -1.0206  2.0608
   17MOL    H5010322   0.537   2.097   0.795 -0.0906 -0.2710  1.3682
   17MOL    H5110323   0.381   2.122   0.862 -1.0593  0.2654 -1.0872
   17MOL    H5210324   0.525   1.882   0.875  0.6372  1.7936  0.3231
   17MOL    H5310325   0.496   1.872   0.714 -0.0625  0.4345  0.6897
   17MOL    H5410326   0.246   1.841   0.744  0.9380 -5.7453 -1.7602
   17MOL    H5510327   0.261   1.889   0.903 -0.4698  0.4094 -1.3406
   17MOL    H5610328   0.196   1.718   1.028 -1.5760 -0.9704 -0.8457
   17MOL    H5710329   0.352   1.466   0.984  0.8256  0.2948  3.0024
   17MOL    H5810330   0.185   1.464   0.985  0.3798 -0.6204 -0.4557
   17MOL    H5910331   0.349   1.600   1.215 -0.6947  1.8803 -0.5219
   17MOL    H6010332   0.179   1.553   1.221 -0.0416 -3.1870  0.5410
   17MOL    H6110333   0.411   1.357   1.239 -0.5940 -2.4506 -1.2851
   17MOL    H6210334   0.242   1.310   1.232 -0.9798  0.5858 -0.3084
   17MOL    H6310335   0.202   1.435   1.438  0.9684 -2.7662  0.8437
   17MOL    H6410336   0.372   1.502   1.435 -0.0732  1.0169  0.4520
   17MOL    H6510337   0.429   1.314   1.560 -2.4626 -1.1928  4.0746
   17MOL    C6610338   0.281   1.190   1.514  0.6124 -0.0223 -0.7519
   17MOL    O6710339   0.179   1.154   1.460  0.7004  0.5508  0.1732
   17MOL    C6810340   0.323   1.093   1.624 -0.2737 -0.3062  0.8790
   17MOL    C6910341   0.239   1.114   1.759  0.4046 -0.0786 -0.3134
   17MOL    C7010342   0.270   1.014   1.870  0.3771  0.3141  0.0440
   17MOL    C7110343   0.397   1.034   1.956  0.4402  0.0675  0.3387
   17MOL    C7210344   0.525   0.971   1.908 -0.6902 -0.0077  0.1814
   17MOL    O7310345   0.534   0.851   1.895 -0.2766  0.3937  0.1788
   17MOL    N7410346   0.635   1.046   1.887  0.3869 -0.3745  0.4531
   17MOL    C7510347   0.776   0.986   1.881  0.9314  0.0886 -0.5920
   17MOL    C7610348   0.831   0.983   1.734  0.4796  0.2667 -0.6103
   17MOL    C7710349   0.983   0.949   1.735 -0.0018 -0.0046  0.0804
   17MOL    C7810350   1.076   1.065   1.707 -0.3652 -0.1911  0.6265
   17MOL    N7910351   1.212   1.028   1.663  0.0875 -0.0107 -0.2835
   17MOL    H8010352   0.314   0.989   1.591  0.4162 -0.2033  0.3705
   17MOL    H8110353   0.424   1.113   1.657  0.3100 -0.2032 -0.9359
   17MOL    H8210354   0.261   1.215   1.794 -1.3540  0.1780  0.0889
   17MOL    H8310355   0.131   1.103   1.753  0.5443 -1.0409 -1.1288
   17MOL    H8410356   0.267   0.913   1.830  0.5641  0.4754 -0.3845
   17MOL    H8510357   0.190   1.023   1.943  1.5350  1.8451  1.1717
   17MOL    H8610358   0.381   0.997   2.057 -4.7263 -0.7812 -0.6954
   17MOL    H8710359   0.407   1.142   1.966  1.8498 -0.0968  0.8356
   17MOL    H8810360   0.636   1.146   1.897  1.1337 -0.4664  1.3602
   17MOL    H8910361   0.780   0.888   1.927 -2.3181 -1.5517 -3.5900
   17MOL    H9010362   0.838   1.051   1.943  0.7903 -1.5706  1.3087
   17MOL    H9110363   0.766   0.920   1.673  0.6772 -0.1932 -0.3542
   17MOL    H9210364   0.817   1.082   1.691  1.9281  0.6096 -0.3262
   17MOL    H9310365   0.994   0.869   1.661 -1.2845 -1.0384  0.9784
   17MOL    H9410366   1.011   0.905   1.831 -3.4370 -0.2279  1.0483
   17MOL    H9510367   1.084   1.120   1.801  1.3839 -0.2781  0.5390
   17MOL    H9610368   1.038   1.136   1.633 -2.3658  0.4685  2.2517
   17MOL    H9710369   1.272   1.008   1.742  0.2630  0.1021 -0.3855
   17MOL    C9810370   1.250   1.020   1.535 -0.0170 -0.0508  0.1409
   17MOL    O9910371   1.180   1.055   1.437  0.0759 -0.0431 -0.2776
   17MOL   C10010372   1.396   0.983   1.506 -0.0963 -0.4775  0.4011
   17MOL   C10110373   1.473   1.101   1.445  0.3174 -0.5641  0.5821
   17MOL   C10210374   1.484   1.226   1.532 -0.0923 -0.9698 -0.0043
   17MOL   C10310375   1.529   1.355   1.456 -0.6432  0.2983 -0.7958
   17MOL   C10410376   1.540   1.486   1.534 -0.1909 -0.3251  1.0871
   17MOL   O10510377   1.488   1.507   1.640 -0.0963 -0.0427  0.0569
   17MOL   N10610378   1.603   1.588   1.475 -0.0806 -0.7651  0.3605
   17MOL   C10710379   1.649   1.595   1.334  0.5102  0.2080  0.1724
   17MOL   C10810380   1.774   1.686   1.327 -0.4007 -0.1673  0.1941
   17MOL   C10910381   1.809   1.744   1.182 -0.1667  1.0200 -0.7588
   17MOL   C11010382   1.836   1.638   1.072  0.1178 -0.0210  0.3256
   17MOL   N11110383   1.937   1.538   1.114 -0.3357  0.3682 -0.2584
   17MOL   H11210384   1.448   0.940   1.592  1.3402 -1.6210 -1.0030
   17MOL   H11310385   1.399   0.900   1.436  2.4046 -1.2745  1.3992
   17MOL   H11410386   1.573   1.068   1.419  0.5670  1.7028 -1.5421
   17MOL   H11510387   1.411   1.118   1.356  0.2846  3.2800  1.2588
   17MOL   H11610388   1.566   1.212   1.602  0.2155  0.4145 -0.0795
   17MOL   H11710389   1.396   1.239   1.595 -0.5453 -0.9815 -0.6271
   17MOL   H11810390   1.462   1.378   1.373 -0.1505 -0.0707 -1.2983
   17MOL   H11910391   1.622   1.330   1.404 -0.4692 -0.7002 -0.0342
   17MOL   H12010392   1.597   1.674   1.527  0.5362 -0.6360  0.2237
   17MOL   H12110393   1.569   1.633   1.270  1.1622 -0.8276 -1.2768
   17MOL   H12210394   1.656   1.498   1.286 -2.2618 -0.6308  1.3564
   17MOL   H12310395   1.761   1.775   1.389 -0.8022 -1.8940  2.6591
   17MOL   H12410396   1.864   1.643   1.372  1.5318  0.9062 -2.4871
   17MOL   H12510397   1.889   1.816   1.200 -0.2554  0.6452  1.2391
   17MOL   H12610398   1.731   1.812   1.147 -0.1790  0.9400 -0.8864
   17MOL   H12710399   1.862   1.683   0.976  0.5073  2.7155  1.6728
   17MOL   H12810400   1.748   1.581   1.042 -1.1920  1.9249  0.3722
   17MOL   H12910401   1.994   1.570   1.191 -1.1235  0.0923  0.4335
   17MOL   C13010402   1.968   1.419   1.059 -0.3472 -0.1126  0.0809
   17MOL   O13110403   1.899   1.370   0.971 -0.0867 -0.0811  0.0138
   17MOL   C13210404   2.080   1.333   1.127  0.5594 -0.4608  0.2053
   17MOL   C13310405   2.100   1.195   1.090  0.1677 -0.1366  0.2780
   17MOL   C13410406   2.000   1.081   1.142  0.3137 -0.0851  0.7607
   17MOL   C13510407   1.884   1.048   1.045  0.0796  0.3461 -0.2065
   17MOL   C13610408   1.817   0.914   1.073  0.3564 -0.3928  0.0327
   17MOL   O13710409   1.807   0.822   0.992  0.1834 -1.1904  0.0428
   17MOL   N13810410   1.775   0.901   1.198  0.3143 -0.2934 -0.3060
   17MOL   C13910411   1.695   0.787   1.253 -0.6594 -0.0748  0.2560
   17MOL   C14010412   1.688   0.793   1.409 -0.4475 -0.3828  0.9444
   17MOL   C14110413   1.822   0.771   1.484 -0.4985 -0.7708  0.0511
   17MOL   C14210414   1.934   0.876   1.460 -0.2054  0.0427 -0.2962
   17MOL   N14310415   1.890   1.012   1.499 -0.3064  0.1177 -0.2518
   17MOL   H14410416   2.178   1.378   1.109  0.9573 -1.8282 -1.1108
   17MOL   H14510417   2.051   1.321   1.232 -2.1291 -1.5164 -0.6247
   17MOL   H14610418   2.122   1.189   0.984  1.1315 -1.5434  0.5469
   17MOL   H14710419   2.195   1.159   1.129  0.5263  1.7690  1.2434
   17MOL   H14810420   1.950   1.095   1.238 -0.2955  2.7114  0.0728
   17MOL   H14910421   2.057   0.988   1.147  1.6533  0.7172  0.5914
   17MOL   H15010422   1.929   1.061   0.947 -0.1334  0.5487 -0.2783
   17MOL   H15110423   1.810   1.127   1.051  1.3807  1.4885  1.0838
   17MOL   H15210424   1.822   0.955   1.269 -0.0649 -1.4608  0.8514
   17MOL   H15310425   1.738   0.690   1.229  0.0626  0.6383 -1.4301
   17MOL   H15410426   1.594   0.795   1.210 -0.3295  0.5098 -0.4198
   17MOL   H15510427   1.654   0.892   1.441 -1.6713 -0.0473 -1.2749
   17MOL   H15610428   1.608   0.726   1.440  0.1589 -0.9919  1.2004
   17MOL   H15710429   1.863   0.676   1.452  2.1425  0.6372 -0.9408
   17MOL   H15810430   1.803   0.772   1.591 -0.8922 -0.8689 -0.0177
   17MOL   H15910431   1.972   0.887   1.358  0.7547  1.6931  0.2195
   17MOL   H16010432   2.011   0.852   1.533 -0.1198  1.5915  0.1350
   17MOL   H16110433   1.794   1.016   1.533 -0.7137 -1.0755 -1.2589
   17MOL   C16210434   1.963   1.126   1.497 -0.1817  0.3381  0.6815
   17MOL   O16310435   2.079   1.139   1.464 -0.5773  0.5942  0.1015
   17MOL   C16410436   1.894   1.259   1.532  0.0342  0.1701 -0.4542
   17MOL   C16510437   1.899   1.288   1.685  0.1748 -0.1684  0.2285
   17MOL   C16610438   2.034   1.352   1.726  0.1390  0.1880  0.4120
   17MOL   C16710439   2.075   1.361   1.877  0.2019  0.0988  0.5318
   17MOL   C16810440   2.212   1.428   1.884 -0.0142 -0.0369 -0.6920
   17MOL   O16910441   2.318   1.366   1.884  0.6889 -0.0083  0.5769
   17MOL   N17010442   2.207   1.560   1.889  0.0304  0.6376  0.5072
   17MOL   C17110443   2.326   1.640   1.882 -0.0720 -0.4054  0.3821
   17MOL   C17210444   2.376   1.665   2.025  0.5035  0.2973  0.8586
   17MOL   C17310445   2.510   1.750   2.028  0.5752  0.6416 -0.4428
   17MOL   C17410446   2.511   1.878   1.954  0.0214 -0.1659  0.7483
   17MOL   N17510447   2.622   1.966   2.009  0.0903 -0.2419  0.0241
   17MOL   H17610448   1.922   1.347   1.473  1.3028 -0.2829 -0.5534
   17MOL   H17710449   1.791   1.239   1.504  0.2533 -0.8356 -0.5520
   17MOL   H17810450   1.811   1.349   1.706  1.4499  2.2680 -1.2381
   17MOL   H17910451   1.881   1.199   1.746  0.0542 -1.1807 -1.2761
   17MOL   H18010452   2.044   1.453   1.687  1.8874  0.3775  1.2822
   17MOL   H18110453   2.117   1.295   1.684 -1.4343 -2.8969  1.3898
   17MOL   H18210454   2.079   1.264   1.928 -1.0308  0.5790  1.5603
   17MOL   H18310455   2.013   1.424   1.941 -1.0358  0.6223 -1.1406
   17MOL   H18410456   2.118   1.606   1.876 -0.4381 -0.3171  0.3253
   17MOL   H18510457   2.314   1.736   1.831  1.6921 -0.8768 -1.0077
   17MOL   H18610458   2.405   1.590   1.826 -0.7904 -2.0353  0.8004
   17MOL   H18710459   2.298   1.708   2.087  0.4219  0.4247  0.6684
   17MOL   H18810460   2.398   1.571   2.075  1.6260 -0.4061 -0.8872
   17MOL   H18910461   2.591   1.682   2.002 -1.4649 -1.9202 -0.2478
   17MOL   H19010462   2.539   1.772   2.130  1.3002  0.0638 -0.5224
   17MOL   H19110463   2.415   1.930   1.957  0.6893  1.1191  0.2366
   17MOL   H19210464   2.522   1.861   1.847 -1.0540  1.5916  0.3282
   17MOL   H19310465   2.710   1.930   1.975  1.0064  1.3082  0.7250
   17MOL   C19410466   2.621   2.063   2.098 -0.5033  0.2314 -0.1738
   17MOL   O19510467   2.522   2.113   2.142 -0.1869  0.1973 -0.0713
   17MOL   C19610468   2.762   2.115   2.133  0.2852  1.0784 -0.0360
   17MOL   C19710469   2.795   2.101   2.281 -0.1511  0.2207  0.2962
   17MOL   C19810470   2.746   2.217   2.377  0.2164 -0.1103  0.1762
   17MOL   C19910471   2.843   2.336   2.371  0.1482 -0.0652 -0.0256
   17MOL   C20010472   2.798   2.438   2.475 -0.2918  0.7335 -0.1046
   17MOL   O20110473   2.782   2.413   2.595  0.2513  0.2863  0.6983
   17MOL   N20210474   2.788   2.560   2.422  0.2157  0.8452 -0.0371
   17MOL   C20310475   2.807   2.679   2.507  0.1917  0.3008  0.7707
   17MOL   C20410476   2.690   2.773   2.479  0.6696  0.1063  0.0509
   17MOL   C20510477   2.704   2.903   2.553  0.7768 -0.8298 -0.3384
   17MOL   C20610478   2.603   3.009   2.530  0.0189 -0.7309 -0.2117
   17MOL   N20710479   2.644   3.132   2.599 -1.0246 -0.5554 -0.5868
   17MOL   H20810480   2.841   2.064   2.077  1.5416  0.7391  1.9685
   17MOL   H20910481   2.779   2.218   2.103  1.1920  0.9029 -0.1431
   17MOL   H21010482   2.753   2.005   2.314  0.0773  0.0885  0.2033
   17MOL   H21110483   2.903   2.097   2.291 -0.0578  1.3801 -0.1750
   17MOL   H21210484   2.734   2.174   2.477  2.3746  0.1400  0.5548
   17MOL   H21310485   2.646   2.249   2.348  0.1834  0.9502  1.4538
   17MOL   H21410486   2.856   2.366   2.267 -2.2480 -0.3881 -0.4375
   17MOL   H21510487   2.940   2.295   2.398  0.0969  0.1291  0.4681
   17MOL   H21610488   2.791   2.571   2.322 -0.8513  0.8466 -0.0739
   17MOL   H21710489   2.896   2.732   2.475 -1.8840  2.0649 -2.3752
   17MOL   H21810490   2.810   2.654   2.613 -1.9508 -0.2561  0.7311
   17MOL   H21910491   2.690   2.790   2.371 -3.1200 -1.2367 -0.2317
   17MOL   H22010492   2.593   2.729   2.500  0.8033 -0.3560 -0.2975
   17MOL   H22110493   2.803   2.932   2.517 -0.6626  0.4609 -3.3857
   17MOL   H22210494   2.715   2.879   2.659 -1.0600  0.4279  0.1616
   17MOL   H22310495   2.507   2.987   2.575 -0.3263 -1.7375 -1.4159
   17MOL   H22410496   2.594   3.026   2.423  5.2086 -0.4531 -0.7260
   17MOL   H22510497   2.606   3.141   2.692  0.1312 -3.0067  0.1504
   17MOL   C22610498   2.716   3.227   2.544  0.5672 -0.1107  0.4139
   17MOL   O22710499   2.749   3.217   2.422 -0.1599 -0.1158  0.7346
   17MOL   C22810500   2.764   3.339   2.632 -0.2200  0.3140 -0.0345
   17MOL   C22910501   2.919   3.353   2.639 -0.3579  0.0324 -0.2919
   17MOL   C23010502   2.985   3.254   2.730 -0.4138 -0.0977  0.4610
   17MOL   C23110503   3.015   3.110   2.666  0.3088 -0.0847  0.5265
   17MOL   C23210504   3.097   3.038   2.774 -0.8899  0.0777  0.3787
   17MOL   O23310505   3.216   3.006   2.744 -0.5081 -0.0445  0.2067
   17MOL   N23410506   3.038   2.999   2.888 -0.1174 -0.4172  0.1076
   17MOL   C23510507   3.105   2.929   2.999  0.2683 -0.1145  0.1477
   17MOL   C23610508   3.098   3.014   3.130  0.2801 -0.7706  0.0496
   17MOL   C23710509   3.150   3.159   3.110  0.2711  0.5932  0.1371
   17MOL   C23810510   3.094   3.237   3.236  0.0261 -0.8540  0.2992
   17MOL   N23910511   3.172   3.367   3.235 -0.0893  0.0287 -0.0590
   17MOL   H24010512   2.736   3.437   2.591 -0.7024 -0.2986 -1.2022
   17MOL   H24110513   2.715   3.345   2.729 -1.2919 -2.3561 -0.3761
   17MOL   H24210514   2.959   3.367   2.539  0.9774  1.8632  0.4633
   17MOL   H24310515   2.939   3.447   2.690  0.1291 -0.0318 -0.3638
   17MOL   H24410516   2.937   3.246   2.827 -1.4790  2.2603  0.1542
   17MOL   H24510517   3.074   3.313   2.754  0.5508 -0.7063 -1.4825
   17MOL   H24610518   3.079   3.120   2.579  1.7370  1.8862  1.7416
   17MOL   H24710519   2.928   3.050   2.641  0.7290 -0.1182 -0.8583
   17MOL   H24810520   2.945   3.036   2.902 -0.8758 -2.9631  2.3512
   17MOL   H24910521   3.211   2.910   2.981 -0.0566 -1.5649 -0.2894
   17MOL   H25010522   3.051   2.834   2.999 -1.4650  0.8545  0.3945
   17MOL   H25110523   2.992   3.016   3.158 -0.3381 -0.9262 -2.2057
   17MOL   H25210524   3.155   2.968   3.211 -0.4963  2.1850  2.3637
   17MOL   H25310525   3.109   3.211   3.023 -2.2034 -0.7763  0.4492
   17MOL   H25410526   3.257   3.156   3.093  0.2241  1.0047 -0.2418
   17MOL   H25510527   3.109   3.177   3.326 -2.8571 -0.6859  0.9291
   17MOL   H25610528   2.987   3.256   3.228  0.1758 -0.3006 -0.4231
   17MOL   H25710529   3.153   3.432   3.160  0.4331 -1.6585 -1.6847
   17MOL   C25810530   3.296   3.381   3.294  0.2970 -0.9140 -0.1610
   17MOL   O25910531   3.339   3.296   3.375 -0.1063  0.3877 -0.0980
   17MOL   C26010532   3.385   3.496   3.251 -0.2053  0.1944 -0.1169
   17MOL   C26110533   3.511   3.444   3.171 -0.0435  0.0115  0.5798
   17MOL   C26210534   3.470   3.386   3.035 -0.2047 -0.9759  0.0170
   17MOL   C26310535   3.585   3.357   2.939 -0.0372  0.1992  0.2463
   17MOL   C26410536   3.672   3.241   2.983  0.2760  0.2464  0.1316
   17MOL   O26510537   3.658   3.177   3.087 -0.0004 -0.2418  0.7344
   17MOL   N26610538   3.766   3.212   2.899 -0.4908 -0.1220  0.1958
   17MOL   C26710539   3.860   3.105   2.924 -0.6747 -0.1698  0.4874
   17MOL   C26810540   3.938   3.069   2.799  0.4071  1.3627  0.5373
   17MOL   C26910541   4.080   3.010   2.831 -0.1416 -0.6086 -0.2344
   17MOL   C27010542   4.174   2.969   2.713  0.2171 -0.3291  0.4383
   17MOL   N27110543   4.239   3.085   2.659  0.3461  0.2250  0.3352
   17MOL   H27210544   3.321   3.557   3.187  0.4154 -0.6015 -1.5152
   17MOL   H27310545   3.412   3.567   3.330 -1.6623  0.1675  0.4200
   17MOL   H27410546   3.587   3.521   3.159  1.1321 -1.1514  0.3596
   17MOL   H27510547   3.567   3.372   3.232  0.6509  0.2279  0.1966
   17MOL   H27610548   3.401   3.452   2.983  1.4435 -0.9408 -2.2022
   17MOL   H27710549   3.423   3.289   3.050 -1.5151 -0.4612 -0.6264
   17MOL   H27810550   3.659   3.438   2.939 -2.1948  2.2213 -0.3579
   17MOL   H27910551   3.546   3.333   2.840 -0.6971  1.2162  0.2485
   17MOL   H28010552   3.785   3.271   2.819  0.6111  0.8330  1.1538
   17MOL   H28110553   3.812   3.015   2.961 -1.9367  0.6175  0.8181
   17MOL   H28210554   3.935   3.138   2.996 -1.4950 -1.8694  2.1534
   17MOL   H28310555   3.877   3.001   2.740  1.2427  0.7621  0.3461
   17MOL   H28410556   3.969   3.150   2.734 -0.1253  0.5101 -0.7870
   17MOL   H28510557   4.059   2.925   2.895  0.1478 -0.3807  0.1660
   17MOL   H28610558   4.135   3.074   2.900 -0.4296  0.6655 -1.1796
   17MOL   H28710559   4.114   2.917   2.639  0.9776 -1.3295  0.5221
   17MOL   H28810560   4.245   2.894   2.747  1.9920  1.5649  1.0077
   17MOL   H28910561   4.258   3.158   2.726 -0.9869  1.3661 -0.5119
   17MOL   C29010562   4.264   3.110   2.534  0.6511  0.1081  0.1094
   17MOL   O29110563   4.225   3.032   2.448 -0.1781 -0.6667 -0.4128
   17MOL   C29210564   4.308   3.248   2.496 -0.1564  0.3946 -0.3326
   17MOL   C29310565   4.214   3.360   2.545 -0.1625  0.3895  0.2853
   17MOL   C29410566   4.077   3.342   2.481 -0.6450 -0.2526 -0.2798
   17MOL   C29510567   3.979   3.454   2.513 -0.2857 -0.5076 -0.0154
   17MOL   C29610568   3.944   3.463   2.659 -0.8745 -0.6274  0.0647
   17MOL   O29710569   3.841   3.411   2.695  0.2611 -0.1686 -0.1377
   17MOL   N29810570   4.026   3.535   2.741  0.8844 -0.3887 -0.1975
   17MOL   C29910571   4.018   3.533   2.884  0.2798  0.2571 -0.1916
   17MOL   C30010572   4.106   3.647   2.942  0.0700  0.5883 -0.4706
   17MOL   C30110573   4.097   3.678   3.091 -0.3039 -0.6780 -0.1160
   17MOL   C30210574   4.183   3.813   3.129 -0.1208  0.1790 -0.8746
   17MOL   N30310575   4.214   3.801   3.268  0.2651  0.4508 -0.2306
   17MOL   H30410576   4.412   3.266   2.526 -1.2822  0.2813  4.0191
   17MOL   H30510577   4.301   3.251   2.387 -0.1206  0.4193 -0.3344
   17MOL   H30610578   4.209   3.352   2.654 -0.2381  0.0556  0.2579
   17MOL   H30710579   4.249   3.461   2.523  1.4372  0.3622  2.5648
   17MOL   H30810580   4.043   3.245   2.518 -0.6510  1.1626  3.5478
   17MOL   H30910581   4.091   3.323   2.374 -1.5392 -2.1746 -0.0871
   17MOL   H31010582   3.888   3.437   2.456 -0.1863 -1.2648  0.0390
   17MOL   H31110583   4.020   3.551   2.486  0.5397  0.2298  3.5708
   17MOL   H31210584   4.094   3.598   2.701 -0.3821  0.9154 -0.3234
   17MOL   H31310585   4.027   3.435   2.931  0.8605  0.1846 -0.4438
   17MOL   H31410586   3.917   3.563   2.911  0.4717 -0.6038  1.5682
   17MOL   H31510587   4.207   3.614   2.920 -0.6872 -0.6247 -2.2303
   17MOL   H31610588   4.068   3.732   2.885 -1.4975 -2.2477 -3.8665
   17MOL   H31710589   4.133   3.584   3.134 -0.3254 -0.7479 -0.2506
   17MOL   H31810590   3.994   3.696   3.121  0.4100 -0.2290  2.2045
   17MOL   H31910591   4.133   3.906   3.101  1.2778  1.0371 -0.5350
   17MOL   H32010592   4.277   3.815   3.073  0.5550 -1.1753  0.1857
   17MOL   H32110593   4.170   3.732   3.326  0.3764  1.6139  1.2918
   17MOL   C32210594   4.274   3.899   3.344  0.1573 -0.3878  0.1579
   17MOL   O32310595   4.320   4.004   3.291 -0.2502  0.0058  0.4985
   17MOL   C32410596   4.271   3.877   3.496  0.2689  0.4475 -0.5165
   17MOL   C32510597   4.264   4.013   3.571 -0.3328  0.1245 -0.1842
   17MOL   C32610598   4.403   4.087   3.594  0.3237 -0.5732  0.0274
   17MOL   C32710599   4.371   4.227   3.647  0.0454 -0.1828 -0.1036
   17MOL   C32810600   4.489   4.305   3.714  0.1546  0.6254  0.1308
   17MOL   O32910601   4.606   4.282   3.675  0.0412 -0.2837 -0.3571
   17MOL   N33010602   4.462   4.395   3.805  0.0454 -0.5631 -0.1232
   17MOL   C33110603   4.548   4.485   3.875  0.4543 -0.4501 -0.1558
   17MOL   C33210604   4.463   4.595   3.932  0.6035  0.3674 -0.4394
   17MOL   C33310605   4.368   4.666   3.832  0.2594  0.4795 -0.6041
   17MOL   C33410606   4.443   4.773   3.756  0.0667  0.2803 -0.1191
   17MOL   N33510607   4.356   4.846   3.668 -0.0690 -0.2511  0.5622
   17MOL   H33610608   4.177   3.829   3.521 -1.4727  3.2408 -1.4751
   17MOL   H33710609   4.363   3.823   3.517  1.2205  1.7634 -1.2098
   17MOL   H33810610   4.207   4.077   3.505 -0.4291  2.4942  2.1097
   17MOL   H33910611   4.213   4.003   3.667 -1.0020  1.9569 -0.3287
   17MOL   H34010612   4.463   4.104   3.504 -0.1235  1.8310  0.1596
   17MOL   H34110613   4.462   4.023   3.659  0.6076 -2.8048 -2.3195
   17MOL   H34210614   4.281   4.227   3.709 -0.9307  0.4273 -1.5026
   17MOL   H34310615   4.339   4.287   3.562 -0.3491  1.0523  0.8993
   17MOL   H34410616   4.369   4.392   3.843  0.4654 -0.6811  0.9020
   17MOL   H34510617   4.622   4.521   3.803  0.5684 -0.6402 -0.1357
   17MOL   H34610618   4.607   4.436   3.952  2.3548  3.0347  0.6942
   17MOL   H34710619   4.400   4.557   4.012 -1.3860  0.3943 -1.9532
   17MOL   H34810620   4.521   4.672   3.985 -1.0570  0.6310  1.0354
   17MOL   H34910621   4.283   4.702   3.891 -0.0191 -0.6362 -0.3012
   17MOL   H35010622   4.332   4.598   3.755  2.9767  0.2479 -1.7270
   17MOL   H35110623   4.517   4.715   3.701  0.7003  1.5624 -0.6424
   17MOL   H35210624   4.500   4.842   3.818  1.5490 -1.6835  0.7287
   17MOL   H35310625   4.338   4.800   3.580  1.2443 -0.1786  0.2451
   17MOL   C35410626   4.285   4.956   3.705 -0.2830  0.2690 -0.1591
   17MOL   O35510627   4.302   5.009   3.809  0.0026  0.0883 -0.2714
   17MOL   C35610628   4.176   5.006   3.606 -0.0967 -0.5433  1.1711
   17MOL   C35710629   4.030   4.974   3.644  0.0016  0.1711  0.2731
   17MOL   C35810630   3.999   4.827   3.676 -0.4768  0.4635  0.3419
   17MOL   C35910631   4.032   4.741   3.558  0.4034 -0.4946 -0.4909
   17MOL   C36010632   3.980   4.771   3.420  0.0776 -0.4845 -1.8447
   17MOL   O36110633   3.865   4.817   3.405  0.5185  0.4187  0.1638
   17MOL   N36210634   4.067   4.747   3.320 -0.5285 -0.1088  0.1697
   17MOL   C36310635   4.010   4.737   3.187  0.5353  0.5591 -0.4565
   17MOL   C36410636   4.119   4.748   3.084  0.5350 -0.1501 -0.1698
   17MOL   C36510637   4.058   4.728   2.941  0.1012  0.4550 -0.4494
   17MOL   C36610638   4.174   4.723   2.839  0.5862  0.0153 -0.2140
   17MOL   N36710639   4.135   4.775   2.704  0.1434  0.6800 -0.4718
   17MOL   H36810640   4.183   5.114   3.594  1.4704 -0.8402 -0.8629
   17MOL   H36910641   4.201   4.965   3.508 -1.1269 -0.5643  0.9040
   17MOL   H37010642   4.002   5.041   3.726  0.5329  1.4011 -0.5391
   17MOL   H37110643   3.961   5.018   3.572  0.5549  2.4599  1.1128
   17MOL   H37210644   3.896   4.809   3.706 -0.7816  0.9770 -0.3961
   17MOL   H37310645   4.061   4.800   3.762 -0.5721 -0.3551  0.1584
   17MOL   H37410646   3.999   4.638   3.575  1.7210 -0.5344  2.1276
   17MOL   H37510647   4.139   4.723   3.546  0.7818  1.5188 -0.3032
   17MOL   H37610648   4.162   4.719   3.340 -0.8108 -1.5974 -0.5023
   17MOL   H37710649   3.935   4.809   3.156  0.9686  1.2845  0.1538
   17MOL   H37810650   3.963   4.640   3.171 -1.7983  1.8243 -1.5479
   17MOL   H37910651   4.169   4.844   3.095 -0.3524  0.1650  1.3468
   17MOL   H38010652   4.194   4.672   3.103 -0.2521 -0.4892  1.7536
   17MOL   H38110653   3.987   4.809   2.924 -0.3467  1.1777  4.2130
   17MOL   H38210654   4.006   4.632   2.937  1.5320 -0.4630  2.0155
   17MOL   H38310655   4.217   4.623   2.830  1.1091  0.3134 -1.0946
   17MOL   H38410656   4.263   4.777   2.874  2.4839 -3.1349  0.0302
   17MOL   H38510657   4.046   4.821   2.694 -1.4755 -1.3392  3.5048
   17MOL   C38610658   4.211   4.758   2.593 -0.0649 -0.1866 -0.1844
   17MOL   O38710659   4.324   4.702   2.604 -0.4607 -0.5136  0.2213
   17MOL   C38810660   4.170   4.804   2.456  0.0043 -0.8186  0.1638
   17MOL   C38910661   4.286   4.799   2.353  0.4358 -0.5556 -0.6614
   17MOL   C39010662   4.263   4.885   2.229 -0.5872  0.0435 -0.4695
   17MOL   C39110663   4.298   5.034   2.258  0.1905 -0.5091  0.6630
   17MOL   C39210664   4.323   5.117   2.132  0.1531  0.2926  0.4660
   17MOL   O39310665   4.269   5.092   2.022 -0.0755  0.0931  0.0961
   17MOL   N39410666   4.399   5.228   2.146  0.0433 -0.2064 -0.2273
   17MOL   C39510667   4.427   5.330   2.047 -0.2582 -0.2320  0.0066
   17MOL   C39610668   4.572   5.393   2.047 -0.0229  0.8922  0.3357
   17MOL   C39710669   4.603   5.460   1.913  0.5862  0.1981 -0.5870
   17MOL   C39810670   4.501   5.566   1.860 -0.0738 -0.1202 -0.0729
   17MOL   N39910671   4.555   5.613   1.738 -0.2682 -0.1120  0.0749
   17MOL   H40010672   4.086   4.744   2.420 -1.7688  2.6728 -1.8572
   17MOL   H40110673   4.142   4.910   2.457  1.6187 -0.3920  2.4002
   17MOL   H40210674   4.377   4.830   2.404  0.3657 -1.5340  0.0769
   17MOL   H40310675   4.297   4.693   2.330 -3.2948 -1.5731  1.8212
   17MOL   H40410676   4.160   4.883   2.193 -1.4064  0.1224  1.7922
   17MOL   H40510677   4.326   4.848   2.149 -0.7728 -1.1449 -0.0699
   17MOL   H40610678   4.385   5.045   2.323 -0.1375  1.2877  0.8328
   17MOL   H40710679   4.221   5.093   2.308 -1.1670 -0.6835 -1.1596
   17MOL   H40810680   4.443   5.228   2.237  0.1092 -1.5542 -0.2534
   17MOL   H40910681   4.358   5.412   2.068 -1.0560 -1.4186  2.1885
   17MOL   H41010682   4.405   5.300   1.945 -1.7690  1.5684 -0.2358
   17MOL   H41110683   4.580   5.467   2.127 -0.0898 -0.1684  1.3211
   17MOL   H41210684   4.648   5.318   2.068  2.9083  3.8397  0.7935
   17MOL   H41310685   4.622   5.383   1.838  0.3583 -1.0986  0.6639
   17MOL   H41410686   4.700   5.507   1.927  0.5143  0.1719  0.0334
   17MOL   H41510687   4.486   5.656   1.920 -2.1360 -1.1073  0.9644
   17MOL   H41610688   4.406   5.512   1.860  0.6813 -1.4818  0.6239
   17MOL   H41710689   4.653   5.636   1.752 -0.2451 -0.0923 -0.1095
   17MOL   C41810690   4.485   5.650   1.634  0.1826 -0.2224  0.2491
   17MOL   O41910691   4.366   5.628   1.619  0.3769  0.5158  0.2755
   17MOL   C42010692   4.565   5.716   1.519 -0.8961  0.3579  0.7850
   17MOL   C42110693   4.573   5.641   1.388  0.1560  0.2664  0.4256
   17MOL   C42210694   4.670   5.514   1.388 -0.3984 -0.1558  0.1315
   17MOL   C42310695   4.648   5.391   1.481 -0.2276 -1.1909  0.0208
   17MOL   C42410696   4.734   5.269   1.443  0.5602 -0.2229  0.4651
   17MOL   O42510697   4.854   5.261   1.466 -0.1039 -0.6313 -0.0492
   17MOL   N42610698   4.674   5.163   1.389 -0.5686  0.1463  0.1018
   17MOL   C42710699   4.731   5.039   1.346 -0.0650  0.3917 -0.7200
   17MOL   C42810700   4.640   4.927   1.390 -0.4317 -0.1321 -0.4670
   17MOL   C42910701   4.689   4.781   1.349 -0.0111 -0.2023  0.6453
   17MOL   C43010702   4.591   4.661   1.378  0.5221 -0.5682  0.4341
   17MOL   N43110703   4.457   4.688   1.331  0.1973  0.4514 -0.0135
   17MOL   H43210704   4.509   5.808   1.502  0.5782  1.2208  0.5267
   17MOL   H43310705   4.659   5.760   1.554  0.3072 -1.7589  0.2956
   17MOL   H43410706   4.477   5.601   1.354  0.4084  0.5076 -0.5741
   17MOL   H43510707   4.611   5.714   1.318  0.7938 -0.0019  0.4905
   17MOL   H43610708   4.753   5.567   1.434 -0.5002 -0.9397  1.2327
   17MOL   H43710709   4.699   5.478   1.289 -1.8887 -4.2748  1.0853
   17MOL   H43810710   4.545   5.357   1.467 -0.2823 -1.9546  2.0622
   17MOL   H43910711   4.668   5.413   1.586 -0.7559 -4.0281  0.7683
   17MOL   H44010712   4.577   5.170   1.365 -0.1039  2.1717 -1.3099
   17MOL   H44110713   4.835   5.018   1.373 -0.5462 -1.5970 -0.2758
   17MOL   H44210714   4.729   5.047   1.237  0.7192  1.3583 -0.6723
   17MOL   H44310715   4.664   4.932   1.496  2.7851 -2.2140 -1.0121
   17MOL   H44410716   4.538   4.952   1.363  0.2134  2.8052 -0.2860
   17MOL   H44510717   4.786   4.760   1.394 -0.2180 -0.8235  0.7996
   17MOL   H44610718   4.691   4.781   1.240 -4.2052 -1.9308  0.4775
   17MOL   H44710719   4.592   4.635   1.484  2.8153  0.7379  0.7503
   17MOL   H44810720   4.628   4.575   1.323  0.6954 -1.1469  1.4472
   17MOL   H44910721   4.396   4.732   1.398  0.2672  0.0031  0.3494
   17MOL   C45010722   4.405   4.667   1.210  0.4932  0.5446 -0.0577
   17MOL   O45110723   4.471   4.647   1.105  0.1462  0.6646  0.1186
   17MOL   C45210724   4.256   4.646   1.206  0.1062 -0.0136  0.0662
   17MOL   C45310725   4.169   4.761   1.146  0.2122  0.2763 -0.1128
   17MOL   C45410726   4.148   4.884   1.240  0.3155  1.0137 -0.3731
   17MOL   C45510727   4.033   4.969   1.196  0.2380  0.0245 -0.1650
   17MOL   C45610728   3.891   4.928   1.239 -0.7721 -0.5263 -0.8072
   17MOL   O45710729   3.870   4.847   1.328  0.3577 -0.2509  0.7471
   17MOL   N45810730   3.795   4.997   1.173  0.6595  0.5308  0.7298
   17MOL   C45910731   3.653   4.971   1.181 -0.3977 -0.2540 -0.7894
   17MOL   C46010732   3.603   4.889   1.064 -0.2430 -0.3867  0.5072
   17MOL   C46110733   3.688   4.758   1.044  0.1763  0.3325  0.2264
   17MOL   C46210734   3.656   4.673   0.928  0.0612  0.0485  0.1118
   17MOL   N46310735   3.757   4.567   0.903  0.1155  0.5763  0.5684
   17MOL   H46410736   4.234   4.547   1.165  0.5460 -0.4708  0.9226
   17MOL   H46510737   4.225   4.631   1.309 -0.9799  1.4728 -0.0360
   17MOL   H46610738   4.204   4.798   1.050 -0.9728  2.5984  0.3024
   17MOL   H46710739   4.067   4.726   1.133  0.2272  0.0034  0.4936
   17MOL   H46810740   4.240   4.942   1.245  1.7626 -1.3228  1.1351
   17MOL   H46910741   4.122   4.850   1.340  0.9117 -2.4881 -1.3172
   17MOL   H47010742   4.034   4.982   1.088 -1.5211  0.1841 -0.1796
   17MOL   H47110743   4.054   5.067   1.241  3.4602 -0.7976  0.1809
   17MOL   H47210744   3.822   5.068   1.107  0.4308 -0.1184 -0.0783
   17MOL   H47310745   3.605   5.068   1.187  1.4884  0.8813 -2.9262
   17MOL   H47410746   3.631   4.934   1.281  0.3203  2.1699  0.3009
   17MOL   H47510747   3.508   4.854   1.105  0.1325 -0.3155  1.4708
   17MOL   H47610748   3.591   4.935   0.967  3.8489 -1.8927 -0.8359
   17MOL   H47710749   3.688   4.704   1.139 -1.7490  0.0561  0.0880
   17MOL   H47810750   3.788   4.801   1.031 -0.0542  1.7533  2.8094
   17MOL   H47910751   3.638   4.734   0.839  1.7000 -1.1960 -1.0943
   17MOL   H48010752   3.555   4.637   0.948  0.2388 -0.2564  0.4439
   17MOL   H48110753   3.823   4.593   0.830  0.3546  1.3522  1.0593
   17MOL   C48210754   3.750   4.448   0.957 -0.3988  0.4055 -0.2807
   17MOL   O48310755   3.662   4.426   1.041  0.0137 -0.1494 -0.0271
   17MOL   C48410756   3.848   4.344   0.913  0.2855 -0.4415  0.0896
   17MOL   C48510757   3.908   4.256   1.026 -0.1029  0.3612  1.2460
   17MOL   C48610758   4.023   4.320   1.102  0.2330  0.1757 -0.0093
   17MOL   C48710759   4.073   4.220   1.203 -0.4050  0.6876 -0.0629
   17MOL   C48810760   4.193   4.273   1.278 -0.1797 -0.2527 -0.3783
   17MOL   O48910761   4.305   4.270   1.235  0.0431 -0.4263 -0.2219
   17MOL   N49010762   4.162   4.323   1.402 -0.2717  0.1171 -0.1210
   17MOL   C49110763   4.252   4.378   1.499 -0.8462  0.9135  0.0170
   17MOL   C49210764   4.176   4.396   1.636  0.1505 -0.3775 -0.1417
   17MOL   C49310765   4.054   4.488   1.630 -0.5106  0.0870 -0.4250
   17MOL   C49410766   4.082   4.639   1.606 -0.1911 -0.3402 -0.2596
   17MOL   N49510767   3.964   4.720   1.592 -0.3879 -0.1234  0.5393
   17MOL   H49610768   3.789   4.279   0.848 -0.0896  1.9951 -2.1345
   17MOL   H49710769   3.923   4.392   0.850  0.0523 -0.0617  0.1007
   17MOL   H49810770   3.835   4.210   1.093  0.2573  0.8627  1.9958
   17MOL   H49910771   3.955   4.174   0.971 -0.9115  0.7877 -0.0869
   17MOL   H50010772   4.011   4.414   1.155 -1.7546  0.6740 -1.2977
   17MOL   H50110773   4.107   4.332   1.033  2.6653 -1.5572  2.5055
   17MOL   H50210774   4.097   4.125   1.155  1.1512  1.9869 -1.9023
   17MOL   H50310775   3.994   4.197   1.275 -2.3865 -0.8322 -2.6191
   17MOL   H50410776   4.064   4.337   1.424 -0.6890 -0.7336 -1.4145
   17MOL   H50510777   4.306   4.466   1.466  1.0865  0.0844  0.8316
   17MOL   H50610778   4.333   4.304   1.504 -2.3205 -0.8357 -1.1807
   17MOL   H50710779   4.157   4.295   1.671 -0.9477 -1.4637 -3.6558
   17MOL   H50810780   4.253   4.435   1.703 -0.7219  3.5689 -1.3195
   17MOL   H50910781   4.013   4.467   1.728 -1.4985  1.0328 -0.6252
   17MOL   H51010782   3.992   4.457   1.545 -0.0492  0.8882 -1.0599
   17MOL   H51110783   4.137   4.667   1.517 -0.6984 -0.9486 -0.7637
   17MOL   H51210784   4.155   4.686   1.673 -2.1974  1.5141  0.7143
   17MOL   H51310785   3.923   4.756   1.507 -1.9320 -1.0436  0.8825
   17MOL   C51410786   3.914   4.782   1.702 -0.1264  0.3281  0.1007
   17MOL   O51510787   3.957   4.754   1.815 -0.5450  0.2531 -0.0727
   17MOL   C51610788   3.812   4.895   1.679  0.3035 -0.4209 -0.3182
   17MOL   C51710789   3.668   4.840   1.652  0.3662  0.1364 -0.5386
   17MOL   C51810790   3.602   4.751   1.759  0.6236  0.1056 -0.7741
   17MOL   C51910791   3.459   4.702   1.732  0.1898 -0.3563  0.4521
   17MOL   C52010792   3.423   4.564   1.775  0.6326 -0.3767  0.9030
   17MOL   O52110793   3.509   4.497   1.833 -0.1752  0.1299  0.5562
   17MOL   N52210794   3.303   4.514   1.734 -0.7004 -0.7023  0.4581
   17MOL   C52310795   3.285   4.372   1.725  0.3775 -0.4134 -0.3358
   17MOL   C52410796   3.251   4.328   1.579 -0.3831  0.2003  0.1489
   17MOL   C52510797   3.182   4.192   1.558  0.3249 -0.1569  0.3167
   17MOL   C52610798   3.291   4.079   1.546  0.2137  0.6449 -0.2493
   17MOL   N52710799   3.232   3.957   1.513 -0.2144  0.6551  0.3562
   17MOL   H52810800   3.808   4.951   1.772  0.5620 -0.5225 -0.2458
   17MOL   H52910801   3.828   4.969   1.600 -1.0822 -0.1820 -0.3877
   17MOL   H53010802   3.601   4.919   1.620 -1.7138 -2.1052 -1.8967
   17MOL   H53110803   3.693   4.772   1.570 -1.9287 -0.4664 -0.7718
   17MOL   H53210804   3.603   4.800   1.857 -1.2506  0.9303 -1.1619
   17MOL   H53310805   3.672   4.667   1.759  1.3917  0.7179  0.3717
   17MOL   H53410806   3.457   4.701   1.623 -0.1200 -2.3878  0.4722
   17MOL   H53510807   3.389   4.774   1.775 -1.4889 -1.5154 -0.2879
   17MOL   H53610808   3.235   4.571   1.685  0.8051 -0.7032 -1.6898
   17MOL   H53710809   3.204   4.344   1.791 -0.2320  2.5149  0.2443
   17MOL   H53810810   3.373   4.316   1.755  2.4210  1.7062 -2.1030
   17MOL   H53910811   3.178   4.402   1.547 -0.3118  1.2642  2.3761
   17MOL   H54010812   3.335   4.347   1.512 -0.5763 -2.3636 -0.8993
   17MOL   H54110813   3.113   4.184   1.474  1.4455 -0.4419 -0.5981
   17MOL   H54210814   3.132   4.177   1.653 -0.7462 -0.6110 -0.3073
   17MOL   H54310815   3.348   4.073   1.639  0.5682 -2.3424 -0.6211
   17MOL   H54410816   3.358   4.092   1.461  1.0482 -0.3870  0.2398
   17MOL   H54510817   3.131   3.959   1.507 -0.1919 -0.1982 -0.3108
   17MOL   C54610818   3.292   3.844   1.482 -0.0213  0.7786  0.3235
   17MOL   O54710819   3.415   3.840   1.465 -0.2809  0.2942 -0.1162
   17MOL   C54810820   3.205   3.714   1.466 -0.1261 -0.2703  0.3098
   17MOL   C54910821   3.159   3.664   1.599 -0.0515  0.3353  0.2677
   17MOL   C55010822   3.057   3.547   1.597 -0.1939  0.3256  0.5407
   17MOL   C55110823   2.928   3.561   1.503  0.1254 -0.0487 -0.3913
   17MOL   C55210824   2.857   3.692   1.549 -0.2846  0.1180  0.8695
   17MOL   O55310825   2.820   3.711   1.664  0.2132  0.0218  0.2522
   17MOL   N55410826   2.845   3.792   1.457 -0.1720  0.1187  0.0156
   17MOL   C55510827   2.753   3.899   1.467 -0.3909  0.3815 -0.0150
   17MOL   C55610828   2.815   4.006   1.560  0.4579 -0.0251  0.1106
   17MOL   C55710829   2.715   4.114   1.594 -0.2012 -0.4867  0.1991
   17MOL   C55810830   2.774   4.209   1.700  0.0378  0.2081 -0.4514
   17MOL   N55910831   2.819   4.134   1.814 -0.1149 -0.1779 -0.2554
   17MOL   H56010832   3.119   3.745   1.406  1.3878 -0.0219 -1.7931
   17MOL   H56110833   3.249   3.638   1.402  1.1507  0.9877 -0.3291
   17MOL   H56210834   3.245   3.622   1.651  0.4324  1.1887  0.1641
   17MOL   H56310835   3.119   3.748   1.655  0.7890  0.4866  0.6570
   17MOL   H56410836   3.018   3.524   1.696 -0.8029 -1.2281 -0.0382
   17MOL   H56510837   3.105   3.456   1.560 -1.5084  0.0648 -0.5806
   17MOL   H56610838   2.869   3.469   1.500  0.6619 -0.4227  0.2900
   17MOL   H56710839   2.964   3.569   1.401  4.5671  0.7968  1.1353
   17MOL   H56810840   2.878   3.776   1.363 -0.8566  2.9275 -0.7563
   17MOL   H56910841   2.658   3.863   1.505  1.2255  0.7596  4.7708
   17MOL   H57010842   2.734   3.936   1.367  0.9419  0.6881 -0.1636
   17MOL   H57110843   2.851   3.960   1.652  0.2313  1.1881  0.8050
   17MOL   H57210844   2.902   4.054   1.516  0.9798 -0.1975  0.9552
   17MOL   H57310845   2.621   4.074   1.632  0.0437 -0.0378  1.2931
   17MOL   H57410846   2.695   4.174   1.506  1.1610  0.6388  0.6327
   17MOL   H57510847   2.703   4.286   1.729 -2.1241 -0.7444 -2.9824
   17MOL   H57610848   2.853   4.268   1.653 -1.3072 -1.4345 -4.9879
   17MOL   H57710849   2.758   4.063   1.852  0.6851 -1.4450 -1.2786
   17MOL   C57810850   2.932   4.151   1.880 -0.0192 -0.2778  0.1666
   17MOL   O57910851   3.001   4.255   1.861  0.1758  0.9100 -0.2514
   17MOL   C58010852   2.972   4.059   1.997 -0.0466  0.2557  0.5041
   17MOL   C58110853   3.044   3.937   1.939 -0.5918  0.7086  0.7878
   17MOL   C58210854   3.079   3.840   2.058 -0.6049 -0.7006 -0.4873
   17MOL   C58310855   3.162   3.714   2.011  0.6495 -0.2650 -0.3157
   17MOL   C58410856   3.187   3.604   2.114 -0.1701 -0.1113  0.1015
   17MOL   O58510857   3.158   3.621   2.230 -0.1061 -0.4098 -0.0638
   17MOL   N58610858   3.240   3.491   2.060 -0.1260 -0.7521 -0.1605
   17MOL   C58710859   3.253   3.369   2.129 -0.1394  0.5804  0.1555
   17MOL   C58810860   3.315   3.258   2.041  0.1956 -0.1290  0.2922
   17MOL   C58910861   3.465   3.295   2.008  0.2101  0.4148 -0.2068
   17MOL   C59010862   3.534   3.202   1.912  0.0283 -0.0805  0.4497
   17MOL   N59110863   3.671   3.231   1.881 -0.1088  0.2967 -0.4699
   17MOL   H59210864   3.042   4.104   2.067 -1.0465  0.8329  1.1492
   17MOL   H59310865   2.891   4.033   2.065 -1.5998  0.9020 -1.0520
   17MOL   H59410866   2.999   3.880   1.857 -1.3131  0.0847  1.6125
   17MOL   H59510867   3.141   3.958   1.894 -1.3668 -1.8527 -2.2645
   17MOL   H59610868   2.993   3.801   2.112 -0.4862  1.3976  1.2575
   17MOL   H59710869   3.145   3.893   2.126 -0.3409 -0.1922 -1.1312
   17MOL   H59810870   3.259   3.740   1.966  0.7753 -0.3773 -0.1098
   17MOL   H59910871   3.106   3.667   1.930 -0.4273  0.7937 -0.1966
   17MOL   H60010872   3.254   3.495   1.960 -1.7633 -0.4640 -0.3821
   17MOL   H60110873   3.165   3.320   2.171 -0.2407  0.4203 -0.2345
   17MOL   H60210874   3.321   3.375   2.214  0.0561 -1.0785  0.1264
   17MOL   H60310875   3.310   3.162   2.092 -0.9892 -0.5768 -0.6352
   17MOL   H60410876   3.253   3.240   1.953  0.7990 -0.2984 -0.1039
   17MOL   H60510877   3.515   3.290   2.104 -1.5703 -0.4296  0.7085
   17MOL   H60610878   3.483   3.397   1.973 -0.4332  0.0240 -1.7550
   17MOL   H60710879   3.483   3.221   1.818 -0.1369  1.4383  0.8318
   17MOL   H60810880   3.525   3.095   1.931 -0.6479 -0.2445 -0.7795
   17MOL   H60910881   3.742   3.172   1.921 -0.9284 -1.2215 -1.2249
   17MOL   C61010882   3.711   3.340   1.806 -0.1899 -0.2192  0.0740
   17MOL   O61110883   3.632   3.411   1.743  0.2348  0.3779  0.2513
   17MOL   C61210884   3.859   3.380   1.816 -0.1543  0.5737 -0.2623
   17MOL   C61310885   3.939   3.345   1.695 -0.5050 -0.0544 -0.3354
   17MOL   C61410886   4.030   3.226   1.724  0.2292 -0.3230 -0.3307
   17MOL   C61510887   4.101   3.162   1.603  0.6862 -0.4597 -0.1666
   17MOL   C61610888   4.010   3.089   1.504 -0.6600  0.6267  0.0322
   17MOL   O61710889   3.912   3.027   1.541 -0.0089 -0.7316  0.0855
   17MOL   N61810890   4.053   3.079   1.380 -0.6693 -0.4548 -0.0485
   17MOL   C61910891   3.985   3.013   1.267 -0.1308  0.1872 -0.4062
   17MOL   C62010892   4.036   2.866   1.242 -0.6981 -0.0381  0.7148
   17MOL   C62110893   4.023   2.776   1.367  0.2575  0.3409  0.0701
   17MOL   C62210894   4.051   2.635   1.333 -0.1016  0.1580  0.1563
   17MOL   N62310895   3.999   2.548   1.438  0.0610 -0.3696  0.0419
   17MOL   H62410896   3.853   3.488   1.830 -0.0193  0.6168 -0.5355
   17MOL   H62510897   3.917   3.344   1.901 -1.3040 -2.6227 -0.7704
   17MOL   H62610898   3.868   3.327   1.615 -3.0591 -1.5095  2.1558
   17MOL   H62710899   3.997   3.435   1.677 -0.2051 -0.3092 -0.6521
   17MOL   H62810900   3.977   3.142   1.768 -0.2116  0.2785  0.2908
   17MOL   H62910901   4.101   3.251   1.803  1.4192  0.3775 -1.5940
   17MOL   H63010902   4.181   3.094   1.635  0.4445 -0.9258 -0.5516
   17MOL   H63110903   4.157   3.236   1.546 -1.4797  1.3004 -0.0508
   17MOL   H63210904   4.149   3.111   1.366 -1.1481 -0.0146 -2.6085
   17MOL   H63310905   4.016   3.072   1.180  1.8177 -1.2323 -0.7036
   17MOL   H63410906   3.878   3.026   1.280  0.2892  2.0978  1.4856
   17MOL   H63510907   3.971   2.831   1.163  0.8115 -0.0151 -0.5471
   17MOL   H63610908   4.137   2.868   1.202 -1.7952  0.1431 -2.0952
   17MOL   H63710909   3.922   2.792   1.405 -0.2829 -1.5942 -0.4912
   17MOL   H63810910   4.081   2.795   1.457 -2.7190 -0.3850  2.2314
   17MOL   H63910911   4.153   2.610   1.303 -0.6470  2.0428 -3.5182
   17MOL   H64010912   3.987   2.604   1.251  0.5659 -0.4390 -0.1455
   17MOL   H64110913   4.018   2.450   1.423 -0.4820 -0.5187  0.3165
   17MOL   H64210914   4.054   2.574   1.519  2.3875  0.6173 -1.8114
   18MOL     C110915   0.171   0.424   4.770 -0.0230 -0.2701  0.2781
   18MOL     O210916   0.282   0.438   4.816  0.3053 -0.0154  0.4097
   18MOL     C310917   0.133   0.316   4.670  0.1432  0.0882  0.7696
   18MOL     C410918   0.100   0.188   4.735  0.0314 -0.0388  0.6774
   18MOL     C510919   0.052   0.099   4.627  0.4112  0.1839  0.2263
   18MOL     C610920   0.040   7.654   4.688  0.1738 -0.5244  0.5237
   18MOL     C710921   7.681   7.643   4.822 -0.0759 -0.8231 -0.6623
   18MOL     O810922   7.560   7.627   4.822  0.3595  0.4166 -0.4085
   18MOL     N910923   0.058   7.642   4.931 -0.5974  0.4429 -0.6654
   18MOL    C1010924   0.010   7.637   5.066  0.3547 -0.9356 -0.1758
   18MOL    C1110925   0.119   7.659   5.165 -0.0393 -0.3201  0.1452
   18MOL    C1210926   0.206   0.082   5.146  0.3820 -0.2664 -0.0951
   18MOL    C1310927   0.281   0.129   5.275  0.2238 -1.1820 -0.3206
   18MOL    N1410928   0.391   0.036   5.313 -0.7909 -0.2354 -0.3964
   18MOL    H1510929   0.041   0.354   4.625  0.5242  0.8540  0.6238
   18MOL    H1610930   0.206   0.322   4.590  1.9868  0.4563  2.4323
   18MOL    H1710931   0.187   0.137   4.778 -1.7523 -3.5784  0.2781
   18MOL    H1810932   0.030   0.208   4.815 -0.8865  0.9501 -0.3584
   18MOL    H1910933   0.119   0.091   4.542 -1.2716  2.3060 -1.3417
   18MOL    H2010934   7.659   0.130   4.583  0.5533 -0.7200 -0.7242
   18MOL    H2110935   0.138   7.606   4.687  0.0753 -0.7558  1.3916
   18MOL    H2210936   7.689   7.584   4.623 -1.8747  1.5964 -0.1988
   18MOL    H2310937   0.158   7.640   4.919 -0.2313  0.5075  2.1237
   18MOL    H2410938   7.668   7.541   5.092 -3.0966  0.5696 -0.1722
   18MOL    H2510939   7.633   0.012   5.070  0.6766 -0.6246  0.2374
   18MOL    H2610940   0.077   7.658   5.265 -0.1035  0.4020  0.1331
   18MOL    H2710941   0.190   7.577   5.161 -0.4483 -0.6494 -0.5070
   18MOL    H2810942   0.140   0.167   5.128  1.8448  0.5516 -1.7096
   18MOL    H2910943   0.282   0.076   5.068  3.4287 -0.7019  2.7577
   18MOL    H3010944   0.221   0.139   5.366  1.4680  1.0755  0.2724
   18MOL    H3110945   0.317   0.228   5.250 -0.7794 -0.4647  1.0425
   18MOL    H3210946   0.481   0.046   5.268  0.2760 -1.6858  1.3539
   18MOL    H3310947   0.081   0.474   4.807 -0.7137 -0.3331 -1.2830
   18MOL    C3410948   0.386   7.636   5.405 -0.1038  0.0298  0.1473
   18MOL    O3510949   0.286   7.617   5.478  0.9415  0.1704  0.0160
   18MOL    C3610950   0.512   7.546   5.411  0.5670 -0.8778  0.5909
   18MOL    C3710951   0.500   7.419   5.497  0.2330  0.4985 -0.9742
   18MOL    C3810952   0.638   7.360   5.517 -0.4239  0.1423 -0.8864
   18MOL    C3910953   0.651   7.224   5.587  0.6505 -0.5903 -1.0020
   18MOL    C4010954   0.631   7.110   5.491 -0.0960 -0.3177  0.2538
   18MOL    O4110955   0.704   7.095   5.389 -0.6252  0.4497  0.1396
   18MOL    N4210956   0.528   7.031   5.514  0.1399 -0.3490 -0.0743
   18MOL    C4310957   0.508   6.900   5.452  0.5974  0.6480  0.0694
   18MOL    C4410958   0.406   6.906   5.333  0.0050  0.0142 -0.2202
   18MOL    C4510959   0.367   6.778   5.263 -0.0834 -0.2903  0.1898
   18MOL    C4610960   0.305   6.679   5.357  0.6492  0.0987  0.5338
   18MOL    N4710961   0.259   6.560   5.293 -0.1269  0.4319  0.1383
   18MOL    H4810962   0.542   7.531   5.307  1.7559 -0.5514  0.8789
   18MOL    H4910963   0.584   7.617   5.451  0.4080 -0.6987  0.5574
   18MOL    H5010964   0.464   7.433   5.599 -0.4276  1.2079 -1.2913
   18MOL    H5110965   0.437   7.348   5.445 -0.5468 -0.0650  0.7116
   18MOL    H5210966   0.696   7.432   5.575 -0.8492 -0.2528  0.0511
   18MOL    H5310967   0.692   7.368   5.423 -1.0736  1.5501 -1.1543
   18MOL    H5410968   0.577   7.215   5.666  1.0247 -0.7729 -0.6749
   18MOL    H5510969   0.755   7.230   5.620 -0.6242  0.8452  3.0333
   18MOL    H5610970   0.454   7.058   5.578  1.7502  2.8716  0.5201
   18MOL    H5710971   0.466   6.843   5.536 -0.3219  0.0693 -0.7687
   18MOL    H5810972   0.595   6.843   5.422  1.1297  1.7014 -0.4092
   18MOL    H5910973   0.318   6.966   5.358 -1.0291 -0.7008 -2.0334
   18MOL    H6010974   0.460   6.965   5.259  1.5149  1.5149  2.0118
   18MOL    H6110975   0.452   6.729   5.216 -0.2063 -0.5891  0.2779
   18MOL    H6210976   0.299   6.799   5.180  0.8630 -0.8347 -0.7397
   18MOL    H6310977   0.219   6.726   5.404  0.2149 -0.3999  0.2415
   18MOL    H6410978   0.373   6.650   5.437 -0.1667 -1.4148  0.6903
   18MOL    H6510979   0.272   6.542   5.194  1.5370  0.9445  0.2388
   18MOL    C6610980   0.164   6.489   5.353  0.8010 -0.4430  0.0347
   18MOL    O6710981   0.125   6.510   5.471 -0.9640 -0.3900  0.3938
   18MOL    C6810982   0.088   6.382   5.274 -0.6818 -0.1199 -0.3704
   18MOL    C6910983   7.638   6.373   5.316  0.1353 -0.2447 -0.4242
   18MOL    C7010984   7.537   6.304   5.225  0.1337  0.4521  0.4113
   18MOL    C7110985   7.552   6.158   5.198 -0.2557  0.3490  0.4816
   18MOL    C7210986   7.425   6.081   5.157  0.3910  0.4415  0.0735
   18MOL    O7310987   7.314   6.139   5.183  0.0832  0.1257 -0.1519
   18MOL    N7410988   7.442   5.960   5.097 -0.5089 -0.9757 -0.1854
   18MOL    C7510989   7.339   5.870   5.048 -0.2471  0.2813  0.4134
   18MOL    C7610990   7.259   5.801   5.161  0.0793 -0.5557 -0.5520
   18MOL    C7710991   7.150   5.705   5.111 -0.1420 -0.0699  0.2943
   18MOL    C7810992   7.098   5.610   5.216  0.2132  0.4835  0.4699
   18MOL    N7910993   7.021   5.689   5.306 -0.0774  0.3993  0.7477
   18MOL    H8010994   0.107   6.406   5.169  2.6585 -0.7872  0.0358
   18MOL    H8110995   0.138   6.287   5.295 -1.6761 -0.3597  1.0350
   18MOL    H8210996   7.615   6.333   5.414  1.4123 -0.4706 -0.2063
   18MOL    H8310997   7.595   6.472   5.335 -0.2715 -0.1591 -1.6897
   18MOL    H8410998   7.538   6.343   5.123 -2.1897 -0.0512  0.1644
   18MOL    H8510999   7.438   6.324   5.266  0.3380  0.0549  1.1094
   18MOL    H8611000   7.600   6.106   5.281 -0.9837 -1.1150  0.0143
   18MOL    H8711001   7.620   6.138   5.116 -2.3348  1.8957 -1.6878
   18MOL    H8811002   7.536   5.925   5.091  0.0108  0.4191 -0.4809
   18MOL    H8911003   7.393   5.806   4.978  0.1875  1.0568  0.0360
   18MOL    H9011004   7.267   5.927   4.989 -0.5397  2.0199  2.3900
   18MOL    H9111005   7.323   5.754   5.235 -1.4601 -1.4085  0.2748
   18MOL    H9211006   7.208   5.873   5.225 -0.6806 -1.2694 -0.3410
   18MOL    H9311007   7.201   5.649   5.032  2.4584 -1.1913  2.6800
   18MOL    H9411008   7.069   5.757   5.060 -0.4188 -0.8046 -0.0182
   18MOL    H9511009   7.184   5.566   5.265 -0.5895  0.7045  2.1246
   18MOL    H9611010   7.045   5.529   5.166  1.4305 -0.1023  0.1223
   18MOL    H9711011   6.937   5.732   5.269 -0.3717 -1.0483 -0.3117
   18MOL    C9811012   7.052   5.702   5.434  0.6919  0.1202  0.4293
   18MOL    O9911013   7.147   5.639   5.484  0.0014 -0.0973  0.2340
   18MOL   C10011014   6.947   5.779   5.512 -0.1583  0.0715  0.0630
   18MOL   C10111015   6.950   5.765   5.660  0.3234 -0.3066 -0.7532
   18MOL   C10211016   6.899   5.636   5.721  0.8023 -0.1319  0.2549
   18MOL   C10311017   6.916   5.633   5.880 -0.2293 -1.0836  0.4607
   18MOL   C10411018   6.885   5.499   5.944  0.3938 -0.1071 -0.1435
   18MOL   O10511019   6.829   5.416   5.878 -0.1840  0.1579  0.1557
   18MOL   N10611020   6.911   5.483   6.073 -0.4468 -0.6347  0.0747
   18MOL   C10711021   6.939   5.356   6.145 -0.1752  0.2586 -0.3751
   18MOL   C10811022   7.039   5.376   6.256  0.2582  0.7223  0.2719
   18MOL   C10911023   7.115   5.236   6.291 -0.4692  0.6070 -0.7604
   18MOL   C11011024   7.168   5.247   6.432 -0.1822  0.3625  0.8185
   18MOL   N11111025   7.262   5.133   6.474  0.5346 -0.0711  0.7454
   18MOL   H11211026   6.960   5.884   5.487  0.4432  0.0518  0.2894
   18MOL   H11311027   6.847   5.760   5.473  0.1289  1.3487 -1.3428
   18MOL   H11411028   7.048   5.786   5.703  0.4376  0.8981 -1.5888
   18MOL   H11511029   6.888   5.845   5.701  0.7653  0.2849 -1.2293
   18MOL   H11611030   6.955   5.558   5.670  0.3284 -0.4707  0.2523
   18MOL   H11711031   6.793   5.628   5.701  1.0785 -1.8770 -0.6122
   18MOL   H11811032   6.838   5.700   5.916  0.1585  0.4773 -1.4926
   18MOL   H11911033   7.018   5.667   5.898 -0.7877 -0.8602  3.3973
   18MOL   H12011034   6.962   5.559   6.116 -2.5078 -0.3334  2.1008
   18MOL   H12111035   6.984   5.292   6.068  3.2515  2.6217 -0.4623
   18MOL   H12211036   6.847   5.308   6.178  1.3407 -1.7725  1.0361
   18MOL   H12311037   7.114   5.447   6.221  1.2480 -0.5420 -0.2150
   18MOL   H12411038   6.995   5.434   6.338  1.8905  2.3092  0.0652
   18MOL   H12511039   7.201   5.221   6.225  1.2767  0.6294  1.4314
   18MOL   H12611040   7.052   5.148   6.301  0.0398  0.5153  2.1127
   18MOL   H12711041   7.083   5.238   6.500 -0.9194 -0.2685 -0.1729
   18MOL   H12811042   7.223   5.339   6.450 -0.8967  1.0575 -0.5045
   18MOL   H12911043   7.221   5.041   6.485  1.2261 -0.6253 -0.9626
   18MOL   C13011044   7.398   5.140   6.503  0.1687 -0.0158 -0.1114
   18MOL   O13111045   7.461   5.248   6.491  0.4247 -0.0131  1.1067
   18MOL   C13211046   7.458   5.006   6.563  0.5395  0.4497 -0.3368
   18MOL   C13311047   7.453   4.996   6.712 -0.4802 -0.5262 -0.0056
   18MOL   C13411048   7.546   5.095   6.788  0.2073 -0.0586  0.0789
   18MOL   C13511049   7.523   5.107   6.940 -0.0885 -0.1934 -0.3572
   18MOL   C13611050   7.542   4.973   7.022 -0.4116 -0.4024  0.0080
   18MOL   O13711051   7.460   4.947   7.112 -0.0465  0.2657  0.9878
   18MOL   N13811052   7.651   4.897   6.988 -0.0403  0.1710  0.0101
   18MOL   C13911053   7.690   4.777   7.057  0.3305  0.1216  0.0013
   18MOL   C14011054   0.136   4.739   7.012 -0.3355 -0.4075 -0.1628
   18MOL   C14111055   0.250   4.847   7.038 -0.2310 -0.3536 -0.6861
   18MOL   C14211056   0.263   4.943   6.920  0.4186  0.5549  0.2843
   18MOL   N14311057   0.347   5.052   6.959  0.5450  0.3311  0.7040
   18MOL   H14411058   7.407   4.922   6.515 -1.3267  0.1825  2.0645
   18MOL   H14511059   7.562   4.994   6.531  0.4647  1.8502 -1.1720
   18MOL   H14611060   7.348   5.014   6.736 -0.4723 -0.3115 -0.1349
   18MOL   H14711061   7.469   4.890   6.735  0.4598 -0.3665  0.0831
   18MOL   H14811062   7.532   5.194   6.744 -3.2482 -1.0672 -1.2524
   18MOL   H14911063   7.646   5.065   6.757 -0.0600 -0.3230 -0.5294
   18MOL   H15011064   7.423   5.145   6.959  0.5335  1.5124 -0.3492
   18MOL   H15111065   7.587   5.185   6.982  0.8223 -1.0232 -0.2037
   18MOL   H15211066   7.694   4.918   6.899  1.2703 -1.8730  0.1349
   18MOL   H15311067   7.623   4.693   7.046 -1.1684  1.6706 -3.3854
   18MOL   H15411068   0.001   4.798   7.164 -0.1026  0.4217 -0.0039
   18MOL   H15511069   0.162   4.657   7.080 -0.6454  0.5646  1.1365
   18MOL   H15611070   0.142   4.690   6.915 -1.3574  1.2353 -1.0719
   18MOL   H15711071   0.339   4.785   7.047 -0.2657 -0.4451 -0.9829
   18MOL   H15811072   0.222   4.893   7.133 -1.3058 -1.3201 -0.5099
   18MOL   H15911073   0.170   4.993   6.891 -0.7502 -1.7246 -0.0726
   18MOL   H16011074   0.290   4.889   6.829  0.3392  1.7165 -0.4420
   18MOL   H16111075   0.325   5.089   7.050 -1.7928  1.5452 -0.2818
   18MOL   C16211076   0.445   5.115   6.894  0.1670 -0.3462 -0.0039
   18MOL   O16311077   0.493   5.088   6.788 -0.0164 -0.1154  0.0105
   18MOL   C16411078   0.504   5.238   6.964 -0.7061  0.0765 -0.0399
   18MOL   C16511079   0.572   5.207   7.096 -0.2932  0.5123  0.4666
   18MOL   C16611080   0.706   5.126   7.076 -0.4026 -0.1495  0.7164
   18MOL   C16711081   0.772   5.103   7.212  0.6790 -0.2391  0.2099
   18MOL   C16811082   0.887   5.004   7.217 -0.1228  0.0922 -0.1061
   18MOL   O16911083   0.900   4.909   7.136 -0.0761  0.1154  0.2886
   18MOL   N17011084   0.967   5.013   7.327 -0.5348  0.6087  0.9750
   18MOL   C17111085   1.070   4.918   7.367  0.5431  0.3443  0.3075
   18MOL   C17211086   1.007   4.799   7.429  0.0614 -0.7980 -0.3330
   18MOL   C17311087   1.118   4.703   7.466 -0.1388  0.0505  0.5640
   18MOL   C17411088   1.059   4.585   7.548 -0.5292  0.4555 -0.2973
   18MOL   N17511089   1.157   4.487   7.575  0.0914  0.2343 -0.3514
   18MOL   H17611090   0.569   5.292   6.895 -0.3881 -0.9599 -0.5746
   18MOL   H17711091   0.423   5.310   6.971 -0.0119  1.1464 -2.6093
   18MOL   H17811092   0.595   5.298   7.152  1.2891  1.4914 -1.7230
   18MOL   H17911093   0.496   5.153   7.153 -0.2466 -0.4674 -0.3824
   18MOL   H18011094   0.775   5.176   7.008 -0.5708 -2.2008 -1.0198
   18MOL   H18111095   0.671   5.028   7.042  0.8651 -0.5364  0.4893
   18MOL   H18211096   0.697   5.058   7.276 -1.5871 -1.5510 -3.1992
   18MOL   H18311097   0.799   5.195   7.263  2.1995 -0.1465 -0.7189
   18MOL   H18411098   0.954   5.095   7.385  3.2452  1.3904  0.8721
   18MOL   H18511099   1.139   4.950   7.444  1.6133  0.8115 -0.8173
   18MOL   H18611100   1.127   4.901   7.275  0.3500  0.5996  0.1384
   18MOL   H18711101   0.949   4.839   7.512 -1.5757 -0.3217 -1.6918
   18MOL   H18811102   0.939   4.752   7.358  0.2035  0.7081 -1.4925
   18MOL   H18911103   1.178   4.757   7.540  0.0338  1.3539 -0.5080
   18MOL   H19011104   1.188   4.674   7.388  0.2346 -1.1857  1.3526
   18MOL   H19111105   0.973   4.540   7.498 -1.1281  0.3809  0.7779
   18MOL   H19211106   1.014   4.627   7.638  0.6800  0.0768  0.4934
   18MOL   H19311107   1.210   4.505   7.659 -1.2982 -2.5336  1.2022
   18MOL   C19411108   1.206   4.394   7.501  0.0105  0.0579  0.7699
   18MOL   O19511109   1.180   4.383   7.382  0.0792 -0.2195  0.3660
   18MOL   C19611110   1.313   4.303   7.560  0.0764 -0.3276 -0.0298
   18MOL   C19711111   1.282   4.165   7.613  0.6404 -0.4945 -0.6811
   18MOL   C19811112   1.166   4.165   0.014  0.1773 -0.6589 -0.0908
   18MOL   C19911113   1.118   4.021   0.050 -0.2805 -0.2683 -0.2480
   18MOL   C20011114   1.226   3.957   0.136 -0.4123  0.8099 -1.2210
   18MOL   O20111115   1.290   4.018   0.220  0.2399  0.1156  0.5297
   18MOL   N20211116   1.220   3.825   0.142  0.4555  0.4074  0.3468
   18MOL   C20311117   1.286   3.738   0.229  0.0679 -0.2552 -0.7019
   18MOL   C20411118   1.266   3.585   0.199  0.0692 -0.1913 -0.1573
   18MOL   C20511119   1.345   3.488   0.286 -0.5838  0.0337 -0.7728
   18MOL   C20611120   1.303   3.336   0.261 -0.2762  0.5737  0.2357
   18MOL   N20711121   1.407   3.255   0.318 -0.3279  0.3716 -0.2290
   18MOL   H20811122   1.390   4.299   7.483  0.5019 -1.4391  0.4368
   18MOL   H20911123   1.361   4.353   7.643  0.3024 -0.9843  0.2397
   18MOL   H21011124   1.236   4.113   7.530  1.2010  0.6505 -1.7201
   18MOL   H21111125   1.369   4.107   7.643  2.2382  0.5466 -3.1325
   18MOL   H21211126   1.082   4.213   7.664  1.4014  1.0178 -0.5965
   18MOL   H21311127   1.180   4.224   0.105  0.3663 -0.3937 -0.2890
   18MOL   H21411128   1.094   3.955   7.667  0.7786 -0.2585 -0.5657
   18MOL   H21511129   1.025   4.028   0.107 -0.6457  0.3108 -0.9035
   18MOL   H21611130   1.148   3.782   0.084 -0.6195  3.4089 -0.6295
   18MOL   H21711131   1.247   3.773   0.324 -2.7252  1.5708 -2.4632
   18MOL   H21811132   1.393   3.758   0.223  0.1381 -0.0668  0.8902
   18MOL   H21911133   1.159   3.566   0.208  0.2841 -0.8387  1.2407
   18MOL   H22011134   1.280   3.580   0.091 -4.1710 -0.1167 -0.8203
   18MOL   H22111135   1.320   3.517   0.388  0.5484  1.1755 -0.8060
   18MOL   H22211136   1.449   3.517   0.274 -0.2451 -1.3539 -1.2584
   18MOL   H22311137   1.311   3.326   0.153  0.7467  0.2368  0.3311
   18MOL   H22411138   1.205   3.311   0.301  1.2476 -0.1568  3.7351
   18MOL   H22511139   1.410   3.247   0.418  1.0524 -0.0315 -0.2951
   18MOL   C22611140   1.521   3.222   0.248 -0.2081 -0.0905 -0.2095
   18MOL   O22711141   1.540   3.245   0.131 -0.6282  0.0931  0.5739
   18MOL   C22811142   1.631   3.158   0.335 -0.5042 -0.2663  0.1379
   18MOL   C22911143   1.679   3.255   0.445  0.2775 -0.3139  0.1575
   18MOL   C23011144   1.810   3.207   0.499 -1.4309 -0.3829  1.0421
   18MOL   C23111145   1.817   3.076   0.579 -0.6498  0.1611  0.0002
   18MOL   C23211146   1.818   2.950   0.488 -0.1454 -0.2617 -0.1257
   18MOL   O23311147   1.860   2.955   0.368 -0.2832  0.4678  0.0310
   18MOL   N23411148   1.766   2.835   0.535  0.4701 -0.1931  0.3018
   18MOL   C23511149   1.762   2.713   0.458  0.3912  0.0185 -0.1879
   18MOL   C23611150   1.702   2.596   0.526 -0.0931 -0.5156 -0.2078
   18MOL   C23711151   1.690   2.465   0.445  0.1188  0.4942  0.0641
   18MOL   C23811152   1.654   2.341   0.533 -0.5403  0.3544 -0.2108
   18MOL   N23911153   1.649   2.215   0.453 -0.3943 -0.3108 -0.1797
   18MOL   H24011154   1.575   3.070   0.368 -0.7830  0.5773  1.9534
   18MOL   H24111155   1.719   3.130   0.277  0.1639 -0.2161  1.1397
   18MOL   H24211156   1.690   3.359   0.413  0.6414 -0.7114 -1.0512
   18MOL   H24311157   1.620   3.262   0.537  1.8858 -0.9327  1.2501
   18MOL   H24411158   1.843   3.282   0.571 -2.1654  1.9821 -1.0185
   18MOL   H24511159   1.890   3.210   0.426 -1.2037  0.1711  1.3137
   18MOL   H24611160   1.727   3.072   0.639 -0.9598 -0.5464 -0.5001
   18MOL   H24711161   1.903   3.069   0.645 -2.6176 -1.0810  2.4981
   18MOL   H24811162   1.719   2.837   0.625 -0.8948  1.1294 -0.4194
   18MOL   H24911163   1.865   2.693   0.428  0.7003 -2.0538  2.1148
   18MOL   H25011164   1.695   2.732   0.374  0.3825 -1.0167 -0.4164
   18MOL   H25111165   1.762   2.577   0.615  1.5236  1.7839 -0.7621
   18MOL   H25211166   1.606   2.622   0.570  0.5162  0.9270  0.2998
   18MOL   H25311167   1.787   2.446   0.399  0.5291  1.5191  0.4897
   18MOL   H25411168   1.621   2.472   0.361  2.6565  3.4229 -1.9059
   18MOL   H25511169   1.549   2.360   0.557 -0.2053  1.0007  0.7466
   18MOL   H25611170   1.714   2.339   0.624  0.1905 -1.0829 -0.7085
   18MOL   H25711171   1.618   2.217   0.357 -2.8828  1.2850  0.6034
   18MOL   C25811172   1.676   2.091   0.503 -0.4541  0.9415  0.4147
   18MOL   O25911173   1.702   2.073   0.620 -0.4140  0.0447 -0.4162
   18MOL   C26011174   1.663   1.972   0.406 -0.5102 -0.0248 -0.0891
   18MOL   C26111175   1.774   1.869   0.419 -0.1838 -0.2526  0.8615
   18MOL   C26211176   1.915   1.926   0.399 -0.4974 -0.2325  0.4583
   18MOL   C26311177   2.020   1.815   0.384  1.0998  0.5199  0.0566
   18MOL   C26411178   2.008   1.750   0.248  0.5208 -0.6593 -0.0209
   18MOL   O26511179   2.048   1.811   0.147  0.0900  0.3481  0.2297
   18MOL   N26611180   1.967   1.626   0.251  0.1250 -0.2613 -0.0153
   18MOL   C26711181   1.976   1.525   0.147  0.0339 -0.2655 -0.4012
   18MOL   C26811182   2.021   1.395   0.215  0.2897  0.1417 -0.0699
   18MOL   C26911183   1.980   1.267   0.138  0.5687 -0.5917  0.1637
   18MOL   C27011184   2.026   1.147   0.221  0.0879 -0.4088 -0.0819
   18MOL   N27111185   2.022   1.020   0.152  0.4314  0.3174 -0.0490
   18MOL   H27211186   1.562   1.934   0.415 -0.0906 -0.9993  0.6098
   18MOL   H27311187   1.672   2.016   0.307  0.2013  0.5281  0.2183
   18MOL   H27411188   1.758   1.820   0.515  1.1601 -1.9463  0.2433
   18MOL   H27511189   1.753   1.797   0.340 -1.1816  0.7191  0.2294
   18MOL   H27611190   1.935   1.986   0.489  3.5412 -0.9926  0.1673
   18MOL   H27711191   1.916   1.990   0.311 -1.2037  0.9266  1.2823
   18MOL   H27811192   2.006   1.736   0.458 -0.0587  0.2526 -0.4384
   18MOL   H27911193   2.119   1.859   0.393  1.1845  0.6286 -1.2966
   18MOL   H28011194   1.942   1.580   0.338 -1.6045 -3.0460 -1.8794
   18MOL   H28111195   2.047   1.546   0.067  0.6310 -1.3916 -0.1768
   18MOL   H28211196   1.873   1.526   0.113 -0.3247  0.1078  0.6726
   18MOL   H28311197   2.129   1.400   0.227  0.2469 -0.6056  0.6394
   18MOL   H28411198   1.981   1.389   0.316  1.2485 -2.9113  0.1638
   18MOL   H28511199   2.030   1.264   0.041  1.0202 -0.5226  0.3953
   18MOL   H28611200   1.873   1.262   0.119  0.7986  0.7660 -1.5938
   18MOL   H28711201   1.949   1.146   0.298  0.3409 -0.8111  0.1685
   18MOL   H28811202   2.125   1.152   0.267 -0.4292  2.2392  0.8623
   18MOL   H28911203   2.056   1.011   0.058 -0.3209  0.5941 -0.3522
   18MOL   C29011204   1.983   0.907   0.213  0.0747 -0.1398 -0.0355
   18MOL   O29111205   1.954   0.903   0.334  0.3649  0.1235 -0.4299
   18MOL   C29211206   1.998   0.779   0.125 -0.3182 -0.3797 -0.3002
   18MOL   C29311207   2.101   0.675   0.181  0.2866  1.0077 -0.0873
   18MOL   C29411208   2.245   0.717   0.139  0.4021  0.8797 -0.7589
   18MOL   C29511209   2.358   0.639   0.215 -0.3033  0.2900 -0.4375
   18MOL   C29611210   2.487   0.669   0.142 -0.3431 -0.4513 -0.1274
   18MOL   O29711211   2.493   0.781   0.093 -0.1333  0.1604 -0.0447
   18MOL   N29811212   2.583   0.584   0.142 -0.1855  0.1086  0.3323
   18MOL   C29911213   2.578   0.443   0.180  0.0759 -0.2378  0.0811
   18MOL   C30011214   2.711   0.388   0.233 -0.2591  0.0256 -0.6614
   18MOL   C30111215   2.741   0.431   0.373 -0.0765 -0.1307  0.1481
   18MOL   C30211216   2.884   0.403   0.422  0.2189 -0.3493 -0.1025
   18MOL   N30311217   2.894   0.458   0.555 -0.5047  0.2407 -0.6310
   18MOL   H30411218   1.897   0.740   0.110 -1.0480  0.4224  2.1923
   18MOL   H30511219   2.025   0.816   0.026 -0.8011  1.9566  0.3930
   18MOL   H30611220   2.097   0.650   0.288  2.6230 -1.7006 -0.5551
   18MOL   H30711221   2.076   0.577   0.139 -0.8168  1.4795 -0.5383
   18MOL   H30811222   2.247   0.821   0.172  1.0211  0.3283  0.9972
   18MOL   H30911223   2.262   0.717   0.032 -1.9399 -0.7998 -1.1691
   18MOL   H31011224   2.328   0.535   0.214 -1.6070  0.6486  0.0851
   18MOL   H31111225   2.375   0.662   0.320  2.4811 -1.9608 -0.3279
   18MOL   H31211226   2.669   0.622   0.106  0.0462  0.1698  0.9471
   18MOL   H31311227   2.556   0.380   0.094  2.1746 -1.0944  0.1359
   18MOL   H31411228   2.500   0.425   0.254  1.1284 -0.2836  1.1890
   18MOL   H31511229   2.711   0.279   0.238  0.8427 -0.0377 -1.8087
   18MOL   H31611230   2.794   0.418   0.169  0.6990 -1.5868 -0.2161
   18MOL   H31711231   2.672   0.404   0.452  1.6325  0.4409  1.8954
   18MOL   H31811232   2.739   0.540   0.372 -1.7158 -0.1639 -0.5569
   18MOL   H31911233   2.959   0.431   0.348 -1.6589 -0.0077 -1.9383
   18MOL   H32011234   2.888   0.295   0.434 -1.6558 -0.2510  1.6303
   18MOL   H32111235   2.825   0.526   0.584  1.1992  1.7489 -0.0327
   18MOL   C32211236   2.983   0.413   0.646 -0.2358 -0.6218 -0.2943
   18MOL   O32311237   3.087   0.349   0.607 -0.0270  0.0514 -0.7134
   18MOL   C32411238   2.950   0.444   0.795 -0.5193 -0.1100  0.1811
   18MOL   C32511239   3.031   0.354   0.885  0.9049  0.2683 -0.5239
   18MOL   C32611240   3.018   0.377   1.030  0.0597  0.1036  0.3161
   18MOL   C32711241   3.099   0.280   1.116 -0.1718 -0.8755  0.4109
   18MOL   C32811242   3.247   0.321   1.096  0.6646 -0.2695  0.1877
   18MOL   O32911243   3.301   0.402   1.172 -0.0134 -0.5164 -0.3699
   18MOL   N33011244   3.305   0.252   1.003 -0.5360  0.4527  0.1215
   18MOL   C33111245   3.441   0.261   0.959 -0.9130  0.0422  0.2583
   18MOL   C33211246   3.465   0.238   0.808  0.5502  0.6195 -0.0405
   18MOL   C33311247   3.607   0.234   0.759 -0.8708 -0.2667  0.1202
   18MOL   C33411248   3.609   0.162   0.624 -0.4636  0.1117  0.4664
   18MOL   N33511249   3.746   0.146   0.582  0.3009  0.2296  0.1047
   18MOL   H33611250   2.968   0.548   0.820 -1.6026 -0.0779  0.8715
   18MOL   H33711251   2.843   0.428   0.811 -1.1329  2.3527 -1.2017
   18MOL   H33811252   3.011   0.247   0.875 -0.8870  0.5003  0.4452
   18MOL   H33911253   3.135   0.364   0.852  0.3500  1.5428 -1.9061
   18MOL   H34011254   2.912   0.374   1.056  0.5138 -2.4541  1.9860
   18MOL   H34111255   3.057   0.479   1.039  2.1752 -0.9090  2.9878
   18MOL   H34211256   3.088   0.175   1.090  0.7729 -1.0586  0.7690
   18MOL   H34311257   3.086   0.283   1.224  1.0218 -1.4133  0.5674
   18MOL   H34411258   3.252   0.174   0.969  0.3891 -0.8503  1.5984
   18MOL   H34511259   3.490   0.182   1.017 -1.4684 -1.7690 -1.6900
   18MOL   H34611260   3.482   0.356   0.994  2.3258 -1.3572  0.5188
   18MOL   H34711261   3.411   0.147   0.785  2.6418 -0.6366 -0.1134
   18MOL   H34811262   3.411   0.306   0.743  1.3708  0.6895 -0.6566
   18MOL   H34911263   3.650   0.161   0.827 -0.9402 -0.7119 -0.3096
   18MOL   H35011264   3.659   0.329   0.748 -1.4594  0.1817  1.1402
   18MOL   H35111265   3.571   0.235   0.553  0.5442  2.7264  2.5260
   18MOL   H35211266   3.552   0.069   0.622  1.3390 -1.0276  1.1202
   18MOL   H35311267   3.806   0.224   0.603 -0.0429  0.0673  1.7658
   18MOL   C35411268   3.803   0.055   0.496  0.4872 -0.6450 -0.8959
   18MOL   O35511269   3.923   0.063   0.464 -0.6117  0.5108  0.1055
   18MOL   C35611270   3.719   7.644   0.438 -0.0408  0.1017 -0.1107
   18MOL   C35711271   3.641   7.671   0.316 -0.3431  0.2152 -0.0624
   18MOL   C35811272   3.741   7.692   0.202 -0.2098 -0.0751  1.0289
   18MOL   C35911273   3.672   0.060   0.082  0.0781  0.4101 -0.4941
   18MOL   C36011274   3.747   0.027   7.657 -0.1686  0.3982  0.4862
   18MOL   O36111275   3.861   0.063   7.629 -0.6500  0.3571 -0.0083
   18MOL   N36211276   3.672   7.663   7.570  0.1881 -0.0538 -0.2438
   18MOL   C36311277   3.686   7.656   7.431  0.0547  1.1823  0.8621
   18MOL   C36411278   3.676   7.505   7.380  0.2406 -0.3979  0.3752
   18MOL   C36511279   3.793   7.426   7.427 -0.0020 -0.1031 -0.1737
   18MOL   C36611280   3.925   7.489   7.374  0.2934  0.1453 -0.3542
   18MOL   N36711281   3.996   7.578   7.467  0.2529 -0.1867  0.1992
   18MOL   H36811282   3.795   7.567   0.419  1.0702  0.9853  0.6493
   18MOL   H36911283   3.660   7.601   0.519  1.2229 -1.0321  0.2506
   18MOL   H37011284   3.574   7.592   0.284  0.0365 -0.0417 -0.2293
   18MOL   H37111285   3.580   0.059   0.330  2.0451  1.6455  1.6007
   18MOL   H37211286   3.776   7.594   0.169 -1.5062 -0.1662 -0.1326
   18MOL   H37311287   3.831   0.045   0.229 -0.4751  1.0072 -0.1794
   18MOL   H37411288   3.666   0.167   0.103  0.0128  0.2964  0.0740
   18MOL   H37511289   3.572   0.017   0.079  0.3809 -0.2179 -2.6157
   18MOL   H37611290   3.579   7.647   7.605  0.4567  0.8767  0.9084
   18MOL   H37711291   3.785   7.690   7.401 -0.1434  0.3848 -0.7229
   18MOL   H37811292   3.611   0.019   7.384 -0.6029  1.0127  1.6709
   18MOL   H37911293   3.580   7.462   7.407 -0.4500 -0.0314 -1.4699
   18MOL   H38011294   3.658   7.498   7.273 -3.2270  1.7934  0.7517
   18MOL   H38111295   3.788   7.321   7.398  0.4531 -0.5163  1.2090
   18MOL   H38211296   3.785   7.421   7.535 -4.0648  3.2165 -0.1970
   18MOL   H38311297   3.911   7.532   7.275  1.5667  1.4748  0.0168
   18MOL   H38411298   3.992   7.403   7.369  0.2545  0.0590  0.5743
   18MOL   H38511299   3.941   7.644   7.520  0.7310  2.5977 -2.6016
   18MOL   C38611300   4.130   7.598   7.477  0.0057  0.7932 -0.6848
   18MOL   O38711301   4.218   7.537   7.408 -0.9815  0.1921  0.3991
   18MOL   C38811302   4.184   7.691   7.586  0.5317  0.2816  0.6349
   18MOL   C38911303   4.245   7.611   0.006 -0.6428 -0.0052  0.4879
   18MOL   C39011304   4.164   7.617   0.138  0.1772 -0.0716 -0.2832
   18MOL   C39111305   4.068   7.507   0.166 -0.0205  0.0018 -0.5487
   18MOL   C39211306   4.126   7.368   0.180 -0.5261 -0.5758  0.0159
   18MOL   O39311307   4.239   7.349   0.234  1.0360 -0.1322 -0.0427
   18MOL   N39411308   4.064   7.270   0.113 -0.3947  0.4348 -0.2685
   18MOL   C39511309   4.113   7.131   0.109 -0.7644 -0.3334  0.4536
   18MOL   C39611310   4.013   7.031   0.065  0.2727 -0.4682  0.2113
   18MOL   C39711311   4.001   7.012   7.618  0.2296 -0.1303  0.3168
   18MOL   C39811312   3.918   7.115   7.540  0.1889 -0.8480 -0.2266
   18MOL   N39911313   3.781   7.110   7.588  0.1137  0.5495  0.6717
   18MOL   H40011314   4.266   0.040   7.533  0.0846  0.9635  0.5921
   18MOL   H40111315   4.114   0.063   7.626 -0.9052 -1.1208  0.7105
   18MOL   H40211316   4.290   7.516   7.679  0.7653  0.6740  0.3786
   18MOL   H40311317   4.337   7.667   0.025 -0.2488 -0.4719 -0.0460
   18MOL   H40411318   4.115   0.013   0.133  0.1302 -0.1077 -0.5494
   18MOL   H40511319   4.237   7.614   0.219  0.7266  0.0249 -0.7698
   18MOL   H40611320   3.996   7.507   0.085  0.2652 -0.5374 -0.8047
   18MOL   H40711321   4.012   7.538   0.255 -1.1164 -1.1639 -0.8297
   18MOL   H40811322   3.984   7.287   0.054 -1.9354 -3.5623  0.4693
   18MOL   H40911323   4.139   7.095   0.209  0.6254 -0.5187  0.0397
   18MOL   H41011324   4.204   7.123   0.050 -0.8876 -0.2596  0.2544
   18MOL   H41111325   4.047   6.935   0.105 -1.8995 -1.1875  0.4014
   18MOL   H41211326   3.924   7.030   0.127  1.0997  0.5938  1.4440
   18MOL   H41311327   3.973   6.910   7.589  1.1168  0.2212 -1.8428
   18MOL   H41411328   4.100   7.019   7.574  0.0795 -1.9334 -0.3544
   18MOL   H41511329   3.921   7.084   7.436  1.6731  0.5353 -0.6098
   18MOL   H41611330   3.953   7.218   7.543 -0.7209 -0.5187 -0.5467
   18MOL   H41711331   3.714   7.059   7.532  0.0479 -0.4884  1.6634
   18MOL   C41811332   3.732   7.175   7.689 -0.4367  0.1173  0.0339
   18MOL   O41911333   3.796   7.271   0.038 -0.0440 -0.4107 -0.1576
   18MOL   C42011334   3.587   7.141   0.022 -0.0829  0.0505 -0.1715
   18MOL   C42111335   3.484   7.214   7.637 -0.5181 -0.1409 -0.1367
   18MOL   C42211336   3.467   7.355   7.693 -0.4551  0.1956 -0.3125
   18MOL   C42311337   3.333   7.416   7.650  0.1268  0.2383  0.0566
   18MOL   C42411338   3.322   7.569   7.679 -0.0630 -0.2723  0.2637
   18MOL   O42511339   3.387   7.651   7.613 -0.5381  0.3627  0.4781
   18MOL   N42611340   3.236   7.605   0.069  0.0459  0.1383 -0.1762
   18MOL   C42711341   3.209   0.047   0.092  0.0053 -0.8301 -0.6101
   18MOL   C42811342   3.274   0.099   0.229  0.2186  1.1436  0.1435
   18MOL   C42911343   3.224   0.240   0.271 -0.0301 -0.3233  0.8374
   18MOL   C43011344   3.335   0.318   0.346  0.1172 -0.4490 -0.1572
   18MOL   N43111345   3.273   0.442   0.401  0.7083  0.3008  0.2011
   18MOL   H43211346   3.574   7.033   0.022 -0.5530  0.1076  0.1463
   18MOL   H43311347   3.570   7.167   0.127 -0.2992 -0.1134 -0.1665
   18MOL   H43411348   3.512   7.201   7.532  1.2873 -1.8829  0.5153
   18MOL   H43511349   3.386   7.167   7.644 -1.0923  0.9430 -0.6969
   18MOL   H43611350   3.549   7.424   7.675 -1.1379  0.9808 -0.4465
   18MOL   H43711351   3.463   7.348   0.100 -2.0037 -3.4965 -0.5191
   18MOL   H43811352   3.252   7.375   0.009  1.1572 -0.6386  0.8413
   18MOL   H43911353   3.320   7.397   7.544  1.9658 -0.7071 -0.0092
   18MOL   H44011354   3.175   7.533   0.107 -0.1553  0.7238  0.6232
   18MOL   H44111355   3.102   0.060   0.110  0.5572  1.8165  1.0999
   18MOL   H44211356   3.230   0.107   0.004 -0.3351  2.2171  1.2688
   18MOL   H44311357   3.261   0.043   0.322 -0.1339  1.0432  0.0364
   18MOL   H44411358   3.380   0.104   0.204 -0.0391  0.6288 -1.0939
   18MOL   H44511359   3.133   0.224   0.329 -0.2005  0.1866  0.7121
   18MOL   H44611360   3.193   0.298   0.184  1.2646 -0.6479  0.1518
   18MOL   H44711361   3.417   0.342   0.278  0.0616 -0.0327 -0.0765
   18MOL   H44811362   3.381   0.260   0.426 -0.2712  0.4345  0.7128
   18MOL   H44911363   3.236   0.425   0.493 -1.4374 -0.3202 -0.7505
   18MOL   C45011364   3.254   0.562   0.339 -0.1113  0.5047  0.1676
   18MOL   O45111365   3.289   0.586   0.224 -0.1052  0.3867 -0.3147
   18MOL   C45211366   3.195   0.673   0.422  0.0569  0.5854 -0.3455
   18MOL   C45311367   3.064   0.726   0.363  0.5516 -0.4406  0.7831
   18MOL   C45411368   2.948   0.778   0.461 -0.5333  0.4422 -0.0155
   18MOL   C45511369   2.809   0.817   0.398  0.0146  0.4104 -0.3918
   18MOL   C45611370   2.806   0.957   0.333  0.2563  0.7740  0.9232
   18MOL   O45711371   2.813   1.055   0.398  0.4181 -0.4245  0.5943
   18MOL   N45811372   2.796   0.966   0.203 -0.5685  0.4771 -0.3213
   18MOL   C45911373   2.769   1.090   0.130  0.3147 -0.0494  0.2875
   18MOL   C46011374   2.895   1.121   0.045  0.0528  0.1778  0.6589
   18MOL   C46111375   3.039   1.130   0.108 -0.6292  0.7323  1.3334
   18MOL   C46211376   3.076   1.259   0.173 -0.1087  0.7426 -0.6551
   18MOL   N46311377   3.006   1.268   0.298  0.1407  0.4006  0.6118
   18MOL   H46411378   3.181   0.631   0.522 -3.2040  3.5865  0.5662
   18MOL   H46511379   3.263   0.756   0.440  0.6107 -0.4343  2.6161
   18MOL   H46611380   3.088   0.810   0.298  1.2752  0.7790  2.6027
   18MOL   H46711381   3.031   0.648   0.295  0.5349  1.5841 -1.6076
   18MOL   H46811382   2.974   0.876   0.502  0.8947  0.9908 -2.1494
   18MOL   H46911383   2.938   0.714   0.549  0.4707  2.3913  1.5513
   18MOL   H47011384   2.725   0.816   0.467  0.4871 -0.0894  0.1799
   18MOL   H47111385   2.772   0.746   0.324  0.1253 -1.5776  1.4022
   18MOL   H47211386   2.799   0.884   0.144  0.2119  0.9276 -0.9314
   18MOL   H47311387   2.745   1.180   0.187 -2.6496 -1.7793  1.8796
   18MOL   H47411388   2.682   1.081   0.066  1.5653 -1.3771 -1.2969
   18MOL   H47511389   2.897   1.051   7.663  0.0469 -1.2098  1.8041
   18MOL   H47611390   2.872   1.216   7.697  0.4668  1.2821  2.5340
   18MOL   H47711391   3.117   1.107   0.036 -2.9401 -1.8115 -0.4460
   18MOL   H47811392   3.052   1.050   0.181 -0.6679  0.9359  1.5661
   18MOL   H47911393   3.037   1.345   0.118 -2.2458  0.0510 -0.2889
   18MOL   H48011394   3.182   1.277   0.189  0.3642 -1.8985 -0.6292
   18MOL   H48111395   2.940   1.197   0.325  0.2489  0.2603  0.5034
   18MOL   C48211396   3.044   1.344   0.400 -0.1946 -0.3646 -0.2705
   18MOL   O48311397   3.124   1.433   0.387 -0.2419 -0.7806 -0.5577
   18MOL   C48411398   2.983   1.316   0.539  0.2130 -0.6355 -0.2368
   18MOL   C48511399   3.070   1.213   0.621  0.1394  0.2954 -0.1648
   18MOL   C48611400   3.208   1.275   0.659  0.8128 -0.2366  0.4949
   18MOL   C48711401   3.291   1.169   0.736 -0.0428  0.2333 -0.7519
   18MOL   C48811402   3.426   1.208   0.791 -0.2929 -0.6740  0.3012
   18MOL   O48911403   3.421   1.310   0.858 -0.3311  0.4431  0.4080
   18MOL   N49011404   3.534   1.139   0.760  0.0863  0.5228  0.0236
   18MOL   C49111405   3.665   1.178   0.796 -0.4544  0.4300 -0.2659
   18MOL   C49211406   3.708   1.142   0.939  0.2022 -0.3128 -0.5097
   18MOL   C49311407   3.683   0.993   0.966 -0.2057 -0.0429 -0.0117
   18MOL   C49411408   3.728   0.940   1.101 -0.0994 -0.5615 -0.3306
   18MOL   N49511409   3.689   0.804   1.131 -0.0332 -0.3269  0.3352
   18MOL   H49611410   2.964   1.405   0.599 -3.2036 -2.3795  1.4111
   18MOL   H49711411   2.890   1.260   0.527 -0.3863  0.6239 -1.5454
   18MOL   H49811412   3.007   1.191   0.707  0.3428 -0.5576 -0.2277
   18MOL   H49911413   3.067   1.119   0.565  1.5750 -0.6455  1.2980
   18MOL   H50011414   3.201   1.360   0.727  0.3724 -1.6958  2.2703
   18MOL   H50111415   3.259   1.322   0.574 -0.1407  0.3659  0.2373
   18MOL   H50211416   3.318   1.091   0.665  0.8016 -0.8859  0.7546
   18MOL   H50311417   3.219   1.128   0.806  1.5251 -0.9705  0.1906
   18MOL   H50411418   3.525   1.057   0.702 -2.4999  0.6274  0.2225
   18MOL   H50511419   3.678   1.285   0.780  0.6044  0.5269  1.1985
   18MOL   H50611420   3.734   1.137   0.722 -0.1070  0.0732  0.2550
   18MOL   H50711421   3.816   1.148   0.954  0.2233 -1.1841 -0.2854
   18MOL   H50811422   3.645   1.188   1.016 -1.0547 -1.2976 -0.9368
   18MOL   H50911423   3.745   0.938   0.895  0.4442 -0.4717  0.8896
   18MOL   H51011424   3.578   0.968   0.950  0.4526 -0.8097 -3.6372
   18MOL   H51111425   3.695   1.001   1.185  0.1491 -0.6370 -0.1763
   18MOL   H51211426   3.836   0.954   1.106 -0.0768 -0.3978 -1.3404
   18MOL   H51311427   3.594   0.794   1.164 -0.3615  2.6713  0.3877
   18MOL   C51411428   3.756   0.688   1.095 -0.3771 -0.0388 -0.4907
   18MOL   O51511429   3.867   0.687   1.056  0.1441  0.1649  0.1679
   18MOL   C51611430   3.689   0.556   1.104  0.0972  0.0461 -0.3209
   18MOL   C51711431   3.756   0.458   1.209  0.2569  0.3324  0.6183
   18MOL   C51811432   3.802   0.524   1.343 -0.0940 -0.5822 -0.4061
   18MOL   C51911433   3.692   0.571   1.440  0.0172  0.6119  0.0368
   18MOL   C52011434   3.732   0.697   1.515  0.0941  0.2894 -0.2503
   18MOL   O52111435   3.815   0.688   1.614 -0.2091  0.2217  0.5055
   18MOL   N52211436   3.675   0.813   1.478 -0.7420  0.0490  0.4103
   18MOL   C52311437   3.702   0.945   1.536 -0.3437  0.5421 -0.3123
   18MOL   C52411438   3.854   0.979   1.562 -0.2793  0.1091  0.5018
   18MOL   C52511439   3.896   1.119   1.532  0.2164 -0.6539 -0.1276
   18MOL   C52611440   4.040   1.145   1.564 -0.7295  0.0254 -0.0159
   18MOL   N52711441   4.074   1.281   1.514  0.7908 -1.1580  0.3781
   18MOL   H52811442   3.582   0.563   1.122  0.1049  0.9776 -0.6131
   18MOL   H52911443   3.704   0.508   1.007  1.2224 -0.4589  0.0900
   18MOL   H53011444   3.679   0.387   1.237 -0.5992  0.5574 -1.1078
   18MOL   H53111445   3.840   0.399   1.172  0.9622  1.9923 -0.5236
   18MOL   H53211446   3.860   0.610   1.308  1.1640 -0.9663  0.6554
   18MOL   H53311447   3.863   0.450   1.395 -1.9190 -1.7742  0.0700
   18MOL   H53411448   3.658   0.497   1.511  0.9446  0.0458 -0.1062
   18MOL   H53511449   3.609   0.594   1.372  0.1754  0.1374 -0.3163
   18MOL   H53611450   3.599   0.816   1.411 -0.6281  0.2123  0.2895
   18MOL   H53711451   3.637   0.946   1.623  0.8647 -0.7018  0.6396
   18MOL   H53811452   3.663   1.025   1.474  0.8659  1.5489  0.1991
   18MOL   H53911453   3.879   0.955   1.666  0.2883  1.3680  0.6623
   18MOL   H54011454   3.916   0.923   1.492  2.8661  1.6171  1.9604
   18MOL   H54111455   3.827   1.186   1.583  0.1970  0.2983 -1.3624
   18MOL   H54211456   3.879   1.132   1.425  2.2611 -0.9878 -0.5088
   18MOL   H54311457   4.092   1.066   1.510 -0.4303  0.6631 -0.6575
   18MOL   H54411458   4.086   1.127   1.661  0.1795  0.4172 -0.3710
   18MOL   H54511459   4.009   1.358   1.521  1.4157 -0.4757 -1.1648
   18MOL   C54611460   4.188   1.306   1.447 -0.3365 -0.4295  0.2292
   18MOL   O54711461   4.278   1.224   1.425  0.3986  0.0069 -0.8172
   18MOL   C54811462   4.201   1.440   1.382 -0.1360 -0.0949  0.3624
   18MOL   C54911463   4.239   1.425   1.239 -0.1902 -0.9499 -0.1996
   18MOL   C55011464   4.134   1.349   1.152 -0.3826  0.6228  0.2942
   18MOL   C55111465   4.155   1.364   1.003  0.7341 -0.0285 -0.2406
   18MOL   C55211466   4.092   1.495   0.943 -0.9246  0.5220 -0.3031
   18MOL   O55311467   3.978   1.486   0.893 -0.4184  0.2531  0.4319
   18MOL   N55411468   4.160   1.614   0.954 -0.1240 -0.3449  0.2893
   18MOL   C55511469   4.109   1.749   0.935  0.3015 -0.0465 -0.4896
   18MOL   C55611470   4.099   1.792   0.780 -0.8932  0.5973 -0.2642
   18MOL   C55711471   4.059   1.934   0.751 -0.0304 -0.0114 -0.2316
   18MOL   C55811472   4.068   1.966   0.609  0.6453 -0.5107  0.4137
   18MOL   N55911473   4.013   2.098   0.584 -0.4730 -0.3199  0.1411
   18MOL   H56011474   4.110   1.498   1.400 -0.3050 -0.3679  0.3782
   18MOL   H56111475   4.286   1.482   1.436 -1.1751  1.2588  0.9929
   18MOL   H56211476   4.253   1.526   1.200  0.7832 -0.6200  0.9747
   18MOL   H56311477   4.331   1.367   1.233  0.8432  0.8347 -2.2974
   18MOL   H56411478   4.030   1.373   1.172 -0.6581 -0.7992  0.5852
   18MOL   H56511479   4.146   1.244   1.179  1.2306  0.2856 -1.5634
   18MOL   H56611480   4.109   1.278   0.954 -1.4682  0.8561  0.2381
   18MOL   H56711481   4.263   1.370   0.987  0.3604  1.2605 -2.5818
   18MOL   H56811482   4.256   1.621   0.985  0.5774 -0.2329 -1.8287
   18MOL   H56911483   4.172   1.818   0.991  0.0206  1.3133 -1.8094
   18MOL   H57011484   4.014   1.758   0.987  1.0169 -2.3360  1.2533
   18MOL   H57111485   4.200   1.783   0.740 -0.0738  0.1187  1.8446
   18MOL   H57211486   4.040   1.720   0.723 -1.8096 -0.0504  1.4509
   18MOL   H57311487   4.129   1.997   0.806 -0.4826 -1.1517  1.7086
   18MOL   H57411488   3.960   1.954   0.792  0.7200  0.4525  1.3591
   18MOL   H57511489   4.027   1.881   0.554 -0.4598  0.4905 -0.3387
   18MOL   H57611490   4.170   1.964   0.572 -0.1476  0.9264 -1.9482
   18MOL   H57711491   3.987   2.157   0.661 -0.9476 -1.0751  0.5636
   18MOL   C57811492   4.010   2.144   0.453 -0.3356 -0.1329 -0.0591
   18MOL   O57911493   4.051   2.066   0.361 -0.3391 -0.7767  0.0541
   18MOL   C58011494   3.972   2.284   0.426  0.2182  0.3487  0.3181
   18MOL   C58111495   3.965   2.333   0.285 -0.1248  0.4013  0.4874
   18MOL   C58211496   3.847   2.267   0.206  0.0245  0.2387 -0.2453
   18MOL   C58311497   3.797   2.357   0.097 -0.3774  0.0541  0.6451
   18MOL   C58411498   3.703   2.283   0.000 -0.1577 -0.2661 -0.1433
   18MOL   O58511499   3.690   2.156   0.012  0.0934  0.0954  0.2231
   18MOL   N58611500   3.628   2.350   7.613  0.4195  0.3297  0.0880
   18MOL   C58711501   3.547   2.281   7.521 -0.2246 -0.5966  0.3353
   18MOL   C58811502   3.434   2.369   7.473  0.6662  0.2152 -0.5956
   18MOL   C58911503   3.327   2.302   7.384 -0.4740 -0.4188 -0.2635
   18MOL   C59011504   3.209   2.395   7.357  0.0534 -0.7457 -0.2363
   18MOL   N59111505   3.105   2.328   7.283  1.0572  0.5042  0.6428
   18MOL   H59211506   3.877   2.311   0.473 -0.2015  0.8349 -0.7911
   18MOL   H59311507   4.049   2.340   0.480 -0.3317  1.5571 -0.1242
   18MOL   H59411508   3.937   2.439   0.286 -0.4962  0.4045 -3.5366
   18MOL   H59511509   4.059   2.328   0.230 -0.3713 -0.1558  0.1181
   18MOL   H59611510   3.764   2.251   0.274  2.5501  1.0130  3.1613
   18MOL   H59711511   3.879   2.172   0.162 -0.9061  0.0372 -0.4964
   18MOL   H59811512   3.880   2.399   0.041  0.3014  0.3138  1.8087
   18MOL   H59911513   3.737   2.439   0.135 -0.9163 -0.0413 -0.0127
   18MOL   H60011514   3.632   2.450   7.600  0.7282  0.7318  2.9266
   18MOL   H60111515   3.506   2.190   7.565 -1.8246 -0.7687 -1.4501
   18MOL   H60211516   3.611   2.244   7.441  0.6977  0.3161  0.6495
   18MOL   H60311517   3.396   2.435   7.552  0.7431  0.7206 -0.9749
   18MOL   H60411518   3.481   2.440   7.405  1.7859  2.3423  2.2801
   18MOL   H60511519   3.292   2.212   7.435 -1.0309 -0.5559 -0.8881
   18MOL   H60611520   3.367   2.260   7.292 -1.5853  0.3897 -1.1246
   18MOL   H60711521   3.242   2.481   7.299  0.2254 -2.4096 -2.6829
   18MOL   H60811522   3.172   2.433   7.452 -0.2000 -0.6061 -0.3905
   18MOL   H60911523   3.014   2.318   7.324  1.0089  2.0602  0.9290
   18MOL   C61011524   3.116   2.297   7.154  0.1465  0.3062 -0.1567
   18MOL   O61111525   3.216   2.329   7.097 -0.6581  0.4175 -0.4626
   18MOL   C61211526   3.012   2.216   7.079 -0.3366 -0.1618 -0.1235
   18MOL   C61311527   3.059   2.138   6.950  0.2844  0.4749  0.2130
   18MOL   C61411528   3.027   2.214   6.819 -0.7847  0.2038 -0.0824
   18MOL   C61511529   3.109   2.334   6.780  0.6903 -0.0932  0.2525
   18MOL   C61611530   3.038   2.466   6.810  0.6061 -0.0332  0.1605
   18MOL   O61711531   2.947   2.511   6.741  0.1125  0.7043 -0.0613
   18MOL   N61811532   3.085   2.523   6.922 -0.0177 -0.2419  0.4504
   18MOL   C61911533   3.026   2.644   6.984  0.1916 -0.0859 -0.8892
   18MOL   C62011534   3.059   2.649   7.130 -0.1605  0.0582  0.6440
   18MOL   C62111535   3.016   2.783   7.194  0.6316 -0.7041  0.3872
   18MOL   C62211536   3.008   2.808   7.342  0.8514  0.1461 -0.0690
   18MOL   N62311537   2.965   2.947   7.356 -0.3461  0.7642 -0.0172
   18MOL   H62411538   2.969   2.147   7.151 -0.9131  0.0463 -0.2717
   18MOL   H62511539   2.928   2.279   7.052 -0.5269  0.5727  2.0869
   18MOL   H62611540   3.163   2.109   6.964 -0.1497 -1.1364  0.2179
   18MOL   H62711541   3.006   2.043   6.950 -1.3150  1.3245  2.1920
   18MOL   H62811542   2.920   2.234   6.819 -1.1800 -1.7907 -0.9171
   18MOL   H62911543   3.038   2.138   6.741 -2.8743  2.0967 -2.2911
   18MOL   H63011544   3.130   2.340   6.673  0.0063 -2.1346 -0.0199
   18MOL   H63111545   3.210   2.333   6.821  0.3036 -1.3224  1.1969
   18MOL   H63211546   3.145   2.461   6.973  1.4879  0.3754 -0.5459
   18MOL   H63311547   2.918   2.657   6.977 -0.2334 -0.9925  2.8481
   18MOL   H63411548   3.069   2.735   6.944  1.4820  0.0892  0.8361
   18MOL   H63511549   3.012   2.569   7.187  1.0618 -1.9477 -1.0912
   18MOL   H63611550   3.166   2.638   7.142 -0.0986  0.5548  0.5750
   18MOL   H63711551   2.920   2.810   7.150  0.5660  1.0037  1.5367
   18MOL   H63811552   3.079   2.867   7.164  1.0922 -0.7521  1.2015
   18MOL   H63911553   3.095   2.779   7.401  0.6892 -1.2498 -0.4924
   18MOL   H64011554   2.929   2.740   7.375 -1.2068  1.7299 -1.6193
   18MOL   H64111555   2.938   2.969   7.451 -0.9502 -2.2207  0.5518
   18MOL   H64211556   2.876   2.956   7.310  0.5388  0.8919 -1.7249
   19MOL     C111557   7.080   1.287   0.401  0.1739 -0.1607 -0.1497
   19MOL     O211558   7.071   1.393   0.467 -0.4666  0.0817 -0.3050
   19MOL     C311559   7.029   1.158   0.458  0.4554 -0.1953 -0.5879
   19MOL     C411560   6.897   1.158   0.531 -0.0690 -0.3509 -0.1301
   19MOL     C511561   6.778   1.200   0.441  0.4307 -0.1807 -0.1737
   19MOL     C611562   6.644   1.200   0.510 -0.2326  0.8587 -0.4695
   19MOL     C711563   6.623   1.302   0.621  0.4089 -0.3459  0.1316
   19MOL     O811564   6.693   1.405   0.630  0.2422 -0.0106 -0.3594
   19MOL     N911565   6.512   1.283   0.693 -0.2042 -0.1070  0.1510
   19MOL    C1011566   6.468   1.349   0.816 -0.3769  0.0729 -0.1790
   19MOL    C1111567   6.434   1.497   0.803 -0.3359  0.0022  0.4755
   19MOL    C1211568   6.415   1.572   0.936  0.2078  0.7615 -0.3031
   19MOL    C1311569   6.395   1.723   0.923 -0.5220 -0.1453 -0.0110
   19MOL    N1411570   6.259   1.735   0.870 -1.1538 -0.4328  0.1090
   19MOL    H1511571   7.016   1.082   0.381  2.3376 -0.5629 -0.5817
   19MOL    H1611572   7.109   1.126   0.525 -0.0773 -0.1895  0.0604
   19MOL    H1711573   6.886   1.060   0.578 -0.3843  0.4326  1.4832
   19MOL    H1811574   6.897   1.225   0.616  0.6976  1.5583 -1.6098
   19MOL    H1911575   6.780   1.140   0.350  1.8385  0.5130 -0.6235
   19MOL    H2011576   6.788   1.299   0.396  0.4945 -0.3476 -0.5288
   19MOL    H2111577   6.628   1.100   0.551 -0.1702  0.7386 -0.7399
   19MOL    H2211578   6.564   1.226   0.440 -0.2503  1.5586 -0.1845
   19MOL    H2311579   6.448   1.209   0.665 -0.9405  0.9743 -1.0477
   19MOL    H2411580   6.538   1.321   0.894  1.4766  1.6470 -1.2091
   19MOL    H2511581   6.372   1.306   0.845  0.0229 -0.6650  0.0490
   19MOL    H2611582   6.513   1.556   0.755 -0.5134 -1.2208 -1.3973
   19MOL    H2711583   6.347   1.521   0.741 -0.6246  0.4984  1.0754
   19MOL    H2811584   6.504   1.556   0.997  0.4130 -0.3629 -0.8811
   19MOL    H2911585   6.331   1.534   0.995  1.7639 -1.5840  0.4506
   19MOL    H3011586   6.472   1.764   0.858  0.5690 -2.4987 -0.2350
   19MOL    H3111587   6.399   1.781   1.015 -0.7876  0.5529 -0.4355
   19MOL    H3211588   6.222   1.660   0.812 -1.5913 -0.0409 -0.1237
   19MOL    H3311589   7.138   1.270   0.310 -1.2494  0.8186 -1.2868
   19MOL    C3411590   6.184   1.847   0.884 -0.4471  0.6416  0.1264
   19MOL    O3511591   6.220   1.946   0.946 -0.1280 -0.1328 -0.2420
   19MOL    C3611592   6.060   1.857   0.811  0.1304  0.5075  0.6423
   19MOL    C3711593   5.955   1.918   0.892 -0.4300 -0.5887 -0.6293
   19MOL    C3811594   5.829   1.924   0.810  0.8831 -0.3156  0.5148
   19MOL    C3911595   5.706   1.976   0.887 -0.4834  0.3430  0.4977
   19MOL    C4011596   5.585   1.995   0.793  0.5541 -0.4756  0.1754
   19MOL    O4111597   5.590   2.064   0.690 -0.3547  0.3102 -0.3102
   19MOL    N4211598   5.479   1.922   0.834 -0.2107 -0.4145  0.0376
   19MOL    C4311599   5.355   1.883   0.770  0.2038  0.0263  0.1402
   19MOL    C4411600   5.329   1.740   0.802 -0.1825  0.1033  1.1152
   19MOL    C4511601   5.189   1.694   0.752  1.2413  0.1719  0.5873
   19MOL    C4611602   5.157   1.549   0.786  0.1857 -0.2380  0.2236
   19MOL    N4711603   5.019   1.523   0.733 -0.2714  0.4034  0.6056
   19MOL    H4811604   6.084   1.910   0.719  4.1146 -1.9813  0.1186
   19MOL    H4911605   6.032   1.763   0.764 -1.1875  1.2032  0.0052
   19MOL    H5011606   5.937   1.869   0.988  3.3764  0.5457  0.7593
   19MOL    H5111607   5.983   2.020   0.921 -0.5445 -1.0330  1.0898
   19MOL    H5211608   5.796   1.833   0.759 -1.2884  1.4508 -1.3752
   19MOL    H5311609   5.848   1.987   0.723  1.7663  0.7501  1.4622
   19MOL    H5411610   5.734   2.063   0.946 -0.7199  1.1006 -0.4896
   19MOL    H5511611   5.681   1.906   0.966 -0.7370 -1.5176 -1.1908
   19MOL    H5611612   5.492   1.879   0.925  0.4066 -2.6720 -1.0907
   19MOL    H5711613   5.369   1.894   0.662  0.5418  0.5680  0.2395
   19MOL    H5811614   5.274   1.951   0.795 -0.2175 -0.0099 -1.1075
   19MOL    H5911615   5.402   1.671   0.761 -0.3940  1.0731 -1.0051
   19MOL    H6011616   5.327   1.732   0.910 -0.7612 -0.7242  1.0486
   19MOL    H6111617   5.193   1.713   0.645 -1.5888 -1.3579  0.1683
   19MOL    H6211618   5.107   1.757   0.785 -0.8766 -0.1583 -3.7426
   19MOL    H6311619   5.152   1.534   0.893  0.4981 -1.7441  0.0482
   19MOL    H6411620   5.232   1.480   0.748  2.6018  1.8070  1.1710
   19MOL    H6511621   4.963   1.603   0.707 -1.7429 -0.9776 -0.5850
   19MOL    C6611622   4.952   1.415   0.762 -0.9061  0.0009  0.1916
   19MOL    O6711623   5.004   1.314   0.819  0.2429  0.1270  0.1880
   19MOL    C6811624   4.802   1.419   0.718  0.1618 -0.2423 -0.1263
   19MOL    C6911625   4.777   1.406   0.558  0.2700  0.6698 -0.1922
   19MOL    C7011626   4.747   1.266   0.495  0.1220 -0.3817 -0.2279
   19MOL    C7111627   4.765   1.255   0.339  0.6136  0.1293 -0.4815
   19MOL    C7211628   4.915   1.247   0.304 -0.6014  0.3106 -0.4049
   19MOL    O7311629   4.988   1.344   0.334  0.1844  0.2584  0.1059
   19MOL    N7411630   4.958   1.135   0.239 -0.0774  0.2530  0.5857
   19MOL    C7511631   5.079   1.116   0.172 -0.0953 -0.4989  0.2583
   19MOL    C7611632   5.152   1.005   0.240 -0.1908  0.1812 -0.1737
   19MOL    C7711633   5.200   1.029   0.390 -0.7845 -0.9118  0.6225
   19MOL    C7811634   5.312   1.129   0.413  0.5223 -0.4909 -0.0921
   19MOL    N7911635   5.256   1.264   0.403  0.2439 -0.1145  0.4498
   19MOL    H8011636   4.744   1.341   0.766 -0.2717 -0.7371 -1.4345
   19MOL    H8111637   4.766   1.513   0.760  0.6492  0.5150 -1.3536
   19MOL    H8211638   4.688   1.466   0.538  1.0294  2.7569  2.4180
   19MOL    H8311639   4.865   1.453   0.514  0.9308 -1.5056 -1.2798
   19MOL    H8411640   4.641   1.247   0.512  0.6124 -0.8283  2.6348
   19MOL    H8511641   4.812   1.201   0.553 -1.1903 -2.9757 -1.5636
   19MOL    H8611642   4.733   1.345   0.287  1.3564  0.5486 -0.2245
   19MOL    H8711643   4.712   1.174   0.290  0.5603 -0.3800  0.3966
   19MOL    H8811644   4.892   1.060   0.228  1.9655 -1.7495  1.6824
   19MOL    H8911645   5.131   1.212   0.170 -3.5009  1.4527  0.9154
   19MOL    H9011646   5.067   1.091   0.066  1.9662  2.0737 -0.6330
   19MOL    H9111647   5.103   0.908   0.229  0.9484 -0.8521  3.2082
   19MOL    H9211648   5.252   0.992   0.198 -1.4352 -1.4854 -2.8322
   19MOL    H9311649   5.240   0.935   0.427  1.5655 -0.6859 -1.1833
   19MOL    H9411650   5.111   1.052   0.449 -0.8174  0.3947  0.0766
   19MOL    H9511651   5.403   1.122   0.353  1.6302 -1.4745  1.6516
   19MOL    H9611652   5.343   1.123   0.518 -0.4639  0.3037  0.2458
   19MOL    H9711653   5.160   1.275   0.374  0.9548 -0.2123 -2.0148
   19MOL    C9811654   5.315   1.370   0.450 -0.6862 -0.2062 -0.5854
   19MOL    O9911655   5.432   1.367   0.488  0.3701 -0.3753  0.4811
   19MOL   C10011656   5.243   1.503   0.444  0.5714  0.7568  0.0495
   19MOL   C10111657   5.255   1.573   0.305  0.4459  0.3226  0.5118
   19MOL   C10211658   5.177   1.703   0.299 -0.5753  0.6744  0.8251
   19MOL   C10311659   5.183   1.774   0.162  0.5395 -0.1483 -0.2939
   19MOL   C10411660   5.166   1.926   0.166 -0.2464  0.1920 -0.0775
   19MOL   O10511661   5.195   1.977   0.274 -0.0786  0.1818  0.1358
   19MOL   N10611662   5.128   1.998   0.059  0.6438 -0.0789 -0.1627
   19MOL   C10711663   5.111   2.147   0.056 -0.2106 -0.3653 -0.2663
   19MOL   C10811664   5.209   2.209   7.656 -0.4561  0.2480 -0.1025
   19MOL   C10911665   5.358   2.184   7.692 -0.5384 -0.0293 -0.2748
   19MOL   C11011666   5.456   2.231   7.594 -0.6938 -0.2157  0.9302
   19MOL   N11111667   5.596   2.194   7.633 -0.0671  0.0734  0.1412
   19MOL   H11211668   5.141   1.490   0.479  1.8772  1.2824  4.2404
   19MOL   H11311669   5.297   1.559   0.521 -0.7901  0.6905  1.0706
   19MOL   H11411670   5.361   1.589   0.283  0.9644 -0.1106  2.5502
   19MOL   H11511671   5.220   1.505   0.228  1.9964  0.4791 -0.3636
   19MOL   H11611672   5.235   1.768   0.365  0.7838 -0.3576  0.6701
   19MOL   H11711673   5.073   1.690   0.328 -0.7412  2.4712  1.0560
   19MOL   H11811674   5.099   1.739   0.101 -0.4954  1.0357  0.4184
   19MOL   H11911675   5.275   1.768   0.104  0.1754 -0.5506 -0.8347
   19MOL   H12011676   5.076   1.939   7.696  0.1167 -1.2583  1.2992
   19MOL   H12111677   5.132   2.182   0.157  0.7542  1.2433 -1.0075
   19MOL   H12211678   5.011   2.180   0.026 -0.1595  0.0061 -0.0248
   19MOL   H12311679   5.186   2.177   7.554  0.6069 -1.7070  0.2381
   19MOL   H12411680   5.194   2.317   7.648  2.3126  0.5418 -2.3236
   19MOL   H12511681   5.377   2.078   0.005  0.5353  0.4627  2.4642
   19MOL   H12611682   5.379   2.245   0.079  1.8260 -0.5104 -0.4685
   19MOL   H12711683   5.442   2.339   7.586  1.8296  0.0128 -1.2814
   19MOL   H12811684   5.444   2.184   7.496  0.4167  1.0553  0.1624
   19MOL   H12911685   5.621   2.196   0.029  1.9890  0.9869 -0.3735
   19MOL   C13011686   5.693   2.122   7.570 -0.3030 -0.9731 -0.2367
   19MOL   O13111687   5.693   2.090   7.457  0.5682  0.1965  0.3270
   19MOL   C13211688   5.820   2.103   7.656 -0.5344  0.7825  0.0716
   19MOL   C13311689   5.952   2.102   7.575  0.3628  0.2781  0.2840
   19MOL   C13411690   5.981   1.973   7.496 -0.0907  0.2350  0.6280
   19MOL   C13511691   6.116   1.961   7.431  0.4565  0.7135  0.0040
   19MOL   C13611692   6.230   1.974   7.528  0.2585  0.4118 -0.3900
   19MOL   O13711693   6.252   1.897   7.620 -0.1582 -0.5187 -0.2157
   19MOL   N13811694   6.315   2.078   7.504 -0.4568  0.7267  0.9373
   19MOL   C13911695   6.432   2.118   7.577  0.7033 -0.4136 -0.0896
   19MOL   C14011696   6.389   2.192   0.009  0.2813  0.2670 -0.1624
   19MOL   C14111697   6.508   2.260   0.078  0.1718  0.5098 -0.3369
   19MOL   C14211698   6.477   2.327   0.214  0.0699 -0.3947 -0.5368
   19MOL   N14311699   6.376   2.437   0.205  0.8964  0.3654  0.4102
   19MOL   H14411700   5.824   2.181   0.030 -0.2955  3.0139 -2.1679
   19MOL   H14511701   5.802   2.011   0.010 -0.4104  0.7456  0.0510
   19MOL   H14611702   5.956   2.186   7.506  1.5895  1.3928  1.6735
   19MOL   H14711703   6.028   2.125   7.649  0.8324  1.0608 -0.4391
   19MOL   H14811704   5.912   1.956   7.413  1.3872 -1.9482 -0.2036
   19MOL   H14911705   5.960   1.884   7.554  0.7637  0.9934  2.1377
   19MOL   H15011706   6.123   2.028   7.346 -1.1651  1.4366  0.4283
   19MOL   H15111707   6.146   1.869   7.380  2.0614  0.5557  1.1951
   19MOL   H15211708   6.276   2.141   7.435 -1.3245 -0.6198  0.1756
   19MOL   H15311709   6.493   2.180   7.511 -0.8577  0.2257 -0.9433
   19MOL   H15411710   6.492   2.032   7.606 -1.5986 -2.9690 -2.6509
   19MOL   H15511711   6.301   2.252   7.687 -0.4784 -1.7079 -2.7278
   19MOL   H15611712   6.350   2.118   0.079 -3.3223  1.4396 -0.8364
   19MOL   H15711713   6.552   2.330   0.007  0.0886  0.9809  0.0729
   19MOL   H15811714   6.573   2.173   0.096 -2.6851 -1.8318 -0.9570
   19MOL   H15911715   6.567   2.352   0.271 -1.9823  1.3736  2.0536
   19MOL   H16011716   6.445   2.247   0.281  0.1463  0.0314  0.0086
   19MOL   H16111717   6.400   2.522   0.156 -1.2030  0.6347 -0.1995
   19MOL   C16211718   6.262   2.439   0.280 -0.1850  0.4269 -0.6340
   19MOL   O16311719   6.233   2.357   0.367  0.3180  0.0497 -0.8943
   19MOL   C16411720   6.156   2.551   0.251 -0.9489  0.3721  0.3343
   19MOL   C16511721   6.053   2.583   0.351  0.0137 -0.9282 -0.3133
   19MOL   C16611722   5.965   2.704   0.315  0.2284  0.0151 -0.1691
   19MOL   C16711723   5.829   2.704   0.394 -1.1156 -0.6854 -0.7845
   19MOL   C16811724   5.743   2.831   0.370  0.2949  0.3752  0.2794
   19MOL   O16911725   5.733   2.880   0.256 -0.1648 -0.6663  0.3872
   19MOL   N17011726   5.675   2.871   0.481  0.2048  0.5778  0.1183
   19MOL   C17111727   5.583   2.983   0.501 -0.1348 -0.3197 -0.1291
   19MOL   C17211728   5.637   3.126   0.524 -0.1353  0.0128 -0.9464
   19MOL   C17311729   5.532   3.230   0.544  0.8445 -0.3505  0.0481
   19MOL   C17411730   5.575   3.371   0.524 -0.2084 -0.4415  1.1597
   19MOL   N17511731   5.470   3.462   0.550  0.3919 -0.4744  0.9014
   19MOL   H17611732   6.213   2.644   0.239 -2.7386  1.6220  1.3167
   19MOL   H17711733   6.112   2.525   0.155  0.3310 -3.6185  0.7389
   19MOL   H17811734   5.987   2.496   0.351  1.5964 -2.1889 -1.7152
   19MOL   H17911735   6.091   2.596   0.452 -0.1042  2.2121 -0.6172
   19MOL   H18011736   5.935   2.714   0.211  0.4224 -1.2409 -0.3556
   19MOL   H18111737   6.013   2.799   0.339  1.0481 -0.2782 -0.6202
   19MOL   H18211738   5.861   2.700   0.498  1.2507  1.1521 -1.3978
   19MOL   H18311739   5.771   2.615   0.370 -2.4613 -0.1309  0.3203
   19MOL   H18411740   5.687   2.815   0.564  2.4703  0.9199  0.0556
   19MOL   H18511741   5.513   2.950   0.578  0.0257 -0.2411  0.0510
   19MOL   H18611742   5.551   2.975   0.397  1.9963 -0.7102 -0.7801
   19MOL   H18711743   5.707   3.131   0.608  1.0318 -1.9388 -1.7669
   19MOL   H18811744   5.692   3.145   0.432  0.0992 -0.1152 -0.8354
   19MOL   H18911745   5.486   3.219   0.642  1.5461 -1.4347  0.2643
   19MOL   H19011746   5.450   3.199   0.479  0.5076 -1.5549  1.0313
   19MOL   H19111747   5.611   3.380   0.422 -1.4382  0.1524  0.7713
   19MOL   H19211748   5.660   3.391   0.589  0.5782 -0.2737  0.0875
   19MOL   H19311749   5.489   3.529   0.622  0.8165 -1.0212  1.3015
   19MOL   C19411750   5.362   3.481   0.479 -1.3261 -0.1677  0.1845
   19MOL   O19511751   5.353   3.416   0.375  0.3261  0.5816  0.0191
   19MOL   C19611752   5.255   3.574   0.525  0.6851 -0.3118 -0.2642
   19MOL   C19711753   5.171   3.652   0.414 -0.0005  0.4655 -0.8550
   19MOL   C19811754   5.088   3.555   0.331 -0.6809 -0.1660 -0.1317
   19MOL   C19911755   4.939   3.592   0.305 -0.3266 -0.5736  0.3604
   19MOL   C20011756   4.916   3.729   0.238  0.1829  0.8933 -0.7256
   19MOL   O20111757   5.004   3.811   0.231 -0.2795  0.2800  0.5592
   19MOL   N20211758   4.792   3.757   0.186 -0.6125  0.7715  0.2769
   19MOL   C20311759   4.755   3.885   0.130 -0.1476 -0.4522 -0.1417
   19MOL   C20411760   4.627   3.937   0.182  0.1284 -0.8541 -0.0141
   19MOL   C20511761   4.570   4.062   0.111 -0.9570 -0.3657 -0.6972
   19MOL   C20611762   4.429   4.113   0.160  0.1029 -0.3146  0.3005
   19MOL   N20711763   4.420   4.092   0.308 -0.7796  0.2710 -0.3490
   19MOL   H20811764   5.184   3.516   0.585 -1.3720 -0.5044 -2.7672
   19MOL   H20911765   5.305   3.649   0.585  0.3214  0.3912 -0.8295
   19MOL   H21011766   5.105   3.720   0.469 -0.3127 -1.6656  1.5031
   19MOL   H21111767   5.235   3.719   0.357  0.7736  0.6051  0.1599
   19MOL   H21211768   5.085   3.463   0.389  0.2699  1.5744  2.7842
   19MOL   H21311769   5.138   3.520   0.241 -0.5000 -0.9179  0.2621
   19MOL   H21411770   4.883   3.591   0.399 -0.2219  1.2541  0.4654
   19MOL   H21511771   4.900   3.506   0.250 -1.1575 -1.4935  2.3530
   19MOL   H21611772   4.720   3.688   0.201  1.4723 -1.5971 -0.2236
   19MOL   H21711773   4.748   3.862   0.023  0.9168 -1.5454  0.0101
   19MOL   H21811774   4.831   3.961   0.146  0.3582 -1.0768  0.4747
   19MOL   H21911775   4.545   3.865   0.179 -0.7760 -0.0408  3.0484
   19MOL   H22011776   4.647   3.960   0.287  2.5826 -0.3121 -0.5731
   19MOL   H22111777   4.573   4.047   0.003  1.8032  3.9149 -1.3409
   19MOL   H22211778   4.638   4.144   0.131 -1.7335 -0.2612  1.7235
   19MOL   H22311779   4.346   4.065   0.108  0.5226 -0.8744  0.1399
   19MOL   H22411780   4.425   4.220   0.141 -0.1374 -0.5526 -0.9989
   19MOL   H22511781   4.413   3.994   0.332  1.5529  0.2712  0.4922
   19MOL   C22611782   4.385   4.172   0.409  0.5769  0.3924  0.0081
   19MOL   O22711783   4.367   4.293   0.399 -0.1417 -0.5532  0.8703
   19MOL   C22811784   4.362   4.090   0.539 -0.3475  0.1672  0.0013
   19MOL   C22911785   4.375   4.172   0.672 -0.0573 -0.0356 -0.1758
   19MOL   C23011786   4.344   4.086   0.803 -0.6560 -0.2988 -0.1534
   19MOL   C23111787   4.402   4.145   0.934  0.1653 -0.4500 -0.5041
   19MOL   C23211788   4.548   4.126   0.935 -0.4434 -1.1184 -0.7284
   19MOL   O23311789   4.626   4.213   0.888 -0.3687  0.0414 -0.1270
   19MOL   N23411790   4.596   4.016   1.002  0.5787 -0.1182 -0.3670
   19MOL   C23511791   4.728   3.981   1.033  0.3883  0.2644 -0.4076
   19MOL   C23611792   4.744   3.842   1.110  0.6988 -0.1532 -0.3875
   19MOL   C23711793   4.891   3.807   1.101  0.1166  0.1054 -0.1422
   19MOL   C23811794   4.962   3.883   1.215  0.4141 -0.3930  0.0944
   19MOL   N23911795   4.895   3.872   1.346 -0.1806 -0.9841 -0.5767
   19MOL   H24011796   4.270   4.032   0.537 -0.8762  0.9127  1.7611
   19MOL   H24111797   4.431   4.006   0.533 -0.8409 -0.2278 -0.1331
   19MOL   H24211798   4.481   4.195   0.670  0.1201 -0.8976 -1.0488
   19MOL   H24311799   4.323   4.268   0.667  0.5662  0.2204 -2.3208
   19MOL   H24411800   4.394   3.992   0.783  0.8511  0.6365 -0.8612
   19MOL   H24511801   4.237   4.067   0.812 -1.1746  1.3559 -2.1666
   19MOL   H24611802   4.373   4.089   1.023  1.3050 -1.5817 -0.8327
   19MOL   H24711803   4.374   4.249   0.951 -0.1078 -0.5736 -0.1939
   19MOL   H24811804   4.525   3.949   1.027  1.7399 -1.2180  0.0625
   19MOL   H24911805   4.783   4.061   1.082  0.4483  0.2920 -0.5176
   19MOL   H25011806   4.769   3.972   0.932  0.9369 -2.3980  0.0102
   19MOL   H25111807   4.687   3.844   1.203 -0.0803 -2.3441 -0.7898
   19MOL   H25211808   4.685   3.771   1.052 -0.9429  1.4537 -0.7471
   19MOL   H25311809   4.933   3.815   1.001 -0.6235 -0.4757 -0.5061
   19MOL   H25411810   4.908   3.702   1.125 -0.9674  0.3158  1.6514
   19MOL   H25511811   4.961   3.991   1.201 -0.6811 -0.3559  0.4598
   19MOL   H25611812   5.070   3.869   1.223  0.7484  1.1827 -1.3848
   19MOL   H25711813   4.831   3.943   1.378  0.4615 -0.6091 -0.0916
   19MOL   C25811814   4.938   3.803   1.447 -0.2688 -0.1660 -0.8129
   19MOL   O25911815   5.028   3.716   1.441 -0.2385 -0.5455 -0.0542
   19MOL   C26011816   4.881   3.843   1.581  0.2945 -0.4717 -0.2772
   19MOL   C26111817   4.911   3.751   1.698  0.0930 -0.3049  1.0065
   19MOL   C26211818   4.843   3.606   1.710  0.1313  0.6002  0.4266
   19MOL   C26311819   4.688   3.619   1.707  0.4373 -0.4531  0.5482
   19MOL   C26411820   4.642   3.699   1.831  0.0584 -0.1298  0.0991
   19MOL   O26511821   4.708   3.690   1.938  0.1864 -0.2204  0.3312
   19MOL   N26611822   4.545   3.787   1.809 -0.1491  0.0202  1.1082
   19MOL   C26711823   4.488   3.881   1.909  0.0547  0.3217 -0.2469
   19MOL   C26811824   4.529   4.026   1.873  0.5185  0.0062 -0.1364
   19MOL   C26911825   4.495   4.087   1.731 -0.0102  0.7303  0.0435
   19MOL   C27011826   4.561   4.213   1.700  0.4741 -0.1808  0.2201
   19MOL   N27111827   4.525   4.313   1.799  0.5683 -0.1058  0.9600
   19MOL   H27211828   4.909   3.942   1.619  0.0320 -0.3518 -0.3971
   19MOL   H27311829   4.773   3.853   1.569  0.0662 -1.8355  0.5419
   19MOL   H27411830   5.015   3.721   1.709  1.0277  1.5539 -1.9717
   19MOL   H27511831   4.885   3.818   1.779  0.0003  0.8087  0.0621
   19MOL   H27611832   4.878   3.558   1.801 -0.4546  0.7319  0.7259
   19MOL   H27711833   4.875   3.550   1.622 -0.6128 -0.3329  0.7344
   19MOL   H27811834   4.651   3.516   1.708  1.2530 -0.7987 -1.9196
   19MOL   H27911835   4.651   3.671   1.619  1.4244 -0.2495  0.2551
   19MOL   H28011836   4.504   3.787   1.717 -2.7219 -1.5344  2.1905
   19MOL   H28111837   4.530   3.853   2.006 -0.8067  0.2093  0.0988
   19MOL   H28211838   4.382   3.859   1.922  0.3864 -0.3796  1.4074
   19MOL   H28311839   4.478   4.077   1.955 -0.0052 -0.6993 -0.0199
   19MOL   H28411840   4.636   4.031   1.892  0.6741 -1.3717 -0.6165
   19MOL   H28511841   4.387   4.100   1.729 -0.5524 -3.0726 -0.0581
   19MOL   H28611842   4.513   4.011   1.655 -0.2563 -0.1413  0.8429
   19MOL   H28711843   4.530   4.240   1.598 -1.7587  0.2915  0.9863
   19MOL   H28811844   4.669   4.205   1.694  0.3605 -0.7918 -1.4049
   19MOL   H28911845   4.494   4.272   1.887  0.5926 -2.7629 -0.2207
   19MOL   C29011846   4.560   4.443   1.787 -0.5146  0.2172 -0.2443
   19MOL   O29111847   4.587   4.489   1.675  0.2812  0.5227  0.3486
   19MOL   C29211848   4.564   4.527   1.920 -0.1276  0.0517  0.0320
   19MOL   C29311849   4.440   4.611   1.928  0.7235  0.1238 -0.2577
   19MOL   C29411850   4.328   4.531   2.001  0.6045  0.6370  0.4632
   19MOL   C29511851   4.196   4.604   1.991 -0.2217  0.3363  0.1654
   19MOL   C29611852   4.089   4.577   2.093  0.3082  0.3693 -0.3259
   19MOL   O29711853   4.110   4.532   2.206 -0.6992 -0.3743  0.4142
   19MOL   N29811854   3.962   4.595   2.054 -0.1210 -0.0877 -0.4755
   19MOL   C29911855   3.845   4.550   2.119 -0.8531 -0.2238  0.2191
   19MOL   C30011856   3.835   4.394   2.110 -0.4336 -0.5083 -0.2483
   19MOL   C30111857   3.744   4.344   2.001  0.0762  0.0562  0.9254
   19MOL   C30211858   3.796   4.361   1.862  0.9661 -0.0102  0.3598
   19MOL   N30311859   3.708   4.304   1.758  0.0113 -0.4572 -0.3139
   19MOL   H30411860   4.574   4.465   2.009 -1.3433  1.5838  1.2614
   19MOL   H30511861   4.649   4.596   1.922 -1.0192  1.2612 -1.7054
   19MOL   H30611862   4.467   4.702   1.982 -0.7076  1.0431 -1.0436
   19MOL   H30711863   4.412   4.645   1.828  0.9764  0.9182 -0.0572
   19MOL   H30811864   4.348   4.518   2.108  2.0355 -1.5593 -0.0530
   19MOL   H30911865   4.317   4.431   1.958 -0.2655  0.3236  1.3770
   19MOL   H31011866   4.164   4.576   1.891  1.2141 -0.7393 -0.0096
   19MOL   H31111867   4.211   4.712   1.994 -1.4849  0.5491 -0.9413
   19MOL   H31211868   3.957   4.636   1.961  3.0350  0.2218 -0.5678
   19MOL   H31311869   3.756   4.602   2.083 -0.5295 -0.3316 -0.7362
   19MOL   H31411870   3.835   4.578   2.224 -0.2643  2.2131 -0.3514
   19MOL   H31511871   3.936   4.354   2.110 -0.7186 -1.2225 -0.1364
   19MOL   H31611872   3.794   4.343   2.197 -1.1412 -1.8805 -1.3766
   19MOL   H31711873   3.645   4.387   2.017  0.2206  0.1043  1.7085
   19MOL   H31811874   3.722   4.238   2.012 -1.2177  0.5267  3.1288
   19MOL   H31911875   3.897   4.320   1.853  1.0358 -0.5800  3.3091
   19MOL   H32011876   3.813   4.468   1.849 -1.0425  0.4901  1.6844
   19MOL   H32111877   3.618   4.348   1.752  0.4811  0.4839 -0.6647
   19MOL   C32211878   3.739   4.221   1.658 -0.5884  0.2826  0.7718
   19MOL   O32311879   3.850   4.173   1.643 -0.0305 -0.1226 -0.5588
   19MOL   C32411880   3.628   4.209   1.548 -0.4780  0.3618 -0.4988
   19MOL   C32511881   3.663   4.259   1.409 -0.5474 -0.2733  0.2477
   19MOL   C32611882   3.724   4.399   1.396 -0.5220  0.5847 -0.3848
   19MOL   C32711883   3.632   4.515   1.446  0.0469 -0.2889  0.3831
   19MOL   C32811884   3.528   4.579   1.353 -0.8039 -0.8008 -0.1326
   19MOL   O32911885   3.498   4.697   1.371 -0.0519  0.0372  0.3772
   19MOL   N33011886   3.479   4.504   1.253  0.2247  0.5015 -1.2461
   19MOL   C33111887   3.392   4.550   1.145 -0.7744  0.5733 -0.4995
   19MOL   C33211888   3.248   4.519   1.188 -0.4698 -0.0225  0.1237
   19MOL   C33311889   3.140   4.567   1.083  0.1008 -1.1380 -0.1292
   19MOL   C33411890   3.131   4.717   1.074 -0.6852 -0.3369  0.5044
   19MOL   N33511891   3.011   4.768   1.012 -1.3420 -0.3212 -0.3045
   19MOL   H33611892   3.582   4.110   1.554  0.9611 -0.4645 -2.5637
   19MOL   H33711893   3.545   4.267   1.588 -0.1977 -0.7499  1.7616
   19MOL   H33811894   3.727   4.187   1.358 -1.0847 -1.4653  1.2208
   19MOL   H33911895   3.572   4.258   1.350 -0.7026 -2.4692  0.4881
   19MOL   H34011896   3.735   4.407   1.288  2.3887  0.3360 -0.1609
   19MOL   H34111897   3.826   4.402   1.434  0.0096 -0.3401 -1.7022
   19MOL   H34211898   3.704   4.593   1.468 -1.7405  0.9579  1.9666
   19MOL   H34311899   3.574   4.483   1.533 -0.3410  0.5290  0.4271
   19MOL   H34411900   3.514   4.409   1.249  0.1405  0.3991  0.2846
   19MOL   H34511901   3.411   4.488   1.057  1.7236  4.6461 -2.9864
   19MOL   H34611902   3.414   4.651   1.110  1.2901  0.0810 -0.6417
   19MOL   H34711903   3.251   4.410   1.189 -1.9819 -0.0582  0.9662
   19MOL   H34811904   3.227   4.557   1.288  0.4957  0.5437  0.1232
   19MOL   H34911905   3.051   4.534   1.136  0.7571 -2.2542  0.2814
   19MOL   H35011906   3.148   4.512   0.989  2.1199 -1.3208  0.1301
   19MOL   H35111907   3.215   4.758   1.018 -3.3824  1.9226 -1.9824
   19MOL   H35211908   3.148   4.756   1.174  1.5562  2.3956 -0.8973
   19MOL   H35311909   3.027   4.805   0.919  1.3320 -1.8605 -0.5113
   19MOL   C35411910   2.903   4.802   1.078 -0.3670 -0.3226 -0.0023
   19MOL   O35511911   2.885   4.765   1.196 -0.7299 -0.4428 -0.1258
   19MOL   C35611912   2.805   4.895   1.013 -0.4571  0.4888  0.6365
   19MOL   C35711913   2.694   4.959   1.109 -0.5906 -0.1860  0.2363
   19MOL   C35811914   2.751   5.051   1.227  0.1019  0.1813 -0.2731
   19MOL   C35911915   2.653   5.063   1.344  0.2854 -0.1032  0.3594
   19MOL   C36011916   2.525   5.137   1.303  0.7808 -0.7399 -1.2992
   19MOL   O36111917   2.524   5.263   1.297 -0.2879 -0.1691 -0.4346
   19MOL   N36211918   2.413   5.066   1.287 -0.2129  0.5961  0.3652
   19MOL   C36311919   2.281   5.118   1.246  0.0509  0.3037  0.5075
   19MOL   C36411920   2.216   5.212   1.354 -0.4896  0.1475  0.3149
   19MOL   C36511921   2.065   5.194   1.364 -0.7950 -0.1924 -0.1590
   19MOL   C36611922   2.000   5.319   1.431  0.3578  0.6692  0.1612
   19MOL   N36711923   1.850   5.299   1.435 -0.8826 -0.5996 -0.0620
   19MOL   H36811924   2.869   4.967   0.961 -1.1519  1.1848  0.7376
   19MOL   H36911925   2.751   4.841   0.936  0.3358  0.8644 -0.1904
   19MOL   H37011926   2.628   5.024   1.050 -0.8011  0.2269  0.9219
   19MOL   H37111927   2.634   4.882   1.156  0.2151 -1.6519 -1.0769
   19MOL   H37211928   2.785   5.149   1.194  2.2163 -0.3515  0.2133
   19MOL   H37311929   2.839   4.999   1.265  0.7952  1.7152  0.2494
   19MOL   H37411930   2.700   5.126   1.419  1.4500  0.2596 -0.6566
   19MOL   H37511931   2.626   4.974   1.400 -1.9075  1.1273  1.3395
   19MOL   H37611932   2.430   4.968   1.306  0.2873  0.7440  0.7011
   19MOL   H37711933   2.222   5.027   1.236 -2.6626  2.1581 -1.0283
   19MOL   H37811934   2.282   5.172   1.151 -3.2330  0.6000  0.5907
   19MOL   H37911935   2.255   5.195   1.455 -0.3724  1.8996  0.5806
   19MOL   H38011936   2.248   5.313   1.329  1.0042 -0.5222 -0.5980
   19MOL   H38111937   2.050   5.107   1.429 -1.2640  0.1918  0.2419
   19MOL   H38211938   2.027   5.181   1.263  1.0164 -0.7778 -0.7965
   19MOL   H38311939   2.017   5.419   1.391  0.8309  0.0957 -1.0979
   19MOL   H38411940   2.038   5.315   1.533 -0.1184 -0.9202  0.2913
   19MOL   H38511941   1.797   5.314   1.350 -0.5864  1.4139  0.0962
   19MOL   C38611942   1.789   5.225   1.532 -0.3704 -0.5638  0.0724
   19MOL   O38711943   1.847   5.187   1.636  0.5063  0.3391 -0.1470
   19MOL   C38811944   1.647   5.183   1.508 -0.3102  0.2263  0.7183
   19MOL   C38911945   1.613   5.044   1.558  0.0574  0.0477 -0.5289
   19MOL   C39011946   1.646   4.933   1.455  0.2175 -0.2206  0.1433
   19MOL   C39111947   1.536   4.827   1.439  0.3656 -0.0348 -0.0181
   19MOL   C39211948   1.587   4.702   1.363  0.1996 -0.7537  0.2041
   19MOL   O39311949   1.635   4.721   1.250  0.4156  0.4721  0.1791
   19MOL   N39411950   1.586   4.585   1.433 -0.4880 -0.7864 -0.6372
   19MOL   C39511951   1.616   4.450   1.389  0.1114 -0.3950 -0.3981
   19MOL   C39611952   1.767   4.420   1.405  0.1052 -0.8381  0.5201
   19MOL   C39711953   1.828   4.419   1.545  0.2434  0.1209  0.6492
   19MOL   C39811954   1.963   4.342   1.548  0.4104 -0.6610 -0.0001
   19MOL   N39911955   2.069   4.418   1.475 -0.2712  0.5634 -0.0735
   19MOL   H40011956   1.580   5.248   1.564 -1.1817 -1.4863  1.6976
   19MOL   H40111957   1.608   5.188   1.407  1.1498 -1.3112  0.0458
   19MOL   H40211958   1.657   5.015   1.654  0.2112  0.7150 -0.3968
   19MOL   H40311959   1.510   5.023   1.587 -0.0623  1.5777  0.1814
   19MOL   H40411960   1.740   4.881   1.476 -0.0308  0.3137  2.8022
   19MOL   H40511961   1.655   4.982   1.359  0.3612  0.8005  0.6749
   19MOL   H40611962   1.447   4.862   1.386  2.0709  4.3327 -0.2172
   19MOL   H40711963   1.509   4.792   1.539 -2.8229  0.0831 -0.7754
   19MOL   H40811964   1.544   4.595   1.524 -3.1131 -2.7773 -1.5772
   19MOL   H40911965   1.587   4.449   1.284 -2.4497 -0.1210  0.2724
   19MOL   H41011966   1.560   4.384   1.455  2.0935  0.6258  2.4455
   19MOL   H41111967   1.782   4.324   1.355 -0.4462  0.6140 -2.5929
   19MOL   H41211968   1.824   4.486   1.339 -0.3679 -2.3136 -1.4311
   19MOL   H41311969   1.756   4.375   1.614  0.2808  0.1224  0.6890
   19MOL   H41411970   1.850   4.520   1.577  0.4704  0.4135 -0.4216
   19MOL   H41511971   1.937   4.248   1.501  3.5339 -0.6650 -1.8872
   19MOL   H41611972   1.995   4.324   1.651 -0.8880  0.8404  0.6961
   19MOL   H41711973   2.110   4.496   1.525  1.4519 -0.1547 -0.3310
   19MOL   C41811974   2.103   4.403   1.346 -0.0774  0.3903  0.4667
   19MOL   O41911975   2.041   4.327   1.271 -0.6323  0.2180 -0.4052
   19MOL   C42011976   2.220   4.486   1.289 -0.2937  0.3981 -0.4558
   19MOL   C42111977   2.304   4.403   1.189 -0.1825 -0.4078 -0.3896
   19MOL   C42211978   2.413   4.482   1.111 -0.1836  0.0846 -0.2980
   19MOL   C42311979   2.444   4.425   0.974 -0.4513  0.1982 -0.6754
   19MOL   C42411980   2.552   4.502   0.895  0.1211 -0.0076 -0.0995
   19MOL   O42511981   2.658   4.531   0.948 -0.1142  0.2021  0.1290
   19MOL   N42611982   2.527   4.523   0.765  0.3190  0.0579  0.9337
   19MOL   C42711983   2.617   4.609   0.687  0.1546 -0.3998 -0.3019
   19MOL   C42811984   2.717   4.539   0.591 -0.2617 -0.4441  0.2728
   19MOL   C42911985   2.816   4.441   0.645  0.4480  0.5447 -0.3497
   19MOL   C43011986   2.927   4.505   0.731 -0.1032 -0.1095 -0.3158
   19MOL   N43111987   3.033   4.407   0.753  0.1526 -0.1341  0.5598
   19MOL   H43211988   2.185   4.580   1.247  0.2561  0.8683  0.1252
   19MOL   H43311989   2.285   4.511   1.373  0.2910 -0.3902 -0.6712
   19MOL   H43411990   2.348   4.317   1.240  1.4301  0.3799 -0.4160
   19MOL   H43511991   2.236   4.372   1.110  0.6921 -2.6565 -0.2824
   19MOL   H43611992   2.504   4.483   1.171  0.1716 -1.6460 -0.7746
   19MOL   H43711993   2.379   4.585   1.104  0.4717  0.2797 -0.6991
   19MOL   H43811994   2.352   4.433   0.916 -0.5977 -0.0162 -0.4775
   19MOL   H43911995   2.467   4.318   0.983 -0.1587  0.3949  1.2320
   19MOL   H44011996   2.446   4.483   0.720  1.5615 -3.1422  1.4284
   19MOL   H44111997   2.665   4.688   0.745  0.5444 -0.4534 -0.5465
   19MOL   H44211998   2.548   4.676   0.634 -0.0661  0.8741  1.5350
   19MOL   H44311999   2.653   4.486   0.520  0.1752 -0.1221 -0.3641
   19MOL   H44412000   2.772   4.619   0.542 -1.3457  0.1832  0.0571
   19MOL   H44512001   2.867   4.392   0.562  0.4539 -1.6531  0.8978
   19MOL   H44612002   2.762   4.365   0.703 -1.5315  0.8132 -1.7889
   19MOL   H44712003   2.889   4.537   0.828 -1.1775 -3.5357  0.4390
   19MOL   H44812004   2.960   4.598   0.684  1.6590  0.0760  1.2186
   19MOL   H44912005   3.009   4.318   0.795  0.8825 -0.3376  0.5578
   19MOL   C45012006   3.162   4.416   0.710  0.1191 -0.6287 -0.7308
   19MOL   O45112007   3.220   4.311   0.713  0.2685  0.5322  0.3728
   19MOL   C45212008   3.232   4.545   0.667  0.1255  1.0507 -0.2812
   19MOL   C45312009   3.384   4.551   0.678 -0.4345  0.3806  0.0855
   19MOL   C45412010   3.454   4.463   0.578 -0.6153  0.1200  0.6252
   19MOL   C45512011   3.610   4.471   0.608  0.6910  0.0968  0.1429
   19MOL   C45612012   3.700   4.408   0.502 -0.2096  0.3500  0.7035
   19MOL   O45712013   3.655   4.350   0.407 -0.3035 -0.1859 -0.3549
   19MOL   N45812014   3.825   4.443   0.508 -0.0377 -0.2702 -0.1422
   19MOL   C45912015   3.934   4.408   0.419  0.1727 -0.6416  0.0031
   19MOL   C46012016   4.055   4.342   0.497  0.3177  0.2460  0.1129
   19MOL   C46112017   4.023   4.233   0.602  0.4353 -0.1339 -0.2190
   19MOL   C46212018   3.975   4.106   0.530 -0.7632 -0.3356 -0.7641
   19MOL   N46312019   3.928   4.007   0.625 -0.1026 -0.6027  0.2647
   19MOL   H46412020   3.195   4.572   0.569 -1.5949  1.9558  0.5951
   19MOL   H46512021   3.199   4.626   0.732 -0.6676  0.3897  0.1546
   19MOL   H46612022   3.411   4.654   0.656  0.3644  0.4609  1.3859
   19MOL   H46712023   3.396   4.519   0.782 -2.7084  2.9028  1.2048
   19MOL   H46812024   3.428   4.488   0.475 -1.4968  0.8118  1.0048
   19MOL   H46912025   3.427   4.358   0.589  1.3060 -0.7365 -2.1510
   19MOL   H47012026   3.635   4.421   0.702 -0.7984  0.0685  0.5377
   19MOL   H47112027   3.645   4.574   0.617  2.7398 -0.6434  0.8832
   19MOL   H47212028   3.858   4.492   0.590  2.0329 -4.9405  2.0512
   19MOL   H47312029   3.962   4.495   0.360  0.2874 -0.1066  0.8406
   19MOL   H47412030   3.891   4.338   0.347 -2.9352  0.5758  0.5726
   19MOL   H47512031   4.125   4.308   0.420  1.0177  0.3554  0.7005
   19MOL   H47612032   4.117   4.413   0.551  0.2854  1.9421 -2.0048
   19MOL   H47712033   3.939   4.264   0.665  0.0323 -1.6658  0.0331
   19MOL   H47812034   4.111   4.207   0.660 -0.8962 -2.2591  0.9077
   19MOL   H47912035   4.056   4.071   0.466  0.0421  0.8569 -0.4301
   19MOL   H48012036   3.890   4.125   0.464  0.5920 -2.0594 -3.0760
   19MOL   H48112037   3.830   4.009   0.649 -0.1406  0.9034  0.0485
   19MOL   C48212038   3.992   3.901   0.673 -0.1352  0.8339 -0.1757
   19MOL   O48312039   4.114   3.884   0.658 -0.5496 -0.2269 -0.5881
   19MOL   C48412040   3.915   3.791   0.736  0.3219  1.0440 -0.3665
   19MOL   C48512041   3.990   3.726   0.857 -0.4677 -0.4878  0.3651
   19MOL   C48612042   4.013   3.816   0.977  0.7722 -0.8056 -0.1769
   19MOL   C48712043   4.105   3.761   1.083  0.0275  0.0563  0.8512
   19MOL   C48812044   4.245   3.740   1.032  0.3949 -0.5733 -0.3081
   19MOL   O48912045   4.319   3.835   1.027  0.1282 -0.0770  0.1488
   19MOL   N49012046   4.269   3.618   0.987 -1.3542  0.3823  0.2383
   19MOL   C49112047   4.379   3.578   0.904  0.4801 -0.0973  0.6111
   19MOL   C49212048   4.402   3.424   0.899  0.7156  0.4298  0.8115
   19MOL   C49312049   4.420   3.357   1.032 -0.3562 -0.3141  0.3356
   19MOL   C49412050   4.450   3.211   1.010 -0.7119 -0.0292  0.3838
   19MOL   N49512051   4.570   3.195   0.931 -0.1246 -0.5966  0.4310
   19MOL   H49612052   3.832   3.843   0.785 -1.1184  0.4644 -2.1439
   19MOL   H49712053   3.867   3.729   0.660 -1.2592  0.4924  1.0480
   19MOL   H49812054   3.928   3.647   0.901  0.8844 -1.8489 -0.1125
   19MOL   H49912055   4.081   3.678   0.819 -0.8123 -0.4823 -0.4845
   19MOL   H50012056   3.920   3.846   1.023  1.4255  1.0977 -0.0469
   19MOL   H50112057   4.038   3.920   0.952 -1.1277 -0.0482  0.9946
   19MOL   H50212058   4.066   3.664   1.114  1.0819 -0.3672  0.8671
   19MOL   H50312059   4.100   3.819   1.175 -0.5537  1.1627  0.1271
   19MOL   H50412060   4.193   3.551   0.992 -1.1656  0.1105 -0.4461
   19MOL   H50512061   4.471   3.629   0.931 -0.7629  1.6293  1.6724
   19MOL   H50612062   4.362   3.611   0.801  0.5741 -2.8352 -0.3274
   19MOL   H50712063   4.325   3.376   0.838  1.6151 -0.7492  0.5832
   19MOL   H50812064   4.501   3.419   0.852  1.1787 -0.7252  1.8697
   19MOL   H50912065   4.332   3.360   1.095 -1.6148 -1.1979 -1.3417
   19MOL   H51012066   4.506   3.402   1.082  0.1270  1.3169 -1.8437
   19MOL   H51112067   4.363   3.160   0.969 -0.3181  0.4965 -1.1145
   19MOL   H51212068   4.466   3.164   1.108 -1.9545 -0.1695  0.5227
   19MOL   H51312069   4.647   3.249   0.969  0.5576 -3.2370  3.0149
   19MOL   C51412070   4.584   3.119   0.821 -1.3383  0.0270 -0.2785
   19MOL   O51512071   4.503   3.030   0.799 -0.4693  0.1448 -0.1632
   19MOL   C51612072   4.706   3.136   0.730 -0.1860  0.1453 -0.0684
   19MOL   C51712073   4.670   3.167   0.588 -0.0015  0.4543 -0.3970
   19MOL   C51812074   4.605   3.300   0.550  0.2564  0.2095  0.5501
   19MOL   C51912075   4.585   3.322   0.398 -0.8686 -0.0808  0.6369
   19MOL   C52012076   4.533   3.458   0.367 -0.5463 -0.5663  0.0399
   19MOL   O52112077   4.611   3.548   0.336  0.5153 -0.1015 -0.3553
   19MOL   N52212078   4.403   3.461   0.364 -0.2320 -0.2579  0.3948
   19MOL   C52312079   4.327   3.591   0.365  0.1547  0.3802 -0.3032
   19MOL   C52412080   4.270   3.631   0.504  0.2974  0.1870  1.1232
   19MOL   C52512081   4.183   3.520   0.563  0.4865 -0.4374 -0.3164
   19MOL   C52612082   4.047   3.497   0.482 -0.3597 -0.0627 -0.0358
   19MOL   N52712083   3.980   3.369   0.504  0.3186  0.1638  0.1764
   19MOL   H52812084   4.760   3.228   0.753 -0.7321  0.1926  1.0361
   19MOL   H52912085   4.777   3.054   0.744  2.4814  1.7912 -3.2241
   19MOL   H53012086   4.766   3.163   0.537 -0.3055  0.0113 -0.9389
   19MOL   H53112087   4.607   3.090   0.544 -1.7099  1.7310 -0.1994
   19MOL   H53212088   4.667   3.374   0.601 -0.1082 -0.4514  1.9916
   19MOL   H53312089   4.506   3.321   0.591 -1.2358 -1.6589 -1.9112
   19MOL   H53412090   4.547   3.230   0.353 -0.8623  0.1143  0.2319
   19MOL   H53512091   4.684   3.324   0.353 -1.1711 -2.1480 -0.2165
   19MOL   H53612092   4.345   3.383   0.390  0.0931 -1.4168 -2.1762
   19MOL   H53712093   4.238   3.569   0.305 -1.0222 -1.5409  2.0245
   19MOL   H53812094   4.390   3.674   0.337  1.8865 -1.3413 -1.6149
   19MOL   H53912095   4.356   3.665   0.562  0.7004 -1.4834  1.5348
   19MOL   H54012096   4.207   3.720   0.497 -0.4886 -0.2794  2.0748
   19MOL   H54112097   4.160   3.541   0.668 -1.1641 -0.4028 -0.6609
   19MOL   H54212098   4.247   3.433   0.578  2.2698  0.7752 -0.7577
   19MOL   H54312099   4.058   3.502   0.374  0.9821 -0.5061  0.0724
   19MOL   H54412100   3.979   3.576   0.516 -0.3989 -0.2463  0.3191
   19MOL   H54512101   4.023   3.284   0.471 -2.7241 -0.9693 -1.0544
   19MOL   C54612102   3.855   3.352   0.548  0.3082  0.8576  0.4459
   19MOL   O54712103   3.789   3.451   0.585  0.3639  0.3637  0.5863
   19MOL   C54812104   3.800   3.212   0.567  0.1118 -0.5032  0.0861
   19MOL   C54912105   3.702   3.170   0.465 -0.3934 -0.5134  0.1630
   19MOL   C55012106   3.555   3.159   0.517 -0.0048  0.0921 -0.2140
   19MOL   C55112107   3.456   3.135   0.402 -0.2348  0.5939 -0.1924
   19MOL   C55212108   3.318   3.102   0.439  0.4745 -0.0365 -0.5213
   19MOL   O55312109   3.241   3.183   0.482  0.4974  0.3476  0.3251
   19MOL   N55412110   3.281   2.974   0.410  0.9710  0.4086  0.2041
   19MOL   C55512111   3.142   2.920   0.421  0.5710 -0.6071  0.1094
   19MOL   C55612112   3.063   2.942   0.290 -0.3776  0.3210 -0.1740
   19MOL   C55712113   2.932   2.875   0.275  0.1904  0.4245  0.5472
   19MOL   C55812114   2.824   2.914   0.377  0.3769 -0.2605 -0.0260
   19MOL   N55912115   2.699   2.838   0.366 -0.4363  0.7591  0.1825
   19MOL   H56012116   3.883   3.143   0.579  0.4160 -0.3208 -0.8911
   19MOL   H56112117   3.760   3.206   0.668 -3.3915  0.5570 -1.1513
   19MOL   H56212118   3.711   3.246   0.387  0.2128 -1.6256 -0.8454
   19MOL   H56312119   3.719   3.074   0.417  0.1803  0.1770 -1.0346
   19MOL   H56412120   3.522   3.243   0.577  1.3091  1.2541 -1.0998
   19MOL   H56512121   3.555   3.071   0.582 -2.6392  1.5258  1.7936
   19MOL   H56612122   3.500   3.066   0.330 -2.0443  1.5188 -2.2328
   19MOL   H56712123   3.449   3.229   0.347 -2.2401  0.2276 -0.5866
   19MOL   H56812124   3.343   2.919   0.352 -1.6184 -0.6892 -1.5898
   19MOL   H56912125   3.084   2.960   0.504 -0.7131  0.1356 -1.1055
   19MOL   H57012126   3.159   2.815   0.442  2.8090 -0.9326 -2.9455
   19MOL   H57112127   3.050   3.050   0.277 -1.1027  0.1528 -0.8333
   19MOL   H57212128   3.130   2.912   0.209 -0.9535 -0.5854 -0.3187
   19MOL   H57312129   2.952   2.769   0.290  0.1553  0.2836 -0.3781
   19MOL   H57412130   2.880   2.879   0.179 -0.1580  0.0628  0.7188
   19MOL   H57512131   2.807   3.021   0.368  0.9136  0.2389  4.0326
   19MOL   H57612132   2.861   2.907   0.479  0.6518  2.8165  0.1378
   19MOL   H57712133   2.699   2.756   0.307 -0.8669  0.7150  0.2372
   19MOL   C57812134   2.607   2.851   0.463  0.2410 -0.4975  0.3861
   19MOL   O57912135   2.613   2.936   0.558 -0.4677 -0.7437 -0.1998
   19MOL   C58012136   2.487   2.758   0.456 -0.1634  0.6174 -0.2141
   19MOL   C58112137   2.350   2.834   0.461  0.2686 -0.0043  0.3947
   19MOL   C58212138   2.332   2.921   0.334  0.1277 -0.4189 -0.0396
   19MOL   C58312139   2.188   2.980   0.328  0.1900  0.0921 -0.5899
   19MOL   C58412140   2.167   3.080   0.210  0.4413 -0.1930  0.1176
   19MOL   O58512141   2.254   3.156   0.175 -0.0684 -0.0250  0.2133
   19MOL   N58612142   2.044   3.076   0.159  0.5820  0.2621 -0.0029
   19MOL   C58712143   1.987   3.160   0.062  0.0213 -0.0415 -0.5030
   19MOL   C58812144   1.934   3.291   0.115 -0.5285 -0.0554 -0.2699
   19MOL   C58912145   1.863   3.365   0.004 -0.4056 -0.2410  0.0178
   19MOL   C59012146   1.800   3.499   0.049 -0.2698  0.0016 -0.2825
   19MOL   N59112147   1.904   3.594   0.086 -0.4747  0.0818  0.5673
   19MOL   H59212148   2.498   2.689   0.372  3.1680  0.3219  0.3976
   19MOL   H59312149   2.489   2.699   0.548 -1.9120 -2.0368 -1.7947
   19MOL   H59412150   2.275   2.755   0.464  0.6166 -0.4154 -1.0707
   19MOL   H59512151   2.344   2.901   0.547  0.6729  2.0712 -1.1520
   19MOL   H59612152   2.346   2.858   0.246  0.0145 -1.1889  0.4857
   19MOL   H59712153   2.400   3.007   0.336  1.2734 -1.0309 -4.9414
   19MOL   H59812154   2.161   3.034   0.418  2.3230 -1.4888  1.0400
   19MOL   H59912155   2.116   2.899   0.322 -1.5955  1.6718 -1.1592
   19MOL   H60012156   1.975   3.015   0.202 -1.9694  3.2070  0.3077
   19MOL   H60112157   1.894   3.119   0.021  0.3156  0.5019 -1.7291
   19MOL   H60212158   2.058   3.163   7.681  1.7120  1.1582  0.9698
   19MOL   H60312159   1.860   3.272   0.193 -0.0115  0.1721  0.2821
   19MOL   H60412160   2.011   3.356   0.157 -2.6112  1.0918  1.8805
   19MOL   H60512161   1.792   3.308   7.644 -2.2322  1.6128  0.3422
   19MOL   H60612162   1.936   3.396   7.631 -0.0496 -0.1795  0.3954
   19MOL   H60712163   1.735   3.484   0.136  0.8617 -0.9627  0.4153
   19MOL   H60812164   1.735   3.550   7.679 -1.2890 -0.4685  0.3007
   19MOL   H60912165   1.934   3.588   0.182 -2.2323  1.7067  1.2483
   19MOL   C61012166   1.942   3.693   0.003  0.2011 -0.1033  0.0840
   19MOL   O61112167   1.900   3.706   7.588 -0.2867 -0.7673 -0.4594
   19MOL   C61212168   2.051   3.787   0.058 -0.5051 -0.5422  0.4049
   19MOL   C61312169   2.136   3.840   7.646 -0.5899 -0.1832 -0.2161
   19MOL   C61412170   2.251   3.943   7.688  0.2430  0.1754  0.1171
   19MOL   C61512171   2.201   4.063   0.072 -0.5528  0.1155  0.0287
   19MOL   C61612172   2.263   4.196   0.025 -0.1703 -0.0954 -0.5504
   19MOL   O61712173   2.349   4.254   0.095  0.3699 -0.1325 -0.0061
   19MOL   N61812174   2.220   4.253   7.613  0.9708  0.4111 -0.3259
   19MOL   C61912175   2.262   4.377   7.545 -0.1175  0.5088  0.5636
   19MOL   C62012176   2.169   4.495   7.573  0.1231  0.0788  0.1514
   19MOL   C62112177   2.211   4.633   7.528  0.0178  0.0040 -0.7578
   19MOL   C62212178   2.215   4.655   7.373 -0.3478  0.1266  0.0863
   19MOL   N62312179   2.334   4.602   7.320 -0.3881 -0.1241 -0.1384
   19MOL   H62412180   2.002   3.869   0.111 -1.7141 -0.5067 -0.7238
   19MOL   H62512181   2.115   3.732   0.127 -0.5381  0.8193  1.5404
   19MOL   H62612182   2.184   3.767   7.581 -1.1443 -0.0586 -0.7767
   19MOL   H62712183   2.076   3.893   7.572  0.1767  0.5047 -0.3643
   19MOL   H62812184   2.306   3.969   7.598  0.6315  0.6373  0.4890
   19MOL   H62912185   2.320   3.894   0.055  0.2201  0.1391  0.1134
   19MOL   H63012186   2.217   4.057   0.179  1.5000  3.4413 -0.0343
   19MOL   H63112187   2.095   4.076   0.052 -0.4554 -1.4202 -1.6860
   19MOL   H63212188   2.159   4.198   7.556  0.7970 -1.3960  1.5227
   19MOL   H63312189   2.255   4.355   7.438  0.4476 -0.1420  0.6598
   19MOL   H63412190   2.362   4.397   7.582 -0.6536  1.8501  1.3339
   19MOL   H63512191   2.069   4.485   7.530  0.0640 -2.2425  0.7329
   19MOL   H63612192   2.167   4.509   7.681  1.4867  0.4123  0.1338
   19MOL   H63712193   2.312   4.654   7.564  0.2483 -0.5517 -1.0666
   19MOL   H63812194   2.132   4.695   7.570  1.0581  0.9246 -0.1404
   19MOL   H63912195   2.222   4.760   7.348  0.4397  0.0658  0.0217
   19MOL   H64012196   2.128   4.618   7.319 -0.6706 -0.2128  0.8301
   19MOL   H64112197   2.417   4.644   7.358 -1.0280 -0.5504  1.7716
   19MOL   H64212198   2.340   4.504   7.341  0.4460  0.1237  0.7986
   20MOL     C112199   6.788   3.779   4.558 -0.4921 -0.8079 -0.1379
   20MOL     O212200   6.824   3.676   4.504 -0.0809  0.4208  0.0398
   20MOL     C312201   6.660   3.781   4.632  0.4001 -0.8612 -1.0365
   20MOL     C412202   6.671   3.825   4.779  0.7471 -0.2183 -0.5668
   20MOL     C512203   6.742   3.729   4.875 -0.6678 -0.4289 -0.0215
   20MOL     C612204   6.720   3.763   5.015  0.0615 -0.8062 -0.5310
   20MOL     C712205   6.796   3.679   5.118  0.5227  0.2405  0.3013
   20MOL     O812206   6.919   3.666   5.110 -0.1289 -0.1872 -0.0675
   20MOL     N912207   6.716   3.619   5.210  0.4251 -0.3469  0.4205
   20MOL    C1012208   6.764   3.542   5.323 -0.0374  0.0787  0.6087
   20MOL    C1112209   6.841   3.412   5.285 -0.1486 -0.0691  0.8904
   20MOL    C1212210   6.881   3.319   5.406  0.4156 -0.7968  0.6467
   20MOL    C1312211   6.944   3.191   5.365 -0.3209  0.2159  0.0495
   20MOL    N1412212   6.921   3.096   5.477  0.0714  0.0514 -0.3006
   20MOL    H1512213   6.604   3.868   4.596  2.3495  1.4545  1.2868
   20MOL    H1612214   6.605   3.689   4.613 -2.5961  0.9952 -1.6437
   20MOL    H1712215   6.720   3.920   4.798  1.3397 -0.3654 -1.3176
   20MOL    H1812216   6.569   3.849   4.810  0.8401  0.8010 -1.0386
   20MOL    H1912217   6.850   3.731   4.859 -0.4334 -2.3850  1.0717
   20MOL    H2012218   6.738   3.621   4.859  0.4447 -1.3319  4.7647
   20MOL    H2112219   6.613   3.764   5.033  0.1904 -2.1149  0.4211
   20MOL    H2212220   6.750   3.867   5.030  1.0585 -1.0835 -0.5637
   20MOL    H2312221   6.616   3.635   5.210  0.6266  0.9967  0.1531
   20MOL    H2412222   6.675   3.507   5.375 -2.1603  2.0435 -1.5164
   20MOL    H2512223   6.819   3.600   5.397 -1.7239  1.1978  1.0260
   20MOL    H2612224   6.771   3.351   5.228  1.3119 -1.3925  0.4855
   20MOL    H2712225   6.928   3.429   5.221 -1.1688 -2.9125 -1.3510
   20MOL    H2812226   6.787   3.307   5.460 -0.0215  2.3164  0.7025
   20MOL    H2912227   6.940   3.373   5.479  1.9446  0.2737 -1.3108
   20MOL    H3012228   7.049   3.203   5.338 -0.6603 -0.4266 -1.6351
   20MOL    H3112229   6.892   3.154   5.277 -0.3403  0.7673 -0.1742
   20MOL    H3212230   6.893   3.126   5.569  0.2405  0.4763 -0.3901
   20MOL    H3312231   6.826   3.877   4.531  0.1159 -0.9224  0.2948
   20MOL    C3412232   6.961   2.974   5.464  0.0139  0.7340 -0.5543
   20MOL    O3512233   7.017   2.935   5.362 -0.5254  0.2691 -0.7892
   20MOL    C3612234   6.938   2.866   5.572  0.0827 -0.2539  0.8478
   20MOL    C3712235   6.844   2.750   5.522 -0.1444 -0.1980 -0.2922
   20MOL    C3812236   6.899   2.658   5.422  0.0951  0.3128  0.4039
   20MOL    C3912237   6.839   2.515   5.419 -0.2379 -0.2424 -0.0066
   20MOL    C4012238   6.885   2.422   5.536  0.5069 -1.5981 -0.2229
   20MOL    O4112239   7.005   2.399   5.554 -0.0837  0.2510  0.0864
   20MOL    N4212240   6.794   2.378   5.621  0.0656 -0.1723 -0.6912
   20MOL    C4312241   6.821   2.306   5.746  0.0857 -0.8667 -0.0933
   20MOL    C4412242   6.798   2.401   5.865  0.5960 -0.3043  0.1881
   20MOL    C4512243   6.646   2.433   5.881 -0.4555 -0.1808 -0.4598
   20MOL    C4612244   6.626   2.545   5.990 -0.1554 -0.2458  0.2100
   20MOL    N4712245   6.485   2.566   6.020  0.3298 -0.2404 -0.5389
   20MOL    H4812246   7.035   2.834   5.612  0.2905 -0.6472  0.0387
   20MOL    H4912247   6.893   2.926   5.651  1.3047  0.8192  0.7392
   20MOL    H5012248   6.813   2.691   5.608  1.2850 -1.0329 -0.3450
   20MOL    H5112249   6.747   2.791   5.492 -0.2014 -0.7406 -0.8584
   20MOL    H5212250   7.008   2.658   5.427  0.0633 -2.0518  1.5059
   20MOL    H5312251   6.889   2.697   5.320  2.3698  1.6787  0.6714
   20MOL    H5412252   6.863   2.470   5.322  0.6982 -3.2646  1.5573
   20MOL    H5512253   6.731   2.520   5.432 -0.4581 -1.8700 -1.0166
   20MOL    H5612254   6.699   2.378   5.586 -0.7255 -1.3195  1.3795
   20MOL    H5712255   6.926   2.278   5.747  0.4995  0.5765  1.7369
   20MOL    H5812256   6.772   2.209   5.757 -2.9016  0.7956  2.2167
   20MOL    H5912257   6.825   2.355   5.960 -0.5162  0.3774  0.8561
   20MOL    H6012258   6.863   2.488   5.862 -2.0409  1.6889 -0.9141
   20MOL    H6112259   6.601   2.336   5.898 -0.3363  0.0443  1.2082
   20MOL    H6212260   6.602   2.463   5.786  1.1267 -0.3985 -1.2888
   20MOL    H6312261   6.671   2.642   5.971  0.5752 -0.5159  0.5082
   20MOL    H6412262   6.671   2.524   6.087 -2.2767 -1.5531  0.9332
   20MOL    H6512263   6.442   2.647   5.979 -1.1718 -1.3253 -1.1580
   20MOL    C6612264   6.399   2.485   6.082  0.0486 -0.9054  0.1076
   20MOL    O6712265   6.280   2.512   6.078  0.0958  0.2248 -0.2642
   20MOL    C6812266   6.450   2.354   6.145  0.3163 -0.4242  0.6723
   20MOL    C6912267   6.369   2.298   6.263 -0.5512  1.0478 -0.2928
   20MOL    C7012268   6.410   2.374   6.387 -0.1193 -0.6582  1.0061
   20MOL    C7112269   6.343   2.329   6.513  0.1113 -0.1440  0.2484
   20MOL    C7212270   6.366   2.418   6.639 -0.0464 -0.2217 -0.7106
   20MOL    O7312271   6.447   2.514   6.642  0.2191  0.0114  0.2753
   20MOL    N7412272   6.289   2.384   6.741  0.5477  0.8766 -0.2366
   20MOL    C7512273   6.270   2.462   6.858  0.5820  0.1526 -0.6598
   20MOL    C7612274   6.124   2.479   6.901 -0.1231  0.3783 -0.2837
   20MOL    C7712275   6.037   2.566   6.815 -0.5076  0.3645 -0.2744
   20MOL    C7812276   5.893   2.551   6.864 -0.1523 -0.3887  0.4180
   20MOL    N7912277   5.802   2.554   6.747 -0.0058 -0.1239 -0.5326
   20MOL    H8012278   6.429   2.292   6.058  2.5524  0.6504 -0.6699
   20MOL    H8112279   6.558   2.351   6.159  0.3748  0.2988  0.4029
   20MOL    H8212280   6.263   2.321   6.247 -1.0530 -0.7029  0.3263
   20MOL    H8312281   6.377   2.189   6.270 -3.1768  0.7366 -1.6343
   20MOL    H8412282   6.401   2.482   6.379 -1.6407 -0.7625  1.2656
   20MOL    H8512283   6.514   2.342   6.395  0.7336  1.4386 -1.0556
   20MOL    H8612284   6.364   2.225   6.541 -0.2018 -0.0883  0.6827
   20MOL    H8712285   6.239   2.318   6.484 -1.0091  1.5636  3.4023
   20MOL    H8812286   6.232   2.302   6.733 -1.8349  2.5482 -0.7866
   20MOL    H8912287   6.311   2.563   6.845  0.5293  0.2603 -0.0101
   20MOL    H9012288   6.314   2.405   6.940  2.3336  1.8036 -0.3955
   20MOL    H9112289   6.084   2.381   6.928 -1.5056  0.3917 -2.1382
   20MOL    H9212290   6.130   2.527   6.999  0.0109  1.2566 -0.7125
   20MOL    H9312291   6.050   2.531   6.713 -3.5417 -2.5793  0.2536
   20MOL    H9412292   6.073   2.669   6.823  0.1286  0.0527  0.9197
   20MOL    H9512293   5.864   2.633   6.929  0.1118 -0.7271  0.9613
   20MOL    H9612294   5.872   2.459   6.917 -0.4404  0.4508  1.7744
   20MOL    H9712295   5.838   2.556   6.652 -1.2491  1.0429 -0.9762
   20MOL    C9812296   5.673   2.572   6.768  0.7919  0.9672 -0.5764
   20MOL    O9912297   5.616   2.548   6.877  0.3444 -0.0205 -0.4918
   20MOL   C10012298   5.600   2.626   6.646  0.1967  0.1124  0.4474
   20MOL   C10112299   5.510   2.745   6.669 -0.2143  0.1785  0.4453
   20MOL   C10212300   5.588   2.863   6.722 -0.3644  0.2498  0.4494
   20MOL   C10312301   5.707   2.911   6.640  0.2768 -0.4623 -0.8967
   20MOL   C10412302   5.843   2.921   6.711  0.5052  0.4738 -0.2071
   20MOL   O10512303   5.859   2.898   6.828 -0.0287 -0.5664 -0.2214
   20MOL   N10612304   5.940   2.963   6.628  0.3944  0.0131 -0.0299
   20MOL   C10712305   6.083   2.960   6.665 -0.2177 -0.4314 -0.5978
   20MOL   C10812306   6.174   2.906   6.553 -0.8398  0.4744  0.3119
   20MOL   C10912307   6.172   2.752   6.550  0.0141  0.1366  0.0218
   20MOL   C11012308   6.200   2.685   6.416 -0.0081 -1.0126  0.3967
   20MOL   N11112309   6.144   2.558   6.396 -0.3032 -0.1475 -0.0950
   20MOL   H11212310   5.666   2.632   6.559 -1.0549  0.7242 -0.4620
   20MOL   H11312311   5.529   2.546   6.624 -0.8164  1.0939  0.0848
   20MOL   H11412312   5.460   2.759   6.573  0.3898  1.1425  0.2581
   20MOL   H11512313   5.429   2.715   6.734 -0.4348  0.2426  0.2005
   20MOL   H11612314   5.619   2.841   6.825  1.6234 -3.2198 -0.8110
   20MOL   H11712315   5.513   2.941   6.734  0.2518  0.8480  0.4511
   20MOL   H11812316   5.686   3.014   6.611  0.2597 -0.4897 -0.9791
   20MOL   H11912317   5.718   2.866   6.542  0.5913  1.5313 -1.8010
   20MOL   H12012318   5.916   2.974   6.531 -0.4523 -1.1732  0.0353
   20MOL   H12112319   6.099   2.904   6.758 -0.8610 -0.0399 -0.2498
   20MOL   H12212320   6.113   3.062   6.686  0.3458 -0.5346 -0.8782
   20MOL   H12312321   6.139   2.948   6.459 -4.7902 -0.0089  1.4587
   20MOL   H12412322   6.275   2.946   6.556  0.2276 -2.0989  0.0773
   20MOL   H12512323   6.069   2.725   6.570  0.3165  0.9216  2.8484
   20MOL   H12612324   6.230   2.701   6.626  2.0809  2.7643  0.2983
   20MOL   H12712325   6.307   2.692   6.394 -0.1796  1.3959  0.1966
   20MOL   H12812326   6.154   2.746   6.339 -1.4161 -1.7558  0.6417
   20MOL   H12912327   6.215   2.495   6.360 -0.4562 -0.4432  0.1214
   20MOL   C13012328   6.015   2.518   6.394  0.4709 -0.1817  0.1213
   20MOL   O13112329   5.925   2.595   6.424 -0.4997  0.5255 -0.3805
   20MOL   C13212330   5.975   2.377   6.332  0.0305  0.8415 -0.1490
   20MOL   C13312331   5.819   2.343   6.341  0.7526  0.1409 -0.2805
   20MOL   C13412332   5.782   2.278   6.476  0.2003  0.0653 -0.8427
   20MOL   C13512333   5.634   2.248   6.500  0.2129 -0.4947  0.0839
   20MOL   C13612334   5.603   2.206   6.645  0.3851 -0.2156 -0.0370
   20MOL   O13712335   5.678   2.126   6.704  0.1879 -0.1577  0.0896
   20MOL   N13812336   5.508   2.273   6.711 -0.0601 -0.5040  0.0183
   20MOL   C13912337   5.482   2.282   6.852 -0.3454  0.3568 -0.1192
   20MOL   C14012338   5.407   2.174   6.920  0.6016  0.4659  0.3413
   20MOL   C14112339   5.270   2.138   6.854  0.4529 -0.6459  0.4819
   20MOL   C14212340   5.153   2.237   6.883 -0.7772 -0.0365  0.2575
   20MOL   N14312341   5.106   2.227   7.021 -0.2923 -0.7113  0.0516
   20MOL   H14412342   6.001   2.382   6.227  2.6665  0.5675  0.4612
   20MOL   H14512343   6.022   2.287   6.371 -3.4132 -1.0764 -0.1620
   20MOL   H14612344   5.759   2.433   6.327 -0.4638 -0.6297 -0.0928
   20MOL   H14712345   5.806   2.281   6.252  1.4628  1.8824 -1.6385
   20MOL   H14812346   5.812   2.342   6.560 -1.2366  0.5122 -0.6555
   20MOL   H14912347   5.838   2.185   6.482  2.5252  1.4764  0.2114
   20MOL   H15012348   5.607   2.159   6.443 -0.2864 -1.5066  1.8891
   20MOL   H15112349   5.583   2.340   6.471  2.1199  0.6461  0.2660
   20MOL   H15212350   5.462   2.332   6.643 -0.6697 -0.8797  0.1039
   20MOL   H15312351   5.412   2.366   6.860  1.4083  1.8785 -0.5525
   20MOL   H15412352   5.577   2.298   6.902 -0.1112  0.0990 -0.4872
   20MOL   H15512353   5.470   2.085   6.921 -0.3180 -0.2035 -0.2909
   20MOL   H15612354   5.409   2.194   7.027 -0.4984 -0.0660  0.4690
   20MOL   H15712355   5.242   2.041   6.895  1.2018 -1.0439  0.0695
   20MOL   H15812356   5.278   2.133   6.746  0.7445  1.4205  0.3930
   20MOL   H15912357   5.062   2.223   6.824 -0.7900 -2.2501  0.7544
   20MOL   H16012358   5.183   2.341   6.870  0.1503 -0.5140 -1.6087
   20MOL   H16112359   5.114   2.143   7.076 -2.8264 -1.4138 -0.5758
   20MOL   C16212360   5.019   2.310   7.075  0.4104 -0.9945  0.6676
   20MOL   O16312361   4.976   2.411   7.019 -0.3608  0.3706 -0.0649
   20MOL   C16412362   4.975   2.279   7.216  0.1178  0.3784  0.6004
   20MOL   C16512363   5.052   2.362   7.317  0.6106 -0.0972  0.6784
   20MOL   C16612364   5.019   2.512   7.319  1.0546 -0.3484  0.6125
   20MOL   C16712365   4.895   2.527   7.408  0.0595  0.1178 -0.5461
   20MOL   C16812366   4.816   2.648   7.379 -0.1478  0.1726 -0.1146
   20MOL   O16912367   4.866   2.740   7.314 -0.2723  0.1500  0.3540
   20MOL   N17012368   4.696   2.661   7.439 -0.4487 -0.7793  0.1737
   20MOL   C17112369   4.615   2.777   7.438  0.0683 -0.6395  0.6587
   20MOL   C17212370   4.518   2.784   7.317 -0.0327 -0.2724 -0.2133
   20MOL   C17312371   4.391   2.863   7.346 -1.0233  0.1705  0.2861
   20MOL   C17412372   4.278   2.856   7.241 -0.8644 -0.1217 -0.1502
   20MOL   N17512373   4.229   2.719   7.230  0.0894 -0.2062 -0.0932
   20MOL   H17612374   4.871   2.312   7.222 -0.2237 -0.5690  0.0031
   20MOL   H17712375   4.985   2.172   7.229  2.3582  0.3001 -1.5236
   20MOL   H17812376   5.046   2.310   7.413  2.7861  0.4695  1.1274
   20MOL   H17912377   5.160   2.361   7.304  0.4644  0.5041 -0.6493
   20MOL   H18012378   5.001   2.552   7.219  1.6914  0.7688  0.9447
   20MOL   H18112379   5.109   2.565   7.349  1.8213 -2.0125  1.2920
   20MOL   H18212380   4.928   2.539   7.511 -0.5505 -3.3585  0.1016
   20MOL   H18312381   4.824   2.445   7.410 -1.7917  1.7078  0.6757
   20MOL   H18412382   4.680   2.592   7.512 -0.8353  0.0258  0.8675
   20MOL   H18512383   4.675   2.868   7.440 -2.3075  0.9724  0.1759
   20MOL   H18612384   4.560   2.766   7.531 -0.8121 -1.0276  0.0947
   20MOL   H18712385   4.557   2.813   7.219  0.3499  0.6173  0.1936
   20MOL   H18812386   4.484   2.685   7.286 -0.7044 -0.4365  1.0190
   20MOL   H18912387   4.419   2.967   7.362 -0.7177 -0.1366  1.8020
   20MOL   H19012388   4.353   2.835   7.444 -1.6100 -1.3136 -0.3520
   20MOL   H19112389   4.322   2.884   7.145 -0.4480 -0.7714 -0.1501
   20MOL   H19212390   4.191   2.920   7.256 -0.3026  0.1909  1.8258
   20MOL   H19312391   4.236   2.660   7.148 -0.2144 -2.0121  1.1616
   20MOL   C19412392   4.149   2.672   7.326  0.5606 -0.7605 -0.1712
   20MOL   O19512393   4.125   2.729   7.434 -0.5121 -0.1839  0.4171
   20MOL   C19612394   4.083   2.536   7.293 -0.5652  0.3431 -0.1222
   20MOL   C19712395   3.936   2.572   7.250  0.2862 -0.2206  0.1377
   20MOL   C19812396   3.839   2.601   7.363  0.1595 -0.8616 -0.3367
   20MOL   C19912397   3.692   2.644   7.322  0.5684  0.3232  0.6424
   20MOL   C20012398   3.610   2.688   7.445  0.8071  0.1695  0.0830
   20MOL   O20112399   3.626   2.631   7.553 -0.6051  0.1291  0.0808
   20MOL   N20212400   3.512   2.777   7.417 -0.0958 -0.6057  0.0036
   20MOL   C20312401   3.415   2.832   7.516 -0.0399 -0.4543  0.4626
   20MOL   C20412402   3.451   2.981   7.541 -0.2693  0.3240  0.5057
   20MOL   C20512403   3.412   3.026   7.682 -0.3560 -0.1596  0.0117
   20MOL   C20612404   3.460   3.176   0.001 -0.4445 -0.9818  0.4513
   20MOL   N20712405   3.605   3.181   0.032 -0.3611 -0.4746 -0.0111
   20MOL   H20812406   4.123   2.470   7.216 -1.8887 -0.3101 -0.2852
   20MOL   H20912407   4.076   2.479   7.386 -0.5148 -0.5277 -0.6476
   20MOL   H21012408   3.927   2.658   7.184 -1.1259  0.7433  1.5659
   20MOL   H21112409   3.889   2.490   7.194 -1.0434  0.0464  0.8415
   20MOL   H21212410   3.879   2.680   7.426 -0.0482  0.2709 -1.6028
   20MOL   H21312411   3.829   2.517   7.432 -1.2459 -1.8717 -1.7219
   20MOL   H21412412   3.635   2.562   7.279 -0.6269  0.5314  1.7990
   20MOL   H21512413   3.700   2.723   7.247 -0.3840 -0.7890 -0.6486
   20MOL   H21612414   3.501   2.811   7.323 -0.0097  1.6708  0.7929
   20MOL   H21712415   3.407   2.779   7.611 -0.8454  1.5257  1.5466
   20MOL   H21812416   3.314   2.821   7.476 -0.1106 -0.7333  0.7169
   20MOL   H21912417   3.559   2.994   7.535 -0.0813 -1.2299  0.3588
   20MOL   H22012418   3.408   3.045   7.463 -1.4690 -0.9070  0.1374
   20MOL   H22112419   3.455   2.958   0.055  0.3924  1.1362  0.7778
   20MOL   H22212420   3.306   3.019   0.009 -0.2629 -1.8067  0.0062
   20MOL   H22312421   3.402   3.210   0.087 -2.5427 -4.2926  0.4612
   20MOL   H22412422   3.429   3.232   7.614 -0.3762 -0.5304  0.7140
   20MOL   H22512423   3.662   3.104   0.000  0.6787  0.5161 -0.6104
   20MOL   C22612424   3.674   3.286   0.077  0.2683  0.0325 -0.0756
   20MOL   O22712425   3.616   3.392   0.086 -0.1685  0.8969 -0.3441
   20MOL   C22812426   3.824   3.267   0.106 -0.4720 -0.7309 -0.5814
   20MOL   C22912427   3.882   3.385   0.187  0.0931  0.5639 -0.1395
   20MOL   C23012428   3.949   3.501   0.106  0.0777 -0.2696  0.5397
   20MOL   C23112429   3.853   3.582   0.020  0.1953 -0.3869  0.3287
   20MOL   C23212430   3.847   3.531   7.579  0.2675 -0.7534 -0.0629
   20MOL   O23312431   3.946   3.540   7.507  0.0190  0.1153  0.1669
   20MOL   N23412432   3.729   3.485   7.540 -0.1764 -0.1117  0.3787
   20MOL   C23512433   3.698   3.430   7.408  0.0348 -0.1647 -0.0865
   20MOL   C23612434   3.551   3.472   7.366  0.5405  0.3216  0.6847
   20MOL   C23712435   3.508   3.444   7.221 -0.3732  0.6536 -0.7527
   20MOL   C23812436   3.608   3.516   7.121 -0.0512  0.8635  0.0720
   20MOL   N23912437   3.575   3.489   6.978 -0.3060  0.3283  0.0481
   20MOL   H24012438   3.830   3.175   0.164  0.2053 -1.0434 -1.1411
   20MOL   H24112439   3.880   3.263   0.013 -1.0599  0.2452 -0.9857
   20MOL   H24212440   3.807   3.426   0.254 -0.4912  1.7721 -1.5125
   20MOL   H24312441   3.964   3.339   0.244 -0.5660 -0.9324 -0.3718
   20MOL   H24412442   4.039   3.478   0.049 -0.4135  0.1447 -0.4333
   20MOL   H24512443   4.001   3.567   0.175  1.6373 -1.7990  0.8642
   20MOL   H24612444   3.878   3.688   0.022 -2.1448  0.2077 -1.1542
   20MOL   H24712445   3.753   3.584   0.061 -0.4184  0.1702 -1.1606
   20MOL   H24812446   3.663   3.492   7.616 -0.6032  1.7982 -0.1452
   20MOL   H24912447   3.713   3.322   7.406 -2.4851 -0.5241 -0.5737
   20MOL   H25012448   3.767   3.471   7.334 -0.0233 -1.5451 -0.9219
   20MOL   H25112449   3.476   3.420   7.426 -0.1946 -1.2510 -1.5320
   20MOL   H25212450   3.534   3.575   7.396 -0.5986  0.4337 -0.3122
   20MOL   H25312451   3.407   3.474   7.195 -1.9968 -1.4598  2.7200
   20MOL   H25412452   3.505   3.336   7.208 -0.4747  0.6639 -0.8140
   20MOL   H25512453   3.708   3.473   7.127 -0.3220  0.3010  0.6760
   20MOL   H25612454   3.608   3.621   7.148  0.9710  0.8519  0.1219
   20MOL   H25712455   3.569   3.568   6.915 -0.5113 -0.2673 -0.6988
   20MOL   C25812456   3.587   3.367   6.929 -0.2512 -0.1651  0.9787
   20MOL   O25912457   3.587   3.267   7.003 -0.1578  0.0522 -0.7019
   20MOL   C26012458   3.595   3.349   6.780 -0.6707  0.3625  0.3341
   20MOL   C26112459   3.679   3.226   6.737 -0.9716  0.2611 -0.5088
   20MOL   C26212460   3.599   3.094   6.732  0.1251  0.7371  0.1033
   20MOL   C26312461   3.682   2.960   6.721  0.4074 -0.2019 -0.9266
   20MOL   C26412462   3.784   2.937   6.836  0.1963 -0.2307 -0.0256
   20MOL   O26512463   3.894   2.915   6.797 -0.1032  0.2602  0.6846
   20MOL   N26612464   3.750   2.950   6.962 -0.0031 -0.3147  0.5108
   20MOL   C26712465   3.830   2.943   7.080  0.2884 -0.0215 -0.4152
   20MOL   C26812466   3.790   3.017   7.211  0.2424 -0.3727  0.5795
   20MOL   C26912467   3.863   2.963   7.329  0.1741  0.5435 -0.2914
   20MOL   C27012468   3.923   3.060   7.431 -0.3355 -0.2728  0.2981
   20MOL   N27112469   3.982   2.980   7.533  0.3811  0.1205  0.4657
   20MOL   H27212470   3.499   3.337   6.730  0.1313 -1.9600 -0.7165
   20MOL   H27312471   3.649   3.439   6.750 -2.4279  1.4821  0.4201
   20MOL   H27412472   3.716   3.250   6.637  0.9186 -0.9591 -0.1324
   20MOL   H27512473   3.765   3.208   6.802 -1.1958  0.2555 -0.2111
   20MOL   H27612474   3.542   3.105   6.640  1.8491  0.0132 -1.0836
   20MOL   H27712475   3.511   3.096   6.796  0.8723 -0.3732  1.1896
   20MOL   H27812476   3.727   2.960   6.621 -0.4292 -0.9787 -1.3083
   20MOL   H27912477   3.628   2.865   6.717  1.0180 -0.6659  1.0581
   20MOL   H28012478   3.650   2.945   6.973 -0.3491  0.7660 -1.8166
   20MOL   H28112479   3.928   2.980   7.051  1.0253 -0.9118  0.9103
   20MOL   H28212480   3.846   2.837   7.098 -3.1116 -0.6429 -0.6222
   20MOL   H28312481   3.818   3.121   7.195  2.8888 -0.9048  1.6114
   20MOL   H28412482   3.683   3.020   7.233  0.5145  1.0120  1.8058
   20MOL   H28512483   3.939   2.896   7.289 -2.4146 -1.4733 -1.9579
   20MOL   H28612484   3.789   2.909   7.388  1.5080 -0.2285  0.7145
   20MOL   H28712485   3.855   3.138   7.464 -1.9769 -1.6219  0.1536
   20MOL   H28812486   4.010   3.103   7.380 -0.3094  1.6918  1.9571
   20MOL   H28912487   4.075   2.948   7.512 -0.1782 -0.8990 -0.5049
   20MOL   C29012488   3.924   2.949   7.650 -0.2974 -0.0577 -0.4615
   20MOL   O29112489   3.810   2.987   7.680 -0.4819  0.5155  0.5522
   20MOL   C29212490   4.003   2.857   0.045 -0.3412  0.2547  0.3831
   20MOL   C29312491   3.983   2.884   0.192 -0.3094 -0.6265  0.1791
   20MOL   C29412492   3.856   2.816   0.251  0.0735  0.2616 -0.4052
   20MOL   C29512493   3.844   2.834   0.407 -1.1612  0.3199  0.0473
   20MOL   C29612494   3.896   2.724   0.502 -0.1590 -0.1599  1.1703
   20MOL   O29712495   3.983   2.644   0.460 -0.0981  0.6780 -0.1355
   20MOL   N29812496   3.845   2.727   0.624 -0.3378  0.2929 -0.2975
   20MOL   C29912497   3.878   2.627   0.718 -0.1304 -0.0973 -0.0554
   20MOL   C30012498   3.826   2.667   0.859  0.1341 -0.2327  0.1787
   20MOL   C30112499   3.853   2.546   0.948 -1.3343  0.2667  0.3751
   20MOL   C30212500   3.737   2.446   0.948 -0.3069  0.1052  0.3596
   20MOL   N30312501   3.782   2.328   1.000  0.0830 -0.1619 -0.5491
   20MOL   H30412502   3.973   2.755   0.016 -1.5327 -0.2886  3.3990
   20MOL   H30512503   4.110   2.868   0.030 -0.0125 -2.4534  0.3935
   20MOL   H30612504   4.071   2.858   0.252  2.3947  1.5520 -2.7321
   20MOL   H30712505   3.980   2.991   0.209  0.4127 -0.5875  0.0824
   20MOL   H30812506   3.858   2.707   0.238  0.0690  0.1517  0.4836
   20MOL   H30912507   3.769   2.859   0.202  0.5657  2.0673  0.2544
   20MOL   H31012508   3.735   2.844   0.414 -0.8810  2.9452  1.3492
   20MOL   H31112509   3.892   2.928   0.436 -0.6993  0.2133 -0.3702
   20MOL   H31212510   3.773   2.794   0.641  0.9362  1.6479 -0.1677
   20MOL   H31312511   3.985   2.605   0.719 -0.4862 -1.8072  1.1843
   20MOL   H31412512   3.828   2.535   0.691  1.4829 -1.1912  0.5923
   20MOL   H31512513   3.887   2.748   0.900  0.2654 -0.5497  0.6090
   20MOL   H31612514   3.722   2.699   0.862 -0.1863 -1.1061 -1.0548
   20MOL   H31712515   3.882   2.573   1.050 -2.8389 -2.4432  1.5897
   20MOL   H31812516   3.947   2.498   0.919 -2.2896 -1.7126  0.4891
   20MOL   H31912517   3.681   2.444   0.854 -1.0585  3.0671  0.6867
   20MOL   H32012518   3.665   2.482   1.021  0.9548  0.0364  1.6592
   20MOL   H32112519   3.804   2.325   1.099 -1.1496  0.6610 -0.2421
   20MOL   C32212520   3.823   2.219   0.937  0.0890  0.1616  0.4396
   20MOL   O32312521   3.818   2.214   0.812 -0.1083  0.1503 -0.4734
   20MOL   C32412522   3.869   2.101   1.020 -0.3963  0.5237 -0.2254
   20MOL   C32512523   3.758   2.004   1.048  0.1840  0.2074  1.0500
   20MOL   C32612524   3.647   2.070   1.132 -0.2118  0.2368 -0.5216
   20MOL   C32712525   3.516   2.003   1.124  0.5494  0.7390 -0.0766
   20MOL   C32812526   3.430   2.071   1.018  0.0674 -0.2089  0.0777
   20MOL   O32912527   3.328   2.133   1.053 -0.1181 -0.1719 -0.4594
   20MOL   N33012528   3.458   2.049   0.889  0.3477 -0.0197  0.7805
   20MOL   C33112529   3.381   2.098   0.776  0.2459  0.4486  0.9688
   20MOL   C33212530   3.480   2.166   0.677  0.0318 -0.5254 -0.3827
   20MOL   C33312531   3.566   2.078   0.588  0.0051 -0.0779 -0.0379
   20MOL   C33412532   3.592   2.132   0.453 -0.1830  0.0197 -0.2633
   20MOL   N33512533   3.487   2.098   0.358 -0.3830 -0.3859  0.0754
   20MOL   H33612534   3.956   2.048   0.982  0.2434 -1.1803  3.3625
   20MOL   H33712535   3.908   2.148   1.111 -0.8016 -0.5848  0.5370
   20MOL   H33812536   3.719   1.974   0.950  0.9652  1.6267  0.2911
   20MOL   H33912537   3.788   1.910   1.094  1.4868  0.4649  0.7386
   20MOL   H34012538   3.628   2.177   1.129  0.4828  0.3447 -1.0857
   20MOL   H34112539   3.679   2.069   1.236  0.3258 -0.2864 -0.6859
   20MOL   H34212540   3.462   2.007   1.218 -0.1960  0.4254 -0.4785
   20MOL   H34312541   3.507   1.896   1.106  1.2898  0.5633  0.5704
   20MOL   H34412542   3.539   1.996   0.861  0.2191  0.3886 -0.3721
   20MOL   H34512543   3.307   2.175   0.799  0.0090  0.4649  0.1745
   20MOL   H34612544   3.334   2.015   0.725 -0.1885  0.3299  1.5567
   20MOL   H34712545   3.417   2.214   0.602  2.1129  0.7846 -1.3230
   20MOL   H34812546   3.533   2.249   0.724 -0.9405 -0.5338  0.7718
   20MOL   H34912547   3.516   1.983   0.574 -1.6192  0.7231  0.2194
   20MOL   H35012548   3.664   2.068   0.634  0.3668  1.5275 -0.4271
   20MOL   H35112549   3.684   2.085   0.416 -0.2811 -0.7585  0.4615
   20MOL   H35212550   3.606   2.239   0.465  1.3060 -0.3342  1.3619
   20MOL   H35312551   3.453   2.003   0.361 -2.2776  0.3035  1.4722
   20MOL   C35412552   3.443   2.179   0.251  0.0326 -0.5942 -0.0497
   20MOL   O35512553   3.464   2.303   0.241 -0.0337  0.0365  0.1146
   20MOL   C35612554   3.364   2.113   0.145 -0.1841  0.1043  0.1233
   20MOL   C35712555   3.259   2.199   0.075  0.0667  1.0854  0.4520
   20MOL   C35812556   3.160   2.110   7.692  0.7403 -0.9450 -0.0085
   20MOL   C35912557   3.043   2.186   7.635 -0.6371 -0.5092 -0.1129
   20MOL   C36012558   2.958   2.106   7.525  0.1876  1.0036 -0.1614
   20MOL   O36112559   3.000   2.001   7.468 -0.2692  0.1362 -0.0051
   20MOL   N36212560   2.838   2.163   7.502  0.1965 -0.3759  0.5917
   20MOL   C36312561   2.734   2.116   7.409 -0.9818 -0.5521  0.1909
   20MOL   C36412562   2.587   2.129   7.460 -0.6187 -0.2622  0.2201
   20MOL   C36512563   2.492   2.081   7.358 -0.4913  0.2564 -0.4893
   20MOL   C36612564   2.357   2.127   7.395  0.1249 -0.3440  0.3048
   20MOL   N36712565   2.255   2.088   7.305  0.0534 -0.3441 -0.2204
   20MOL   H36812566   3.437   2.072   0.075  1.6279  0.0554  1.9889
   20MOL   H36912567   3.316   2.026   0.189 -2.7619  1.5136  0.1904
   20MOL   H37012568   3.212   2.261   0.151  0.3190  3.4109 -1.2416
   20MOL   H37112569   3.321   2.273   0.024 -1.4713  1.9576 -0.1564
   20MOL   H37212570   3.121   2.037   0.061  0.5899 -1.8761 -1.0504
   20MOL   H37312571   3.218   2.056   7.617 -0.5237 -0.5009 -1.3364
   20MOL   H37412572   3.093   2.272   7.591  2.8588 -2.1261  0.5369
   20MOL   H37512573   2.983   2.214   0.020 -4.3324 -2.3998 -1.9405
   20MOL   H37612574   2.809   2.244   7.554  0.8237 -0.1857  0.6494
   20MOL   H37712575   2.736   2.009   7.387 -2.7895 -0.7641  0.9579
   20MOL   H37812576   2.752   2.162   7.312  0.1605  0.0344  0.6779
   20MOL   H37912577   2.573   2.083   7.558 -2.5953 -0.2009 -0.0168
   20MOL   H38012578   2.581   2.238   7.463  1.2244  0.0004 -3.1757
   20MOL   H38112579   2.494   1.972   7.357  0.7100  0.2548 -4.3773
   20MOL   H38212580   2.525   2.107   7.258  0.2027 -1.4377 -0.7230
   20MOL   H38312581   2.345   2.235   7.393 -0.5711 -0.3632  2.0244
   20MOL   H38412582   2.320   2.101   7.495 -1.8361 -1.9493 -0.7996
   20MOL   H38512583   2.274   2.021   7.231  0.1361 -0.1053 -0.4137
   20MOL   C38612584   2.133   2.142   7.293  0.2779  0.0588 -0.0174
   20MOL   O38712585   2.094   2.239   7.363  0.2416  0.0895  0.0940
   20MOL   C38812586   2.046   2.093   7.177  0.6240 -0.4174  0.0362
   20MOL   C38912587   2.090   2.113   7.031  0.5027  0.0858 -0.5015
   20MOL   C39012588   2.178   2.229   6.986  0.1366  0.4641  0.6832
   20MOL   C39112589   2.116   2.371   7.007 -0.5936 -0.1075  0.7236
   20MOL   C39212590   2.199   2.491   6.943 -0.1609 -0.0690 -0.2799
   20MOL   O39312591   2.319   2.485   6.929  0.0065 -0.2479 -0.1038
   20MOL   N39412592   2.123   2.597   6.920  0.6180  0.2028 -0.1025
   20MOL   C39512593   2.169   2.719   6.856 -0.9142 -0.4663 -0.2587
   20MOL   C39612594   2.207   2.698   6.711 -0.1124  1.2970  0.6574
   20MOL   C39712595   2.225   2.823   6.621  0.0285 -0.3857 -0.2638
   20MOL   C39812596   2.091   2.884   6.578 -0.1257  0.5863 -0.0847
   20MOL   N39912597   2.104   3.019   6.520  0.4485  0.4123  0.1354
   20MOL   H40012598   2.027   1.986   7.185  2.1469 -0.8691 -1.9071
   20MOL   H40112599   1.946   2.137   7.181  1.6396  1.7374  3.7712
   20MOL   H40212600   2.146   2.026   6.996 -1.0632 -1.4551  0.6612
   20MOL   H40312601   2.004   2.105   6.965 -0.0202 -1.1612  0.3038
   20MOL   H40412602   2.209   2.221   6.881 -1.5661  0.6711  0.1569
   20MOL   H40512603   2.273   2.238   7.038  0.8709  1.0797 -0.7234
   20MOL   H40612604   2.126   2.389   7.114  0.9043 -3.5679  1.2238
   20MOL   H40712605   2.010   2.380   6.981 -0.1249  2.1685 -0.5032
   20MOL   H40812606   2.025   2.589   6.942  0.7238 -0.8669  0.0015
   20MOL   H40912607   2.254   2.763   6.909 -2.5136  1.1996  0.9988
   20MOL   H41012608   2.097   2.800   6.867  1.4949  1.7846 -0.6090
   20MOL   H41112609   2.305   2.650   6.717 -0.4704  0.2327 -1.5886
   20MOL   H41212610   2.138   2.634   6.656  1.4764  1.1585 -1.2185
   20MOL   H41312611   2.290   2.801   6.536 -1.5501  1.8099 -2.1312
   20MOL   H41412612   2.275   2.897   6.683  0.2033 -0.0399 -0.8126
   20MOL   H41512613   2.026   2.899   6.663  0.0675  0.9169  0.0055
   20MOL   H41612614   2.041   2.824   6.502  2.2118  1.5665 -2.4807
   20MOL   H41712615   2.105   3.021   6.419  1.2545 -2.8672  0.0131
   20MOL   C41812616   2.102   3.137   6.579  0.4564  0.4675 -0.2041
   20MOL   O41912617   2.103   3.156   6.705 -0.1429 -0.0266 -0.4048
   20MOL   C42012618   2.107   3.259   6.491 -0.3442 -0.2072  0.1853
   20MOL   C42112619   1.966   3.326   6.481  0.4720 -0.7069 -0.6941
   20MOL   C42212620   1.880   3.265   6.360 -0.1746 -0.9512 -0.2302
   20MOL   C42312621   1.953   3.298   6.223  0.3085  0.1991  0.0104
   20MOL   C42412622   1.869   3.270   6.105  0.5816  0.4629  0.4918
   20MOL   O42512623   1.790   3.356   6.063  0.0279 -0.1213 -1.0342
   20MOL   N42612624   1.880   3.145   6.054  0.5707  0.5140  0.1572
   20MOL   C42712625   1.821   3.089   5.935 -0.0241  0.5348 -0.2457
   20MOL   C42812626   1.828   3.159   5.796  0.8105  0.5179  0.0553
   20MOL   C42912627   1.982   3.175   5.754 -0.2663 -0.0719  0.1419
   20MOL   C43012628   1.990   3.231   5.613  0.0192 -0.7921  0.3124
   20MOL   N43112629   2.132   3.248   5.562 -0.1495  0.3455  0.1262
   20MOL   H43212630   2.177   3.320   6.548 -1.0218  1.4033 -0.6828
   20MOL   H43312631   2.162   3.230   6.401 -0.6918  1.3081 -0.5295
   20MOL   H43412632   1.902   3.330   6.569  0.6222 -2.0495 -0.5158
   20MOL   H43512633   1.976   3.434   6.468 -0.4816 -0.4532  0.5860
   20MOL   H43612634   1.782   3.313   6.369  0.6117  0.3301  1.9671
   20MOL   H43712635   1.863   3.158   6.371 -1.7080 -0.6945  0.0916
   20MOL   H43812636   2.042   3.237   6.209 -0.5719 -2.1205  3.8146
   20MOL   H43912637   1.980   3.404   6.222  1.6402 -0.1165  0.9171
   20MOL   H44012638   1.946   3.087   6.104 -1.1824  0.0382  1.9976
   20MOL   H44112639   1.712   3.083   5.947  0.0169 -1.9211 -0.8025
   20MOL   H44212640   1.851   2.985   5.926 -1.4193 -0.0806  1.6701
   20MOL   H44312641   1.766   3.105   5.724 -0.4727  1.0511  0.7379
   20MOL   H44412642   1.786   3.259   5.801  0.7745  0.4515  1.3207
   20MOL   H44512643   2.038   3.082   5.753 -1.7166 -0.9681  0.9541
   20MOL   H44612644   2.035   3.245   5.819 -1.1805 -1.3788  2.3616
   20MOL   H44712645   1.932   3.323   5.607  1.1227 -0.2302 -2.2054
   20MOL   H44812646   1.931   3.178   5.538 -1.5510 -0.0096  0.9560
   20MOL   H44912647   2.208   3.281   5.620 -0.7906  0.0934  1.1145
   20MOL   C45012648   2.168   3.204   5.438 -0.0970 -0.6932  0.2920
   20MOL   O45112649   2.086   3.162   5.361  0.4733 -0.2573  0.1992
   20MOL   C45212650   2.309   3.228   5.399  0.2114 -0.5203 -0.7041
   20MOL   C45312651   2.371   3.111   5.317  0.3990 -0.6800  0.5977
   20MOL   C45412652   2.517   3.129   5.293 -0.4846 -0.2356  0.2913
   20MOL   C45512653   2.592   3.003   5.241 -0.0649 -0.3436 -0.2397
   20MOL   C45612654   2.563   2.974   5.092 -0.0484 -0.0080 -0.4289
   20MOL   O45712655   2.489   3.056   5.034  0.1098 -0.6214 -0.4639
   20MOL   N45812656   2.631   2.870   5.037  0.1000  0.0670 -0.1890
   20MOL   C45912657   2.645   2.851   4.893  0.1089  0.0826  0.5518
   20MOL   C46012658   2.732   2.729   4.870  0.3767 -0.3651  0.2544
   20MOL   C46112659   2.877   2.736   4.926 -0.5435  0.4060 -0.6261
   20MOL   C46212660   2.952   2.605   4.895  0.3918 -0.5908 -0.4228
   20MOL   N46312661   3.089   2.617   4.956 -0.3967 -0.8298 -0.1229
   20MOL   H46412662   2.316   3.316   5.335 -0.0205 -0.0918 -0.1524
   20MOL   H46512663   2.356   3.256   5.494  0.3025  0.2017 -0.9603
   20MOL   H46612664   2.363   3.021   5.378  0.3112 -1.7054 -0.8880
   20MOL   H46712665   2.311   3.090   5.228  0.6146 -0.7266  0.4622
   20MOL   H46812666   2.563   3.147   5.390 -2.3517  0.4686  1.0687
   20MOL   H46912667   2.543   3.208   5.223 -0.5470 -1.4984 -1.1689
   20MOL   H47012668   2.556   2.919   5.301  0.0391 -1.0005 -1.1020
   20MOL   H47112669   2.697   3.022   5.267  0.3996 -1.3211 -1.3747
   20MOL   H47212670   2.702   2.831   5.098 -0.6822 -0.8923  0.1185
   20MOL   H47312671   2.695   2.936   4.845  0.4346 -0.9016 -0.8558
   20MOL   H47412672   2.543   2.837   4.857 -0.1626 -2.3713  2.1444
   20MOL   H47512673   2.677   2.645   4.910  1.0009  0.2215  2.3941
   20MOL   H47612674   2.748   2.713   4.763  2.9342  4.0971 -0.1616
   20MOL   H47712675   2.880   2.769   5.030  1.2793 -1.5918  0.0034
   20MOL   H47812676   2.925   2.815   4.868  1.3106 -0.2869 -0.0854
   20MOL   H47912677   2.965   2.596   4.787  0.3200 -1.2869 -0.3758
   20MOL   H48012678   2.926   2.507   4.934  1.7093 -0.3744  1.0551
   20MOL   H48112679   3.156   2.673   4.904  1.6877 -2.3991  0.8074
   20MOL   C48212680   3.115   2.582   5.085  0.1417 -0.2264 -0.5165
   20MOL   O48312681   3.029   2.544   5.168 -0.3577  0.0075  0.1324
   20MOL   C48412682   3.260   2.616   5.130  0.5979  0.5923  0.8129
   20MOL   C48512683   3.292   2.598   5.282 -0.0838  1.0613  0.6516
   20MOL   C48612684   3.426   2.640   5.337  0.0087  0.8140 -0.6027
   20MOL   C48712685   3.544   2.534   5.303 -1.0907 -0.1563  0.9720
   20MOL   C48812686   3.628   2.574   5.177 -0.3997  0.6913  0.2899
   20MOL   O48912687   3.666   2.687   5.150  0.2484 -0.3710 -0.3759
   20MOL   N49012688   3.641   2.467   5.101 -0.0070  0.2499 -0.3366
   20MOL   C49112689   3.724   2.465   4.980  0.3303  0.4213 -0.1559
   20MOL   C49212690   3.847   2.366   4.995 -0.3715  0.2658  0.1528
   20MOL   C49312691   3.959   2.443   5.075 -0.7860  0.3832  0.6837
   20MOL   C49412692   4.109   2.397   5.047 -0.2557 -0.1026 -0.3822
   20MOL   N49512693   4.212   2.475   5.116  0.3945 -0.0518 -0.0549
   20MOL   H49612694   3.333   2.548   5.084 -1.5835 -1.7469  0.7162
   20MOL   H49712695   3.275   2.719   5.097  0.0081  0.5762  0.4876
   20MOL   H49812696   3.216   2.651   5.339 -3.0223 -1.3644 -0.8503
   20MOL   H49912697   3.278   2.493   5.305  0.1664  0.4080 -1.9533
   20MOL   H50012698   3.416   2.634   5.445 -0.5351  1.1061 -0.6363
   20MOL   H50112699   3.457   2.742   5.310  2.2365  1.2280  3.1143
   20MOL   H50212700   3.505   2.432   5.299  0.3774 -0.7606  1.8331
   20MOL   H50312701   3.606   2.545   5.392 -1.0866  1.5475  0.7750
   20MOL   H50412702   3.622   2.373   5.133  2.8993 -0.7056 -1.2304
   20MOL   H50512703   3.740   2.567   4.944  0.6433  0.2554 -0.4861
   20MOL   H50612704   3.653   2.438   4.902 -1.6742  0.5582  1.5672
   20MOL   H50712705   3.818   2.278   5.053  1.9549 -0.5409  0.1579
   20MOL   H50812706   3.869   2.338   4.892 -2.9868  2.2194 -0.9828
   20MOL   H50912707   3.932   2.448   5.180 -0.4763 -3.2270  0.9846
   20MOL   H51012708   3.960   2.545   5.035  1.0027 -0.9874 -3.0585
   20MOL   H51112709   4.119   2.411   4.939 -1.0019  0.5011 -0.3768
   20MOL   H51212710   4.127   2.290   5.061 -0.4893  0.0185  0.9341
   20MOL   H51312711   4.241   2.447   5.209  0.9473  1.8729  0.3848
   20MOL   C51412712   4.252   2.598   5.082  0.1436  0.5121  0.3535
   20MOL   O51512713   4.211   2.655   4.980  0.0450 -0.3746 -0.0288
   20MOL   C51612714   4.342   2.677   5.179  0.5314  0.7575 -0.3145
   20MOL   C51712715   4.464   2.749   5.124  0.0853  0.0777 -0.1510
   20MOL   C51812716   4.431   2.891   5.081 -0.5185  0.1285  0.0349
   20MOL   C51912717   4.392   2.914   4.933 -0.0513 -1.1939  0.2716
   20MOL   C52012718   4.395   3.069   4.901  0.2264 -0.5895 -0.4680
   20MOL   O52112719   4.480   3.122   4.838 -0.0302  0.2600 -0.6281
   20MOL   N52212720   4.285   3.143   4.950 -0.4402 -0.4353  0.1684
   20MOL   C52312721   4.252   3.270   4.904  0.1780 -0.1279  0.7771
   20MOL   C52412722   4.115   3.325   4.946  0.6040  0.7823 -0.3337
   20MOL   C52512723   4.103   3.374   5.089 -0.2317 -0.5487 -0.5469
   20MOL   C52612724   4.169   3.280   5.200  0.3675 -0.3079  0.8287
   20MOL   N52712725   4.089   3.156   5.213 -0.2586  0.0229  0.0728
   20MOL   H52812726   4.282   2.745   5.240 -0.7064 -1.7911  1.3946
   20MOL   H52912727   4.380   2.604   5.251  2.1535  0.4518 -1.4530
   20MOL   H53012728   4.535   2.763   5.205  0.5773 -0.9800 -0.3856
   20MOL   H53112729   4.518   2.696   5.045 -0.8754  1.2982 -1.6773
   20MOL   H53212730   4.521   2.949   5.099 -0.3346  0.1979 -1.0581
   20MOL   H53312731   4.345   2.923   5.139  0.3172  2.2535  0.1389
   20MOL   H53412732   4.291   2.881   4.914 -0.5357  1.3901 -2.0675
   20MOL   H53512733   4.457   2.863   4.862  1.8378  0.3611  0.8111
   20MOL   H53612734   4.239   3.111   5.034 -0.9249  0.1428  0.1272
   20MOL   H53712735   4.244   3.264   4.795  0.9450  0.7820  0.6658
   20MOL   H53812736   4.329   3.340   4.935  0.5534 -0.5594  0.8194
   20MOL   H53912737   4.115   3.411   4.879 -2.1954  1.1318  0.0716
   20MOL   H54012738   4.040   3.256   4.910 -0.6303  2.5247 -1.1418
   20MOL   H54112739   3.999   3.392   5.116 -0.6216 -2.5059 -0.6497
   20MOL   H54212740   4.161   3.465   5.079 -1.9615  0.4268 -2.0039
   20MOL   H54312741   4.181   3.317   5.302 -1.2822 -0.2003  1.0024
   20MOL   H54412742   4.270   3.257   5.166  0.4486  0.0726  0.8142
   20MOL   H54512743   4.000   3.145   5.167 -1.0321 -2.7749  2.1016
   20MOL   C54612744   4.117   3.058   5.301 -0.1533  0.7014 -0.0895
   20MOL   O54712745   4.227   3.050   5.363  0.5014 -0.2036 -0.2693
   20MOL   C54812746   4.007   2.956   5.330 -0.4703 -0.5007 -0.2644
   20MOL   C54912747   4.042   2.844   5.431  0.0029  0.1136  0.2431
   20MOL   C55012748   3.960   2.719   5.423  0.9528 -0.3568  0.3057
   20MOL   C55112749   3.989   2.616   5.529  0.4742 -0.5574 -0.5187
   20MOL   C55212750   4.115   2.536   5.511 -0.3844  0.5517  0.0784
   20MOL   O55312751   4.140   2.484   5.403  0.0081 -0.1118  0.1830
   20MOL   N55412752   4.197   2.539   5.622 -0.2154  0.3516 -0.3393
   20MOL   C55512753   4.342   2.509   5.610 -0.2145 -0.1221 -1.4698
   20MOL   C55612754   4.402   2.460   5.747  0.0647 -0.1406  0.7730
   20MOL   C55712755   4.333   2.335   5.784  0.2691  0.3856 -0.1835
   20MOL   C55812756   4.373   2.275   5.920 -0.4679 -0.5059 -0.1069
   20MOL   N55912757   4.344   2.363   6.033 -0.3521 -0.6274  0.0159
   20MOL   H56012758   3.925   3.011   5.376 -0.6581  0.8330 -2.1180
   20MOL   H56112759   3.962   2.922   5.236  0.2222  0.7392 -1.0565
   20MOL   H56212760   4.147   2.818   5.417 -0.5886 -2.5973  0.6262
   20MOL   H56312761   4.050   2.890   5.530 -1.2267  0.1571  0.3300
   20MOL   H56412762   3.984   2.676   5.326  1.3648  1.1626 -0.2922
   20MOL   H56512763   3.855   2.746   5.428  0.7950 -1.1153  1.3706
   20MOL   H56612764   3.913   2.537   5.528 -1.1036  0.9469 -1.2605
   20MOL   H56712765   3.972   2.663   5.626  1.1102  0.6108 -0.9656
   20MOL   H56812766   4.161   2.587   5.703 -1.4320 -2.5788  0.9530
   20MOL   H56912767   4.394   2.600   5.578 -3.3583  2.0708 -0.5606
   20MOL   H57012768   4.352   2.431   5.534 -0.9382  1.0289 -2.7736
   20MOL   H57112769   4.508   2.438   5.741 -0.3059 -1.6306 -1.0670
   20MOL   H57212770   4.393   2.540   5.821 -2.1036  1.1947 -0.8557
   20MOL   H57312771   4.345   2.258   5.707  0.6840  1.8700 -1.6289
   20MOL   H57412772   4.225   2.355   5.783  0.1849  0.2492  2.8403
   20MOL   H57512773   4.479   2.251   5.932  1.0154  4.1177 -2.8878
   20MOL   H57612774   4.314   2.184   5.930 -0.1828 -0.8072 -1.1027
   20MOL   H57712775   4.427   2.408   6.068 -0.4402  0.6029 -1.2883
   20MOL   C57812776   4.222   2.399   6.073  0.3134  0.5753  0.0349
   20MOL   O57912777   4.117   2.348   6.032  0.4602 -0.2335  0.4330
   20MOL   C58012778   4.205   2.520   6.165  0.1658  0.2266 -0.5542
   20MOL   C58112779   4.084   2.506   6.264 -0.6369 -0.5681 -0.2339
   20MOL   C58212780   4.092   2.624   6.370  0.0347  0.3850 -0.9753
   20MOL   C58312781   3.967   2.612   6.459 -0.3505 -0.1957  0.5982
   20MOL   C58412782   3.833   2.636   6.387  0.1831 -0.3277  1.4989
   20MOL   O58512783   3.823   2.727   6.300 -0.0784 -0.0302 -0.3578
   20MOL   N58612784   3.736   2.556   6.425  0.4102 -0.2761  0.3770
   20MOL   C58712785   3.611   2.547   6.344 -0.3159  0.1687  0.0540
   20MOL   C58812786   3.511   2.443   6.395  0.3409  0.5063 -0.2578
   20MOL   C58912787   3.373   2.459   6.333  0.2656  0.2842  0.1280
   20MOL   C59012788   3.274   2.375   6.412  0.1844  0.4587  0.5356
   20MOL   N59112789   3.282   2.235   6.386  0.1249 -0.1037  0.8626
   20MOL   H59212790   4.301   2.521   6.216 -0.4337 -1.4592  0.6404
   20MOL   H59312791   4.189   2.608   6.102  2.9201 -0.7263 -2.7060
   20MOL   H59412792   3.985   2.496   6.221  0.5928  0.1889 -3.3851
   20MOL   H59512793   4.100   2.411   6.317  0.2572  0.9785  2.3696
   20MOL   H59612794   4.083   2.718   6.315 -0.9864  0.7661 -0.1644
   20MOL   H59712795   4.189   2.612   6.419 -1.4256 -0.6165  1.7350
   20MOL   H59812796   3.970   2.687   6.539 -0.3585  0.4982 -0.0444
   20MOL   H59912797   3.968   2.513   6.505 -2.7157  0.1778  1.5207
   20MOL   H60012798   3.749   2.495   6.504  0.1883 -1.4203 -0.4564
   20MOL   H60112799   3.638   2.539   6.239 -1.8589 -1.0380 -0.2659
   20MOL   H60212800   3.560   2.641   6.362  1.2216  1.3976 -1.8476
   20MOL   H60312801   3.541   2.340   6.380  0.7418  0.2041  2.3825
   20MOL   H60412802   3.500   2.453   6.503 -1.8153 -2.8887 -0.1127
   20MOL   H60512803   3.378   2.439   6.226 -3.5226 -1.4259  0.1697
   20MOL   H60612804   3.344   2.564   6.333  1.0244  0.5029 -0.3849
   20MOL   H60712805   3.170   2.402   6.400  0.2978  0.7688  0.2493
   20MOL   H60812806   3.298   2.385   6.518  1.7225 -0.4602  0.3053
   20MOL   H60912807   3.355   2.191   6.331 -0.0668  2.1382 -1.2591
   20MOL   C61012808   3.197   2.146   6.435  0.1674 -0.0377 -0.2366
   20MOL   O61112809   3.097   2.177   6.504  0.1670 -0.1728 -0.1767
   20MOL   C61212810   3.238   2.002   6.414 -0.0515  0.3833 -1.1184
   20MOL   C61312811   3.279   1.912   6.538  0.4998 -0.3860  0.1650
   20MOL   C61412812   3.186   1.900   6.662  0.7994 -0.1750 -0.2520
   20MOL   C61512813   3.237   1.821   6.788  0.5216 -0.8342  0.4297
   20MOL   C61612814   3.260   1.672   6.771 -0.1249 -0.1230 -0.4924
   20MOL   O61712815   3.253   1.617   6.661 -0.3566  0.3719  0.0087
   20MOL   N61812816   3.294   1.605   6.877 -0.6234  0.6365 -0.1945
   20MOL   C61912817   3.308   1.460   6.895 -0.6813 -0.5346  0.0487
   20MOL   C62012818   3.347   1.432   7.037  0.4669  0.4144 -0.2373
   20MOL   C62112819   3.484   1.485   7.089 -0.4806 -0.4757 -0.2834
   20MOL   C62212820   3.488   1.481   7.237 -0.2082 -0.0239  0.4701
   20MOL   N62312821   3.621   1.512   7.285  0.6337 -0.2413  0.3870
   20MOL   H62412822   3.149   1.951   6.377 -1.1681  0.9461  0.7072
   20MOL   H62512823   3.319   1.992   6.343  1.0891  1.8146 -0.0494
   20MOL   H62612824   3.300   1.813   6.497 -2.2192 -1.6565  1.6946
   20MOL   H62712825   3.371   1.953   6.581  0.6762 -1.4127  0.7999
   20MOL   H62812826   3.086   1.874   6.626 -1.7098  2.5474  4.2967
   20MOL   H62912827   3.172   2.002   6.697  0.8880  0.1445 -1.1324
   20MOL   H63012828   3.164   1.836   6.868  0.6351 -0.2562  0.4317
   20MOL   H63112829   3.320   1.877   6.832  1.5247  0.1944 -2.6538
   20MOL   H63212830   3.280   1.652   6.965 -0.2726 -0.1365  0.2786
   20MOL   H63312831   3.383   1.432   6.821 -1.7561 -3.4160 -0.0178
   20MOL   H63412832   3.212   1.413   6.870 -1.4062  0.0291  1.7131
   20MOL   H63512833   3.266   1.473   7.097  0.4813  0.4866 -0.2682
   20MOL   H63612834   3.337   1.326   7.062 -1.2898  0.7351  0.4524
   20MOL   H63712835   3.503   1.589   7.062  0.5451 -0.2685  1.2109
   20MOL   H63812836   3.566   1.427   7.047 -0.6137  0.9883 -2.6883
   20MOL   H63912837   3.456   1.385   7.277  3.0605 -1.4699 -0.2056
   20MOL   H64012838   3.406   1.547   7.266  0.3693  0.9904 -0.1856
   20MOL   H64112839   3.616   1.538   7.383 -2.9418 -0.8999  0.4404
   20MOL   H64212840   3.667   1.595   7.251  1.3743 -0.3788  1.0259
   21MOL     C112841   0.288   5.677   4.088 -0.3739 -0.4503 -0.3448
   21MOL     O212842   0.342   5.683   4.199  0.1681  0.5501 -0.3570
   21MOL     C312843   0.377   5.682   3.963  0.2043  0.0235 -0.3388
   21MOL     C412844   0.488   5.574   3.970 -0.3014  0.8077  0.2607
   21MOL     C512845   0.445   5.433   3.988 -0.3041  0.3991  0.1672
   21MOL     C612846   0.342   5.395   3.872  0.6417  0.3682  0.2098
   21MOL     C712847   0.196   5.386   3.915 -0.1780  0.8979  0.4008
   21MOL     O812848   0.161   5.404   4.031  0.6253  0.8684 -0.5161
   21MOL     N912849   0.115   5.370   3.809  0.1922  0.1005 -0.0734
   21MOL    C1012850   7.671   5.366   3.814  0.4019  0.1670 -0.4097
   21MOL    C1112851   7.618   5.257   3.728 -0.3576 -0.5255  0.3778
   21MOL    C1212852   7.466   5.229   3.750  0.1585  0.1946  0.8816
   21MOL    C1312853   7.411   5.122   3.655 -0.2709 -0.4914 -0.4831
   21MOL    N1412854   7.270   5.096   3.671 -0.4166 -0.0258 -0.1953
   21MOL    H1512855   0.299   5.670   3.887 -0.1206 -1.6188  0.2198
   21MOL    H1612856   0.411   5.785   3.961 -0.3972  0.2150 -0.8284
   21MOL    H1712857   0.542   5.591   3.877  0.8380  0.6327  0.8834
   21MOL    H1812858   0.551   5.604   4.054 -1.5699 -2.1174  2.3701
   21MOL    H1912859   0.408   5.417   4.089  1.1762  1.9857  0.9881
   21MOL    H2012860   0.534   5.370   3.983 -1.0018 -0.7819  2.0679
   21MOL    H2112861   0.380   5.303   3.828  1.1040  0.7203 -0.1380
   21MOL    H2212862   0.353   5.473   3.796  2.1274  1.3947  1.4388
   21MOL    H2312863   0.153   5.362   3.716  2.0869 -1.2868  0.7843
   21MOL    H2412864   7.625   5.464   3.798  0.9058  0.2938 -1.1028
   21MOL    H2512865   7.645   5.342   3.917 -1.7148  0.8808 -0.7395
   21MOL    H2612866   7.639   5.285   3.624 -1.2459  2.0130  0.8598
   21MOL    H2712867   7.672   5.163   3.737  1.2868  0.3490 -0.2548
   21MOL    H2812868   7.412   5.323   3.740  1.3568  0.9643  1.5175
   21MOL    H2912869   7.451   5.205   3.855  0.7278  1.2841  1.2168
   21MOL    H3012870   7.474   5.034   3.665 -1.0538 -0.8731  1.4583
   21MOL    H3112871   7.440   5.165   3.560  0.4505  2.2536  0.9388
   21MOL    H3212872   7.208   5.166   3.632  2.0244  2.2197 -0.1963
   21MOL    H3312873   0.182   5.698   4.074 -0.2406  0.1454 -0.4918
   21MOL    C3412874   7.214   5.009   3.757  0.1525 -0.1562 -0.1754
   21MOL    O3512875   7.283   4.927   3.820  0.2056  0.4663 -0.1142
   21MOL    C3612876   7.061   5.001   3.764  0.2637  0.5985 -0.5311
   21MOL    C3712877   7.004   4.848   3.753 -0.0040 -0.4927 -0.5010
   21MOL    C3812878   6.854   4.835   3.761  0.1490 -0.6808 -0.3536
   21MOL    C3912879   6.797   4.688   3.793 -0.6024  0.5011  1.1897
   21MOL    C4012880   6.815   4.604   3.666  0.2984 -0.3746 -0.1837
   21MOL    O4112881   6.767   4.643   3.559  0.7570 -0.2379  0.1348
   21MOL    N4212882   6.860   4.482   3.681  0.0454  0.1640 -0.9292
   21MOL    C4312883   6.873   4.382   3.580 -0.2538 -0.1601 -0.1785
   21MOL    C4412884   7.020   4.356   3.534 -0.2088  0.1978  0.2115
   21MOL    C4512885   7.101   4.275   3.641  1.4569 -0.4343 -0.1117
   21MOL    C4612886   7.242   4.230   3.612  0.1877  0.0410  0.0344
   21MOL    N4712887   7.308   4.167   3.722  0.0821  0.2624  0.3047
   21MOL    H4812888   7.037   5.043   3.861  0.2292 -2.8096  1.0033
   21MOL    H4912889   7.015   5.059   3.684  2.6223  3.4375  0.0959
   21MOL    H5012890   7.051   4.797   3.669 -1.8423 -1.3424 -1.0474
   21MOL    H5112891   7.044   4.792   3.837 -0.6168 -2.5157 -1.5268
   21MOL    H5212892   6.820   4.890   3.674  1.7228  1.8294  0.5735
   21MOL    H5312893   6.826   4.905   3.840 -1.5353  0.5300 -1.9890
   21MOL    H5412894   6.690   4.689   3.814 -1.1557  1.9565 -1.5022
   21MOL    H5512895   6.848   4.640   3.877  1.2013  0.2373 -0.0109
   21MOL    H5612896   6.880   4.452   3.775 -1.3547  2.1772  0.0594
   21MOL    H5712897   6.832   4.425   3.488 -1.6862 -0.4040  0.3242
   21MOL    H5812898   6.817   4.291   3.600  1.1548 -0.3658  3.1129
   21MOL    H5912899   7.043   4.321   3.433 -1.4157 -0.8797  0.2983
   21MOL    H6012900   7.064   4.456   3.534  0.3242 -0.0064 -1.9316
   21MOL    H6112901   7.039   4.186   3.654 -1.0564  0.9503 -2.2640
   21MOL    H6212902   7.096   4.342   3.726 -0.1239 -0.2938 -0.3145
   21MOL    H6312903   7.305   4.311   3.577 -0.1625  0.7041  0.9152
   21MOL    H6412904   7.246   4.153   3.535 -0.6407  1.3584 -1.3480
   21MOL    H6512905   7.385   4.217   3.762  0.9191  0.0536 -0.9948
   21MOL    C6612906   7.270   4.048   3.777  0.0197 -0.1590  0.1884
   21MOL    O6712907   7.180   3.979   3.726  0.1442  0.1973  0.1849
   21MOL    C6812908   7.349   4.008   3.905 -0.5653  0.1702 -0.3459
   21MOL    C6912909   7.349   3.856   3.936  0.3957  0.5995  0.4289
   21MOL    C7012910   7.429   3.808   4.066 -0.1042  0.0760 -0.2455
   21MOL    C7112911   7.579   3.841   4.071  0.7530  0.3615  0.0327
   21MOL    C7212912   7.655   3.815   3.946  0.3480  0.3095 -0.1537
   21MOL    O7312913   7.661   3.699   3.904 -0.0353 -0.0060 -0.3533
   21MOL    N7412914   0.020   3.917   3.887  0.0771 -0.4230  0.0965
   21MOL    C7512915   0.103   3.911   3.770  0.7090  0.0753 -0.8670
   21MOL    C7612916   0.075   4.032   3.691 -0.2617 -0.0549  0.4561
   21MOL    C7712917   7.643   4.025   3.609  0.0002 -0.8930 -0.0558
   21MOL    C7812918   7.627   4.150   3.517 -0.1036  0.0267 -0.6040
   21MOL    N7912919   0.010   4.142   3.407 -0.5304 -0.2492  0.2464
   21MOL    H8012920   7.453   4.038   3.895 -1.3882  3.6351  0.7940
   21MOL    H8112921   7.315   4.057   3.996  0.3591  1.2750 -0.5829
   21MOL    H8212922   7.247   3.818   3.940 -0.1337  1.7992 -1.1084
   21MOL    H8312923   7.394   3.808   3.850  1.7764 -0.0146  1.4673
   21MOL    H8412924   7.423   3.699   4.057  0.2880  0.0837 -0.6367
   21MOL    H8512925   7.379   3.857   4.149  0.9900 -1.6697  1.4803
   21MOL    H8612926   7.620   3.791   4.158  1.6428  1.5394  0.3089
   21MOL    H8712927   7.602   3.946   4.092  0.6624 -0.0022  2.0971
   21MOL    H8812928   0.007   4.010   3.924  0.7804 -0.5064  0.5716
   21MOL    H8912929   0.076   3.819   3.718 -0.0534  0.3631 -0.9966
   21MOL    H9012930   0.208   3.913   3.799 -0.2457 -0.5059  2.8424
   21MOL    H9112931   0.077   4.121   3.753 -0.0924  1.3420 -1.5097
   21MOL    H9212932   0.153   4.046   3.615  0.6051 -2.9360  0.7495
   21MOL    H9312933   7.556   4.016   3.674  1.0170  0.2604  1.4959
   21MOL    H9412934   7.641   3.933   3.551  0.9663 -1.4093  0.7207
   21MOL    H9512935   7.631   4.245   3.571 -2.2075 -0.3202  0.2009
   21MOL    H9612936   7.529   4.151   3.471 -0.1371  2.2992 -0.5717
   21MOL    H9712937   0.058   4.055   3.386 -0.4430 -0.1511  0.0393
   21MOL    C9812938   0.070   4.239   3.341  0.0266  0.0321  0.0177
   21MOL    O9912939   0.041   4.355   3.355  0.3695 -0.2979  0.1397
   21MOL   C10012940   0.176   4.198   3.233 -0.2605 -0.9281 -0.0290
   21MOL   C10112941   0.215   4.295   3.128 -0.6383  0.3101 -0.2180
   21MOL   C10212942   0.118   4.318   3.009  0.4300  0.4098  0.3061
   21MOL   C10312943   0.162   4.424   2.905 -0.1899  0.2118  0.2440
   21MOL   C10412944   0.226   4.359   2.779  0.1567 -0.4802 -0.0571
   21MOL   O10512945   0.262   4.243   2.779 -0.0231  0.0571  0.1729
   21MOL   N10612946   0.230   4.439   2.672 -0.1637 -0.6831 -0.1187
   21MOL   C10712947   0.287   4.414   2.540  0.4697 -0.1657  0.0545
   21MOL   C10812948   0.441   4.435   2.531 -0.2790 -0.3084  0.2561
   21MOL   C10912949   0.491   4.571   2.492 -0.0339  0.3740 -0.0788
   21MOL   C11012950   0.422   4.697   2.547  0.5319  0.3636 -0.4888
   21MOL   N11112951   0.450   4.697   2.688 -0.3956 -0.1557  0.1349
   21MOL   H11212952   0.262   4.168   3.293 -0.5589  0.0323  0.8810
   21MOL   H11312953   0.154   4.102   3.184 -0.9335 -1.1457  0.6841
   21MOL   H11412954   0.234   4.395   3.167  0.4571 -0.4166  1.1790
   21MOL   H11512955   0.315   4.271   3.093 -0.4431 -1.5944  1.5632
   21MOL   H11612956   0.014   4.342   3.031 -0.8614 -1.9441 -2.8215
   21MOL   H11712957   0.102   4.224   2.955 -1.8776  0.1715  1.3723
   21MOL   H11812958   0.238   4.492   2.944 -1.2502  2.0597 -0.8675
   21MOL   H11912959   0.073   4.482   2.882 -1.0034 -1.3137 -0.5757
   21MOL   H12012960   0.212   4.536   2.689 -0.1581 -0.8841  1.0781
   21MOL   H12112961   0.244   4.487   2.471  1.0446 -0.1228 -0.2674
   21MOL   H12212962   0.262   4.310   2.521 -2.1597  0.3355  0.6075
   21MOL   H12312963   0.480   4.406   2.629 -2.2690  1.9955  1.7779
   21MOL   H12412964   0.484   4.360   2.464 -0.4431  0.6659 -0.9470
   21MOL   H12512965   0.491   4.576   2.383  2.1289 -1.2259 -0.1650
   21MOL   H12612966   0.595   4.580   2.523  0.6006  1.8757 -2.5185
   21MOL   H12712967   0.316   4.707   2.523  0.2785 -0.2174  0.3814
   21MOL   H12812968   0.477   4.779   2.501  1.9292  0.4092  1.2438
   21MOL   H12912969   0.545   4.711   2.720 -0.9527 -0.7609  2.1699
   21MOL   C13012970   0.370   4.717   2.793  0.1297 -0.1182  0.2517
   21MOL   O13112971   0.247   4.720   2.785 -0.2699 -0.1484 -0.2310
   21MOL   C13212972   0.451   4.731   2.925 -0.9842  0.6247  0.5348
   21MOL   C13312973   0.480   4.872   2.961  0.8655  0.9194  0.9944
   21MOL   C13412974   0.564   4.892   3.086  0.2072  0.0413  0.2409
   21MOL   C13512975   0.559   5.041   3.136  0.4089  0.4259 -0.5395
   21MOL   C13612976   0.648   5.139   3.058  0.1219  0.1562  0.7354
   21MOL   O13712977   0.742   5.106   2.989  0.2629  0.3178  0.5711
   21MOL   N13812978   0.623   5.269   3.082  0.1408 -0.7749  0.4006
   21MOL   C13912979   0.718   5.366   3.031 -0.0259 -1.3410  0.9254
   21MOL   C14012980   0.643   5.501   3.036  0.1177 -0.0808  0.1931
   21MOL   C14112981   0.713   5.614   2.963 -0.0456  0.3636  0.0394
   21MOL   C14212982   0.673   5.756   3.022  0.2068  0.1566  0.4849
   21MOL   N14312983   0.746   5.783   3.149 -0.9655 -0.7040 -0.1733
   21MOL   H14412984   0.421   4.671   3.011  1.7081  1.2036  1.9443
   21MOL   H14512985   0.550   4.689   2.902  0.1393  3.6753 -0.4614
   21MOL   H14612986   0.517   4.925   2.874  0.3496  0.8407  0.7266
   21MOL   H14712987   0.382   4.915   2.979  0.8628  0.7306  1.4465
   21MOL   H14812988   0.658   4.842   3.061 -1.1906 -2.3410 -0.4527
   21MOL   H14912989   0.523   4.830   3.165 -1.7148  1.7835  0.6466
   21MOL   H15012990   0.605   5.043   3.235 -1.0394 -1.4987  0.1848
   21MOL   H15112991   0.455   5.072   3.148  1.3785  3.3465  0.8140
   21MOL   H15212992   0.563   5.302   3.157 -0.9376 -1.8020  0.0041
   21MOL   H15312993   0.734   5.351   2.924 -0.9227 -1.8034  0.8502
   21MOL   H15412994   0.810   5.358   3.089  0.3725 -0.2283  0.4629
   21MOL   H15512995   0.549   5.478   2.984 -0.4419  0.7647  0.8118
   21MOL   H15612996   0.627   5.519   3.142  1.0307 -1.5701  0.6091
   21MOL   H15712997   0.692   5.601   2.857 -3.9019 -1.2396  0.9166
   21MOL   H15812998   0.821   5.606   2.977 -0.3763 -0.9265  2.0827
   21MOL   H15912999   0.565   5.766   3.032  0.0744 -0.5453 -0.1965
   21MOL   H16013000   0.698   5.832   2.947  2.7463 -1.0674  0.0370
   21MOL   H16113001   0.798   5.718   3.205  1.3346 -0.3269 -1.7885
   21MOL   C16213002   0.770   5.908   3.193 -0.2908  0.7216 -0.5170
   21MOL   O16313003   0.720   6.005   3.135 -0.3230  0.4993  0.4033
   21MOL   C16413004   0.855   5.933   3.323 -0.1229 -0.5150 -0.6610
   21MOL   C16513005   0.812   6.057   3.405  0.5622  0.0800  0.6004
   21MOL   C16613006   0.912   6.174   3.392 -0.1911  0.1303  0.3336
   21MOL   C16713007   0.877   6.314   3.449  0.6980  0.2534  0.0115
   21MOL   C16813008   0.994   6.408   3.472 -0.2541  0.5566  0.3753
   21MOL   O16913009   1.081   6.406   3.382  0.1005 -0.6503 -0.5693
   21MOL   N17013010   0.990   6.493   3.573  0.1912  0.6901 -0.0424
   21MOL   C17113011   1.091   6.605   3.591 -0.8397  0.1465 -0.1435
   21MOL   C17213012   1.061   6.722   3.509  0.1342 -0.0379  0.9173
   21MOL   C17313013   0.909   6.746   3.499  0.0875 -0.4500 -0.3908
   21MOL   C17413014   0.876   6.888   3.445 -0.1377  0.2840 -0.7388
   21MOL   N17513015   0.735   6.905   3.403  0.2796 -0.6233 -0.1126
   21MOL   H17613016   0.845   5.840   3.379 -0.3687  0.5872  1.1349
   21MOL   H17713017   0.962   5.936   3.305 -0.0788  0.7580 -0.1653
   21MOL   H17813018   0.712   6.090   3.377  0.5403 -0.3592  0.1391
   21MOL   H17913019   0.791   6.035   3.509 -0.3956  2.4625  0.9380
   21MOL   H18013020   0.940   6.189   3.287  2.1474  1.8566  1.1410
   21MOL   H18113021   1.002   6.140   3.443  0.4940  1.4496  0.0278
   21MOL   H18213022   0.838   6.300   3.550 -3.1615 -1.2613 -1.5566
   21MOL   H18313023   0.794   6.354   3.391  2.3084  0.1579 -2.4078
   21MOL   H18413024   0.919   6.468   3.641 -1.9428 -0.2250 -2.5128
   21MOL   H18513025   1.186   6.557   3.566 -0.8212 -1.4627  2.8074
   21MOL   H18613026   1.104   6.627   3.697  1.0693 -3.1145  0.3575
   21MOL   H18713027   1.104   6.811   3.553  1.0212  1.2448 -2.3654
   21MOL   H18813028   1.096   6.697   3.408 -1.6801 -2.2013  0.7811
   21MOL   H18913029   0.865   6.730   3.597  0.8251  3.6816  0.7086
   21MOL   H19013030   0.863   6.675   3.430  1.0531 -1.1480 -0.3182
   21MOL   H19113031   0.942   6.904   3.360  0.8063 -0.5865 -0.1905
   21MOL   H19213032   0.899   6.953   3.530  1.1366  0.1661 -0.9880
   21MOL   H19313033   0.674   6.970   3.451  0.1028 -0.3731 -0.6778
   21MOL   C19413034   0.667   6.832   3.308  0.1670 -0.6013 -0.0971
   21MOL   O19513035   0.725   6.745   3.243  0.0115  0.9653 -0.1188
   21MOL   C19613036   0.514   6.856   3.307  0.6421  0.5123  0.0893
   21MOL   C19713037   0.423   6.753   3.238 -0.2732  0.3024  0.1843
   21MOL   C19813038   0.398   6.779   3.089 -0.5261 -0.5404  0.3901
   21MOL   C19913039   0.303   6.676   3.019 -0.4544 -0.5122 -0.4503
   21MOL   C20013040   0.154   6.683   3.069  0.1256 -0.8747 -0.5291
   21MOL   O20113041   0.119   6.618   3.162  0.7842  0.1479 -0.0018
   21MOL   N20213042   0.072   6.772   3.009 -0.1099  0.1455 -0.8055
   21MOL   C20313043   7.633   6.796   3.037 -0.0384 -0.3350  0.1855
   21MOL   C20413044   7.547   6.786   2.914  0.2548  0.7763 -0.0792
   21MOL   C20513045   7.561   6.644   2.848  0.4480  0.6361  0.5297
   21MOL   C20613046   7.453   6.615   2.742 -0.4704 -0.3646  0.3756
   21MOL   N20713047   7.449   6.481   2.685 -0.5213  0.2882  0.1315
   21MOL   H20813048   0.478   6.849   3.410  1.9379 -2.9655  0.4110
   21MOL   H20913049   0.478   6.953   3.274 -0.8560  0.0204  0.2614
   21MOL   H21013050   0.469   6.654   3.249 -1.3896 -0.4491 -1.7599
   21MOL   H21113051   0.324   6.751   3.283 -0.9222  0.0231 -1.2178
   21MOL   H21213052   0.493   6.774   3.035  0.6402  2.8807  2.0250
   21MOL   H21313053   0.370   6.883   3.074 -2.5309 -1.0549  0.4773
   21MOL   H21413054   0.332   6.572   3.029 -0.4750 -0.4603  0.1726
   21MOL   H21513055   0.305   6.703   2.913  1.0910 -0.3009 -0.3756
   21MOL   H21613056   0.115   6.823   2.933 -0.4264  0.4452 -0.7848
   21MOL   H21713057   7.628   6.900   3.067 -0.2800 -0.2077 -0.2933
   21MOL   H21813058   7.591   6.734   3.116  1.1305 -1.7188 -0.2573
   21MOL   H21913059   7.444   6.799   2.948 -0.5311  0.1315 -2.1401
   21MOL   H22013060   7.572   6.867   2.846  0.4889  2.0565  1.5251
   21MOL   H22113061   7.540   6.574   2.928 -3.9970  0.5345 -0.5838
   21MOL   H22213062   7.659   6.624   2.804 -0.4814 -0.1623 -1.2577
   21MOL   H22313063   7.477   6.687   2.664  2.3153 -0.9726  0.6116
   21MOL   H22413064   7.351   6.625   2.777 -0.6474  0.8495 -0.4481
   21MOL   H22513065   7.423   6.408   2.750 -1.0127  0.8856  0.6066
   21MOL   C22613066   7.443   6.465   2.547 -0.6558  0.0768 -0.2088
   21MOL   O22713067   7.465   6.561   2.471 -0.0168  0.3749 -0.2388
   21MOL   C22813068   7.439   6.324   2.489  0.1882 -0.0529  0.7067
   21MOL   C22913069   7.331   6.311   2.370 -0.2130  0.7764  0.5783
   21MOL   C23013070   7.343   6.176   2.295 -0.0644 -0.0607 -0.1229
   21MOL   C23113071   7.223   6.151   2.210  0.2292  0.2030 -0.1373
   21MOL   C23213072   7.225   6.214   2.072  0.0681  0.7535  0.2971
   21MOL   O23313073   7.309   6.181   1.994  0.9982  0.1984  0.0753
   21MOL   N23413074   7.135   6.311   2.053  0.1376  0.2226 -0.2408
   21MOL   C23513075   7.115   6.389   1.933 -0.0124 -0.1774  0.2706
   21MOL   C23613076   7.140   6.541   1.970  0.5648  0.3615 -0.3329
   21MOL   C23713077   7.265   6.573   2.058 -0.3039 -0.3958  0.0204
   21MOL   C23813078   7.408   6.547   2.004  0.5757 -0.3958 -0.2303
   21MOL   N23913079   7.495   6.572   2.105  0.0745  0.3428  0.6384
   21MOL   H24013080   7.536   6.294   2.449 -0.1644 -1.6978  1.0323
   21MOL   H24113081   7.404   6.263   2.572 -1.8492 -1.6043 -1.2441
   21MOL   H24213082   7.234   6.322   2.418 -1.0270 -2.9825 -0.0226
   21MOL   H24313083   7.341   6.390   2.297 -0.6480 -2.5094 -3.2070
   21MOL   H24413084   7.371   6.098   2.366 -0.7236  0.9842  1.2921
   21MOL   H24513085   7.429   6.185   2.229  0.5694 -0.6823  0.6111
   21MOL   H24613086   7.127   6.177   2.256 -0.0336 -0.8068 -0.0866
   21MOL   H24713087   7.228   6.045   2.183 -0.0579 -0.1234  1.0492
   21MOL   H24813088   7.068   6.320   2.128 -0.0947  0.6773 -0.4988
   21MOL   H24913089   7.011   6.381   1.902  0.0239 -1.1843  0.3869
   21MOL   H25013090   7.166   6.346   1.847  1.5540 -1.8520  1.9794
   21MOL   H25113091   7.135   6.594   1.874  2.5315 -1.2886 -1.3796
   21MOL   H25213092   7.048   6.560   2.026  0.4721  2.1150 -1.0429
   21MOL   H25313093   7.262   6.515   2.150  1.6378  0.1279  0.4426
   21MOL   H25413094   7.262   6.670   2.107  0.2391 -0.8902  1.0364
   21MOL   H25513095   7.419   6.606   1.913 -2.7049  0.0034 -0.4606
   21MOL   H25613096   7.410   6.438   1.994 -0.3384 -0.5931  1.4584
   21MOL   H25713097   7.529   6.491   2.155  0.6016 -0.1893 -0.5569
   21MOL   C25813098   7.552   6.691   2.143  0.4277  0.5412 -0.0022
   21MOL   O25913099   7.507   6.796   2.096  0.1727  0.4167  0.3454
   21MOL   C26013100   7.671   6.673   2.242 -1.0530  0.6574 -0.2254
   21MOL   C26113101   7.697   6.794   2.330 -0.3778  0.0359 -0.2084
   21MOL   C26213102   0.098   6.781   2.453  0.2636  0.2844 -0.0131
   21MOL   C26313103   0.157   6.915   2.508  0.3799  0.2461  0.0113
   21MOL   C26413104   0.237   6.901   2.630  0.6351  0.4711  0.2332
   21MOL   O26513105   0.186   6.831   2.719  0.3268 -0.1970  0.2030
   21MOL   N26613106   0.351   6.967   2.641  0.2055 -0.1313 -0.0932
   21MOL   C26713107   0.422   6.993   2.762 -0.0901  0.3678  0.4576
   21MOL   C26813108   0.375   7.118   2.832 -0.2832  0.4186 -0.0880
   21MOL   C26913109   0.409   7.254   2.774  0.5269  0.5065 -0.0120
   21MOL   C27013110   0.343   7.377   2.849 -0.7593  0.4184  0.8168
   21MOL   N27113111   0.398   7.411   2.983 -0.0934 -0.1806  0.3699
   21MOL   H27213112   7.651   6.592   2.312 -1.1515  1.3646  0.5643
   21MOL   H27313113   0.062   6.647   2.190 -1.5333  0.8959 -1.2087
   21MOL   H27413114   0.049   6.872   2.276 -1.8360  0.2379 -1.3925
   21MOL   H27513115   7.602   6.842   2.352  0.6680  2.1273 -0.1444
   21MOL   H27613116   0.182   6.717   2.424  0.0563 -0.6542  1.3959
   21MOL   H27713117   0.041   6.732   2.532 -2.1434  0.5302 -1.5395
   21MOL   H27813118   0.084   6.995   2.515 -0.3167 -0.2359 -1.4380
   21MOL   H27913119   0.225   6.955   2.433 -1.1265  2.4958 -0.1662
   21MOL   H28013120   0.371   7.035   2.570 -0.1796 -0.5377 -0.5935
   21MOL   H28113121   0.531   7.000   2.751  0.3243 -2.6502  2.0682
   21MOL   H28213122   0.409   6.909   2.831  3.2476 -0.3134  0.3651
   21MOL   H28313123   0.267   7.102   2.843 -0.3141 -0.4983 -1.5659
   21MOL   H28413124   0.417   7.131   2.932  0.3827  0.6968 -0.4034
   21MOL   H28513125   0.388   7.253   2.668 -2.9911  0.1458  0.6318
   21MOL   H28613126   0.517   7.270   2.784  0.6383  0.8114 -1.6754
   21MOL   H28713127   0.234   7.389   2.846 -0.7273  0.1623 -2.4248
   21MOL   H28813128   0.382   7.452   2.781 -0.6661  0.2909  0.7309
   21MOL   H28913129   0.490   7.454   2.988  0.5037 -1.3323 -0.4534
   21MOL   C29013130   0.335   7.413   3.104 -0.3702 -0.3323  0.9561
   21MOL   O29113131   0.214   7.392   3.115 -0.4346 -0.2652 -0.2771
   21MOL   C29213132   0.421   7.454   3.224  0.7235 -0.1109  0.0526
   21MOL   C29313133   0.402   7.357   3.342  0.5446 -0.1519 -0.3884
   21MOL   C29413134   0.495   7.394   3.457 -0.0637  0.1300 -0.1096
   21MOL   C29513135   0.474   7.324   3.589 -0.2097 -0.2531 -0.1168
   21MOL   C29613136   0.473   7.170   3.581 -0.1474 -0.1503  0.3095
   21MOL   O29713137   0.550   7.112   3.504  0.7587  0.4751  0.2773
   21MOL   N29813138   0.387   7.106   3.660 -0.2943  0.0999  0.4295
   21MOL   C29913139   0.393   6.960   3.679 -0.0164  0.4244 -0.3929
   21MOL   C30013140   0.276   6.931   3.777  0.1018  0.4538 -0.2134
   21MOL   C30113141   0.279   6.782   3.807 -0.2432 -0.1777 -0.1355
   21MOL   C30213142   0.148   6.732   3.875  0.4490 -0.1424  0.3578
   21MOL   N30313143   0.143   6.595   3.924  0.4531  0.2955 -0.0946
   21MOL   H30413144   0.529   7.463   3.211  0.9498  2.0330  2.8504
   21MOL   H30513145   0.383   7.553   3.250  1.9151  0.3057  0.2321
   21MOL   H30613146   0.302   7.371   3.384  0.3689  0.7316 -1.0874
   21MOL   H30713147   0.411   7.253   3.312  1.3088 -0.5220  1.0693
   21MOL   H30813148   0.499   7.502   3.473  1.8366  0.0013  0.4209
   21MOL   H30913149   0.593   7.362   3.421 -0.7868 -2.6833  0.2961
   21MOL   H31013150   0.383   7.358   3.638 -0.5893 -2.0101  0.4022
   21MOL   H31113151   0.550   7.363   3.658 -1.0387  0.8704  0.1816
   21MOL   H31213152   0.320   7.162   3.710 -0.4356 -0.9486  1.4298
   21MOL   H31313153   0.491   6.925   3.711  0.6590  0.5471 -2.2633
   21MOL   H31413154   0.364   6.896   3.595 -1.9971  1.9302 -0.8921
   21MOL   H31513155   0.281   6.998   3.863 -1.9256  1.5515 -0.8870
   21MOL   H31613156   0.182   6.961   3.729 -1.6872 -2.3860  1.3457
   21MOL   H31713157   0.362   6.769   3.877  0.4033  0.7013 -0.7156
   21MOL   H31813158   0.302   6.716   3.724 -0.7405  1.5083 -1.6500
   21MOL   H31913159   0.071   6.742   3.798  0.8058  0.6771  0.1028
   21MOL   H32013160   0.127   6.798   3.959 -1.7240  0.4996 -0.6337
   21MOL   H32113161   0.090   6.539   3.858  1.1851  1.5390 -1.7796
   21MOL   C32213162   0.217   6.553   4.027 -0.2811 -0.4978  0.2837
   21MOL   O32313163   0.287   6.630   4.093 -0.1561  0.5197 -0.1972
   21MOL   C32413164   0.198   6.404   4.073 -0.2382  0.2093 -0.6634
   21MOL   C32513165   0.207   6.389   4.230  0.1033 -0.3818 -0.0979
   21MOL   C32613166   0.140   6.258   4.275  0.3766 -0.4707  0.2282
   21MOL   C32713167   0.216   6.127   4.227  0.3814 -0.3947 -0.5119
   21MOL   C32813168   0.159   6.072   4.097 -0.3687  0.7000 -0.0130
   21MOL   O32913169   0.044   6.027   4.093  0.1266 -0.5665  0.2871
   21MOL   N33013170   0.232   6.060   3.991 -0.8327 -0.3925 -0.8469
   21MOL   C33113171   0.210   5.995   3.863  0.1344 -0.2207 -0.4779
   21MOL   C33213172   0.240   6.091   3.745 -0.2703  0.7249  0.0855
   21MOL   C33313173   0.391   6.131   3.732 -0.0684  0.1324 -0.2024
   21MOL   C33413174   0.501   6.010   3.746  0.0889  0.4458 -0.7750
   21MOL   N33513175   0.481   5.898   3.649  0.6554  0.0456 -0.3108
   21MOL   H33613176   0.095   6.381   4.046 -1.0138  0.1941  2.1759
   21MOL   H33713177   0.265   6.337   4.019 -0.1596  0.7590 -1.2528
   21MOL   H33813178   0.313   6.390   4.254 -0.1007 -0.7013  0.8487
   21MOL   H33913179   0.152   6.472   4.276  0.7390  0.4555 -0.8307
   21MOL   H34013180   0.033   6.246   4.255 -0.0214 -1.1041  2.5516
   21MOL   H34113181   0.156   6.265   4.383  0.1003  1.0315  0.1942
   21MOL   H34213182   0.194   6.046   4.296  2.0776 -0.8122 -0.4225
   21MOL   H34313183   0.325   6.138   4.234  0.3657  0.8102 -1.8191
   21MOL   H34413184   0.322   6.106   3.991 -1.7270  1.4687 -3.2204
   21MOL   H34513185   0.106   5.965   3.850 -0.1449 -0.0932  1.3568
   21MOL   H34613186   0.277   5.909   3.853 -1.4053 -1.3990 -0.8983
   21MOL   H34713187   0.213   6.033   3.657  0.5055  0.0907  0.2693
   21MOL   H34813188   0.179   6.181   3.751 -2.8641 -1.1023  3.0750
   21MOL   H34913189   0.416   6.212   3.800  1.2333 -0.1222 -0.3756
   21MOL   H35013190   0.398   6.172   3.631  0.1019 -0.0667 -0.2712
   21MOL   H35113191   0.510   5.970   3.847 -0.8117  0.7221 -0.5852
   21MOL   H35213192   0.598   6.056   3.728  0.1086 -0.4863 -3.2097
   21MOL   H35313193   0.391   5.904   3.604 -1.1800 -1.3253  2.9774
   21MOL   C35413194   0.562   5.798   3.617  0.3199 -0.1109 -0.0266
   21MOL   O35513195   0.646   5.765   3.701  0.5342 -0.5715 -0.5471
   21MOL   C35613196   0.549   5.724   3.484  0.2757  0.1842 -0.2118
   21MOL   C35713197   0.637   5.591   3.476  0.5358  0.6650 -0.5882
   21MOL   C35813198   0.573   5.471   3.563 -0.0051 -0.1975  0.1059
   21MOL   C35913199   0.670   5.366   3.600  0.0317  0.0821  0.1277
   21MOL   C36013200   0.697   5.255   3.497 -0.3860  0.1492  0.1683
   21MOL   O36113201   0.620   5.240   3.399  0.0686  0.0670  0.5702
   21MOL   N36213202   0.810   5.177   3.511  0.2366 -0.1715 -0.3966
   21MOL   C36313203   0.831   5.057   3.434 -0.1430 -0.1486  0.3266
   21MOL   C36413204   0.922   5.076   3.309  0.5075 -0.0014 -0.6469
   21MOL   C36513205   0.935   4.939   3.242  0.1824 -0.4797  0.2493
   21MOL   C36613206   1.031   4.933   3.120  0.3729  0.0647  0.0137
   21MOL   N36713207   0.990   5.031   3.017 -0.0325 -0.0874  0.6059
   21MOL   H36813208   0.444   5.713   3.457  0.5339 -1.0193 -0.7597
   21MOL   H36913209   0.581   5.785   3.399 -1.0459 -1.2260 -1.7739
   21MOL   H37013210   0.658   5.565   3.372  1.4767  1.5601 -0.6286
   21MOL   H37113211   0.732   5.625   3.517  0.4278 -0.3407  0.5037
   21MOL   H37213212   0.486   5.422   3.518  0.6276 -1.8068  0.6066
   21MOL   H37313213   0.542   5.507   3.661 -1.6219  0.8779 -0.7742
   21MOL   H37413214   0.629   5.333   3.695 -2.3019  0.4742 -0.6900
   21MOL   H37513215   0.766   5.407   3.631 -0.7751  2.7482 -0.7820
   21MOL   H37613216   0.863   5.192   3.596  0.0800 -0.3201 -0.2747
   21MOL   H37713217   0.735   5.011   3.413 -1.2188  2.5406 -0.8906
   21MOL   H37813218   0.872   4.987   3.507  3.4381 -0.2311 -1.6367
   21MOL   H37913219   0.869   5.138   3.237 -2.3978  0.0603  1.4683
   21MOL   H38013220   1.022   5.112   3.332  0.1108  0.8657 -0.2614
   21MOL   H38113221   0.834   4.919   3.208  0.0774 -1.1179  0.9207
   21MOL   H38213222   0.963   4.867   3.319 -1.1645  2.4977  3.6243
   21MOL   H38313223   1.032   4.833   3.076  0.3427  0.5285 -1.0587
   21MOL   H38413224   1.131   4.956   3.157  0.4478  0.6361 -0.5244
   21MOL   H38513225   0.896   5.045   2.983  0.9276 -0.4117 -2.3369
   21MOL   C38613226   1.086   5.093   2.939  0.0902  0.6627  0.9363
   21MOL   O38713227   1.207   5.083   2.959 -0.1755 -0.1152  0.2064
   21MOL   C38813228   1.044   5.185   2.827  0.6653  0.1549  0.1402
   21MOL   C38913229   1.160   5.217   2.731 -0.1087  0.3480  0.0581
   21MOL   C39013230   1.112   5.269   2.593 -0.1938 -0.1317 -0.7390
   21MOL   C39113231   1.221   5.330   2.508  0.2752 -0.3972  0.3187
   21MOL   C39213232   1.308   5.229   2.427  0.4367  1.1070 -0.5273
   21MOL   O39313233   1.263   5.115   2.409 -0.0582  0.9415  0.4267
   21MOL   N39413234   1.426   5.262   2.380  0.5166  0.0825  0.0050
   21MOL   C39513235   1.494   5.185   2.274  0.7435  0.1224  0.2133
   21MOL   C39613236   1.445   5.235   2.134  0.1506  0.2785  0.5620
   21MOL   C39713237   1.503   5.160   2.010 -0.2553  0.8569  0.2981
   21MOL   C39813238   1.511   5.241   1.882  0.5960 -0.8193  0.1881
   21MOL   N39913239   1.385   5.308   1.855 -0.0540  0.3638  0.1963
   21MOL   H40013240   0.962   5.130   2.782  0.0821  0.9290  0.2421
   21MOL   H40113241   1.002   5.272   2.879  0.7431 -0.0344  0.5149
   21MOL   H40213242   1.231   5.287   2.775  0.4391  0.4452 -0.9508
   21MOL   H40313243   1.218   5.128   2.706  1.6871  2.1125 -2.3712
   21MOL   H40413244   1.039   5.350   2.603  0.3737  0.2878  0.0899
   21MOL   H40513245   1.067   5.188   2.536 -0.4492 -0.8471  0.4701
   21MOL   H40613246   1.282   5.404   2.559  1.4968 -0.8762 -0.4175
   21MOL   H40713247   1.169   5.384   2.429 -0.4090  0.0895  1.1059
   21MOL   H40813248   1.467   5.349   2.410 -2.1976  0.4227  3.0298
   21MOL   H40913249   1.490   5.077   2.290 -2.6171  0.0968 -0.4921
   21MOL   H41013250   1.603   5.189   2.281  0.9540  0.9364 -2.9388
   21MOL   H41113251   1.337   5.240   2.125  0.1828  1.2611  0.7108
   21MOL   H41213252   1.467   5.341   2.126  0.5419  0.0098 -2.8070
   21MOL   H41313253   1.458   5.063   1.992 -0.7428  1.0251  0.6080
   21MOL   H41413254   1.604   5.133   2.040 -0.6505 -0.4463  0.4886
   21MOL   H41513255   1.547   5.183   1.797 -1.9880 -1.7576 -0.3039
   21MOL   H41613256   1.592   5.309   1.906 -0.1544 -0.1486  0.8683
   21MOL   H41713257   1.362   5.375   1.927 -2.3550  0.1428 -0.2995
   21MOL   C41813258   1.291   5.284   1.760 -0.6544 -0.2569 -0.1081
   21MOL   O41913259   1.295   5.184   1.687 -0.1531  0.1206 -0.2395
   21MOL   C42013260   1.174   5.385   1.766  0.1507  0.2372 -0.3185
   21MOL   C42113261   1.183   5.487   1.647  0.3953  0.3218  0.1335
   21MOL   C42213262   1.306   5.578   1.666 -0.2090 -0.3870 -0.0092
   21MOL   C42313263   1.322   5.701   1.574  0.4835 -0.0600  0.6802
   21MOL   C42413264   1.229   5.818   1.593 -0.0311  0.1277 -0.3836
   21MOL   O42513265   1.127   5.804   1.666 -0.6961  0.0092 -0.2796
   21MOL   N42613266   1.268   5.930   1.534 -0.3674 -0.1638 -0.5070
   21MOL   C42713267   1.218   6.067   1.555 -0.2262  0.5738  1.2337
   21MOL   C42813268   1.088   6.097   1.480  0.3099  0.0504  0.2923
   21MOL   C42913269   1.045   6.242   1.484 -0.0465 -0.4175  0.3527
   21MOL   C43013270   0.909   6.264   1.436  0.7549  0.0713 -0.1018
   21MOL   N43113271   0.857   6.399   1.452 -0.6674  0.0039  0.1194
   21MOL   H43213272   1.086   5.323   1.753  0.9368 -1.5124  2.3624
   21MOL   H43313273   1.173   5.442   1.858 -0.0977 -0.1718 -0.0696
   21MOL   H43413274   1.197   5.430   1.556  1.1085 -1.2168  1.1793
   21MOL   H43513275   1.087   5.538   1.652  1.1962  1.7966  0.6188
   21MOL   H43613276   1.403   5.529   1.669  0.9911  1.9101 -0.1804
   21MOL   H43713277   1.302   5.609   1.770 -1.4524  1.0224 -0.4657
   21MOL   H43813278   1.317   5.655   1.475  0.7290  0.2672  0.5153
   21MOL   H43913279   1.424   5.738   1.581  0.7086  0.2016 -2.8488
   21MOL   H44013280   1.354   5.913   1.484  1.0552  2.9626  0.7330
   21MOL   H44113281   1.299   6.129   1.516  0.2702 -1.0084 -0.2961
   21MOL   H44213282   1.207   6.094   1.660 -1.6661  0.8356  1.0232
   21MOL   H44313283   1.098   6.067   1.376 -0.8999  0.5261  0.0343
   21MOL   H44413284   1.008   6.029   1.508  0.1279 -0.0643 -0.5095
   21MOL   H44513285   1.115   6.310   1.435 -0.6469 -1.3614 -1.8625
   21MOL   H44613286   1.050   6.269   1.590  1.5388  0.8440 -0.0217
   21MOL   H44713287   0.843   6.198   1.492  1.3479 -1.5802 -1.3279
   21MOL   H44813288   0.894   6.236   1.331  0.1329  0.4221 -0.1080
   21MOL   H44913289   0.785   6.413   1.522 -0.8997  2.9456 -0.6324
   21MOL   C45013290   0.897   6.499   1.368 -0.3551  0.3735  0.2163
   21MOL   O45113291   0.978   6.481   1.279 -0.0107  0.1443  0.0205
   21MOL   C45213292   0.824   6.630   1.394 -0.2059  0.7737  0.4136
   21MOL   C45313293   0.729   6.661   1.279 -0.0721 -0.6475 -0.0990
   21MOL   C45413294   0.596   6.579   1.281  0.2289 -0.0995 -0.3838
   21MOL   C45513295   0.493   6.638   1.183 -0.3947  0.0812  0.1628
   21MOL   C45613296   0.508   6.585   1.044 -0.0402  0.2993  0.5541
   21MOL   O45713297   0.571   6.656   0.962  0.4559 -0.4514  0.4164
   21MOL   N45813298   0.478   6.460   1.027 -0.2374  0.2521 -0.2869
   21MOL   C45913299   0.509   6.380   0.905 -0.1958  0.2765 -0.1995
   21MOL   C46013300   0.630   6.279   0.919 -0.8014  0.5791 -0.8474
   21MOL   C46113301   0.759   6.335   0.983  0.4381 -0.2244  0.2078
   21MOL   C46213302   0.862   6.219   0.992 -0.1616  0.1916  0.1644
   21MOL   N46313303   0.985   6.248   1.065  0.4553 -0.3042 -0.0494
   21MOL   H46413304   0.774   6.649   1.489 -3.3747  1.0118 -1.2640
   21MOL   H46513305   0.897   6.710   1.381  0.8698 -0.6351 -2.5484
   21MOL   H46613306   0.710   6.768   1.290  2.3486 -0.2868  0.9728
   21MOL   H46713307   0.782   6.647   1.185  1.9697  1.0355  0.7609
   21MOL   H46813308   0.540   6.576   1.375 -2.8773  1.2155 -2.1053
   21MOL   H46913309   0.615   6.474   1.258 -0.0292 -0.3734  0.6443
   21MOL   H47013310   0.486   6.746   1.178  2.2896  0.2878 -0.3338
   21MOL   H47113311   0.391   6.619   1.213 -0.9457  2.1845 -0.3227
   21MOL   H47213312   0.442   6.409   1.106 -0.3027 -0.2041 -0.6070
   21MOL   H47313313   0.532   6.452   0.827 -0.1450 -0.0418 -0.4827
   21MOL   H47413314   0.423   6.329   0.863 -0.0389  0.7265 -1.0762
   21MOL   H47513315   0.587   6.199   0.980 -1.9537  2.6898  1.2076
   21MOL   H47613316   0.653   6.247   0.818 -1.9596  0.3136 -1.0375
   21MOL   H47713317   0.732   6.368   1.083 -4.2805  0.6660 -1.2246
   21MOL   H47813318   0.790   6.423   0.928 -0.6130  1.0577  1.6342
   21MOL   H47913319   0.879   6.188   0.888 -1.0657  1.3967 -0.3489
   21MOL   H48013320   0.809   6.135   1.037 -1.4154 -0.1914 -1.9427
   21MOL   H48113321   0.983   6.318   1.138 -0.8827 -0.1887 -0.1883
   21MOL   C48213322   1.102   6.183   1.053  0.2647 -0.1738  0.1679
   21MOL   O48313323   1.120   6.087   0.974  0.0999 -0.1894  0.2763
   21MOL   C48413324   1.209   6.226   1.154 -0.0729 -0.5216 -0.1295
   21MOL   C48513325   1.329   6.304   1.099 -0.4697  0.5217  0.2869
   21MOL   C48613326   1.430   6.337   1.198 -0.6769 -0.4143  0.1187
   21MOL   C48713327   1.560   6.396   1.147 -0.5269  0.5537 -0.9296
   21MOL   C48813328   1.604   6.512   1.238 -0.0830  0.7849  0.6066
   21MOL   O48913329   1.701   6.498   1.307 -0.0785  0.1338 -0.3938
   21MOL   N49013330   1.528   6.615   1.228 -0.1986 -0.1022  0.1580
   21MOL   C49113331   1.541   6.736   1.309 -0.0164  1.2289  0.1631
   21MOL   C49213332   1.406   6.783   1.371 -0.0209  0.1432  0.0840
   21MOL   C49313333   1.333   6.681   1.469 -0.2924 -0.6733 -0.4400
   21MOL   C49413334   1.206   6.757   1.524 -0.2212  0.6686 -0.1342
   21MOL   N49513335   1.146   6.672   1.621 -0.1737  0.2945 -0.2283
   21MOL   H49613336   1.164   6.284   1.234 -0.1343 -0.4311 -0.2307
   21MOL   H49713337   1.242   6.138   1.209 -0.8857  1.5249  3.8315
   21MOL   H49813338   1.369   6.255   1.011 -0.0410  2.7374 -0.7874
   21MOL   H49913339   1.296   6.397   1.054  0.4194  1.1899  1.0015
   21MOL   H50013340   1.449   6.240   1.243  2.6028  1.3133  2.6519
   21MOL   H50113341   1.395   6.406   1.276  1.1152  0.1004  0.4859
   21MOL   H50213342   1.551   6.435   1.046 -0.5825  2.4799 -0.1909
   21MOL   H50313343   1.650   6.336   1.163  0.5770  1.4206 -3.7087
   21MOL   H50413344   1.440   6.605   1.179 -0.2163 -1.5124  0.4599
   21MOL   H50513345   1.580   6.810   1.239  2.2402  0.9852  1.1112
   21MOL   H50613346   1.615   6.730   1.389  1.1678  0.2095 -0.9918
   21MOL   H50713347   1.415   6.880   1.420 -2.2920 -0.4950  1.8656
   21MOL   H50813348   1.340   6.813   1.289  1.1500 -1.7076 -1.5856
   21MOL   H50913349   1.398   6.635   1.544 -1.2318  0.0833  0.8703
   21MOL   H51013350   1.303   6.593   1.413 -0.8337 -0.8994  0.1918
   21MOL   H51113351   1.139   6.790   1.445 -0.4482  1.1122  0.2392
   21MOL   H51213352   1.234   6.855   1.565  0.4444  0.7503 -0.7744
   21MOL   H51313353   1.177   6.577   1.636 -0.6062  0.1335 -0.3491
   21MOL   C51413354   1.031   6.687   1.689  0.3410 -0.4189  0.4443
   21MOL   O51513355   0.970   6.798   1.690 -0.0137  0.5787 -0.0925
   21MOL   C51613356   0.971   6.566   1.751 -0.4553  0.6922 -0.0260
   21MOL   C51713357   0.996   6.560   1.902  0.0838 -0.0023 -0.0101
   21MOL   C51813358   1.144   6.535   1.943 -0.8620  0.1441 -0.3018
   21MOL   C51913359   1.192   6.387   1.909  0.4132  0.0696  0.0520
   21MOL   C52013360   1.283   6.357   1.787  1.0336  0.0629  0.0027
   21MOL   O52113361   1.274   6.432   1.688  0.3801 -0.2987 -0.3445
   21MOL   N52213362   1.365   6.253   1.793  0.4352  0.1093 -0.4685
   21MOL   C52313363   1.377   6.152   1.899 -0.0862 -0.7989  0.3672
   21MOL   C52413364   1.417   6.017   1.855 -0.6260 -0.0646  1.2295
   21MOL   C52513365   1.520   6.019   1.734  0.2587 -0.2229 -0.1196
   21MOL   C52613366   1.659   6.074   1.765  0.2908 -0.7152  0.6924
   21MOL   N52713367   1.746   6.073   1.647 -0.1583  0.4077 -0.2779
   21MOL   H52813368   0.863   6.565   1.736 -0.5223  1.1190  0.4240
   21MOL   H52913369   0.996   6.471   1.703 -2.2346  1.1673 -1.9737
   21MOL   H53013370   0.966   6.649   1.956  0.2376  0.2299 -0.3068
   21MOL   H53113371   0.950   6.468   1.937 -1.2663  0.8646  0.5163
   21MOL   H53213372   1.170   6.550   2.048 -0.1972 -0.5584 -0.3621
   21MOL   H53313373   1.212   6.606   1.895  0.1262 -1.6942 -1.6468
   21MOL   H53413374   1.106   6.320   1.900 -1.1929  2.3260 -1.8848
   21MOL   H53513375   1.234   6.355   2.004 -0.1158  0.3995  0.3991
   21MOL   H53613376   1.415   6.242   1.706  1.7148  1.2156  0.0903
   21MOL   H53713377   1.281   6.147   1.950 -0.1405  0.1270  0.3687
   21MOL   H53813378   1.445   6.182   1.980 -1.2238 -0.6923  1.2872
   21MOL   H53913379   1.455   5.956   1.936  1.3453  0.0140  0.3962
   21MOL   H54013380   1.323   5.968   1.831 -0.9464  0.7280  0.8253
   21MOL   H54113381   1.476   6.077   1.653 -0.3671 -0.5671 -0.0296
   21MOL   H54213382   1.533   5.919   1.693 -0.8576  0.3901 -2.0888
   21MOL   H54313383   1.706   6.003   1.833 -0.0355 -1.3744  0.2412
   21MOL   H54413384   1.663   6.177   1.801  0.1780 -0.4376 -0.0913
   21MOL   H54513385   1.777   5.980   1.623 -0.2432  0.5681 -1.0046
   21MOL   C54613386   1.773   6.181   1.570  0.0533 -0.5725 -0.1373
   21MOL   O54713387   1.725   6.292   1.586 -0.5533  0.0760 -1.2443
   21MOL   C54813388   1.858   6.153   1.447  0.7423 -0.2711  0.1675
   21MOL   C54913389   1.988   6.223   1.455 -0.2758  0.3242 -0.0543
   21MOL   C55013390   2.065   6.206   1.324  0.4256  0.1491  0.6312
   21MOL   C55113391   2.118   6.069   1.284 -0.3820  0.1279  0.5955
   21MOL   C55213392   2.062   5.995   1.164  0.2800 -0.1555  0.1864
   21MOL   O55313393   1.997   6.062   1.080  0.1135 -0.9005 -0.0641
   21MOL   N55413394   2.079   5.864   1.165  0.0350 -0.6784 -0.2779
   21MOL   C55513395   2.053   5.790   1.044 -0.1758  0.5934 -0.0767
   21MOL   C55613396   2.101   5.647   1.073  0.0615  0.4599  0.2984
   21MOL   C55713397   2.050   5.542   0.982 -0.2447 -1.0519 -0.1425
   21MOL   C55813398   2.033   5.405   1.045 -0.4077  0.2445 -1.0147
   21MOL   N55913399   1.999   5.296   0.955 -0.6910 -0.0506  0.0822
   21MOL   H56013400   1.876   6.046   1.433 -1.6632 -0.3384 -3.2601
   21MOL   H56113401   1.798   6.196   1.367  0.8541  0.8289  0.6731
   21MOL   H56213402   1.982   6.331   1.471 -0.4582  0.3417 -0.2400
   21MOL   H56313403   2.054   6.184   1.532  1.5769  0.1514 -1.7014
   21MOL   H56413404   2.149   6.275   1.327  0.1476  0.6501 -1.8835
   21MOL   H56513405   2.005   6.259   1.250  2.1677  0.9239 -0.2614
   21MOL   H56613406   2.096   6.001   1.367  1.6883 -1.8350 -0.4169
   21MOL   H56713407   2.226   6.067   1.274 -0.2685  0.7902  1.6520
   21MOL   H56813408   2.131   5.817   1.237  1.5230 -1.5463 -1.8794
   21MOL   H56913409   2.118   5.841   0.973  0.1369  0.8756  0.4056
   21MOL   H57013410   1.949   5.790   1.010  0.0743  0.9929 -0.8423
   21MOL   H57113411   2.210   5.649   1.077  0.2182 -0.7482 -2.1204
   21MOL   H57213412   2.067   5.625   1.174 -1.0373 -0.3064 -0.2218
   21MOL   H57313413   2.111   5.561   0.893 -2.0435 -0.5337 -1.2891
   21MOL   H57413414   1.950   5.572   0.952 -0.7186 -2.3100  0.1476
   21MOL   H57513415   1.964   5.400   1.129 -1.2784  0.5069 -1.7099
   21MOL   H57613416   2.128   5.378   1.092  0.1052 -0.0441 -2.2222
   21MOL   H57713417   2.072   5.226   0.957  0.4791  1.1810  4.2269
   21MOL   C57813418   1.911   5.277   0.859 -0.9820 -0.0766 -0.3514
   21MOL   O57913419   1.817   5.353   0.835  0.0955  0.1706 -0.4304
   21MOL   C58013420   1.919   5.145   0.789 -0.0028  0.7795  0.5032
   21MOL   C58113421   1.900   5.161   0.639  0.2095 -0.4219 -0.0841
   21MOL   C58213422   2.017   5.247   0.582 -0.4024 -0.4973 -0.3359
   21MOL   C58313423   1.995   5.265   0.431 -0.2497 -0.6571  0.1718
   21MOL   C58413424   1.996   5.133   0.346  0.2917  0.1967 -0.7026
   21MOL   O58513425   2.089   5.052   0.373  0.1634  0.1491 -0.3366
   21MOL   N58613426   1.904   5.127   0.250 -0.6572  0.1884 -0.8408
   21MOL   C58713427   1.906   5.039   0.138 -0.1812 -0.0184 -0.7079
   21MOL   C58813428   1.861   4.895   0.165 -0.2575 -0.1265 -0.2888
   21MOL   C58913429   1.840   4.809   0.037  0.2443 -0.4983  0.1349
   21MOL   C59013430   1.818   4.662   0.067  1.0210  0.4615 -0.9438
   21MOL   N59113431   1.813   4.593   7.651 -0.3087 -0.0581 -0.0664
   21MOL   H59213432   2.020   5.107   0.806 -0.0769  0.5322  0.3924
   21MOL   H59313433   1.848   5.077   0.835  0.3459  0.9216  1.2751
   21MOL   H59413434   1.898   5.064   0.590 -1.5715 -0.8941  0.8650
   21MOL   H59513435   1.807   5.216   0.621 -0.4494 -1.2416  0.7187
   21MOL   H59613436   2.110   5.200   0.613  0.9190  2.9000  1.0790
   21MOL   H59713437   2.019   5.345   0.629 -0.2475 -0.5274 -0.2793
   21MOL   H59813438   2.066   5.330   0.380  1.7854 -3.1133 -0.1733
   21MOL   H59913439   1.898   5.315   0.425  1.1250  1.8852 -1.7912
   21MOL   H60013440   1.842   5.207   0.247  1.0475  1.7368  2.1139
   21MOL   H60113441   2.003   5.036   0.089  0.7537  0.0454  1.0713
   21MOL   H60213442   1.838   5.074   0.061 -0.0642 -0.5838 -1.0694
   21MOL   H60313443   1.939   4.842   0.220 -0.1075  0.5587  0.1588
   21MOL   H60413444   1.766   4.877   0.215  0.4622 -1.0515  0.7917
   21MOL   H60513445   1.932   4.817   7.680  0.2581  1.4320  0.3846
   21MOL   H60613446   1.767   4.842   7.664  1.6480 -1.0579 -1.5442
   21MOL   H60713447   1.722   4.648   0.118  0.9786  0.9558 -0.8823
   21MOL   H60813448   1.898   4.616   0.124 -0.6955 -0.6788  0.6170
   21MOL   H60913449   1.818   4.648   7.566 -0.0169 -0.2364 -0.1680
   21MOL   C61013450   1.792   4.460   7.641 -0.3606 -0.3057  0.8906
   21MOL   O61113451   1.806   4.384   0.037  0.2357  0.1821  0.4282
   21MOL   C61213452   1.750   4.418   7.502  0.0817 -1.1678 -0.4879
   21MOL   C61313453   1.717   4.264   7.505 -0.0792  0.5169  0.2328
   21MOL   C61413454   1.846   4.177   7.491  0.0072  0.0301 -0.3183
   21MOL   C61513455   1.910   4.194   7.354  0.2875  0.2726 -0.2054
   21MOL   C61613456   2.018   4.096   7.328  0.2478 -0.5301  0.7533
   21MOL   O61713457   2.111   4.082   7.413  0.1755  0.3169  0.0453
   21MOL   N61813458   2.011   4.022   7.217 -0.8939 -0.1954  0.7608
   21MOL   C61913459   2.091   3.902   7.185  0.6300 -0.5030 -0.2395
   21MOL   C62013460   2.194   3.931   7.075  1.0969  0.1942 -1.1506
   21MOL   C62113461   2.335   3.891   7.115 -0.3761  0.3786 -0.1675
   21MOL   C62213462   2.402   3.999   7.205 -0.1361  1.0186  0.1042
   21MOL   N62313463   2.547   3.983   7.209  0.2604 -0.6886 -0.2232
   21MOL   H62413464   1.661   4.479   7.488  1.8725  1.5649 -0.3572
   21MOL   H62513465   1.817   4.451   7.423 -0.6281 -1.2373 -1.1206
   21MOL   H62613466   1.661   4.238   7.595 -0.0636 -1.8900 -0.4162
   21MOL   H62713467   1.654   4.256   7.416 -0.3079 -1.1899  0.5291
   21MOL   H62813468   1.831   4.070   7.510 -0.8989  0.3158  0.6678
   21MOL   H62913469   1.919   4.212   7.564  1.8065 -2.1453 -1.0170
   21MOL   H63013470   1.945   4.296   7.338 -0.2038  0.2879 -1.2814
   21MOL   H63113471   1.842   4.174   7.271  1.3505 -0.0169 -1.0156
   21MOL   H63213472   1.938   4.047   7.152 -0.1889 -0.0015  0.0251
   21MOL   H63313473   2.032   3.818   7.147  1.7277 -0.8232 -1.2695
   21MOL   H63413474   2.143   3.862   7.272 -0.7789 -2.9939 -0.4999
   21MOL   H63513475   2.166   3.878   6.984 -0.5103 -1.8512  0.4944
   21MOL   H63613476   2.189   4.037   7.049  1.8036  0.0346 -1.9275
   21MOL   H63713477   2.405   3.872   7.034 -0.0773 -1.6050  0.5339
   21MOL   H63813478   2.332   3.797   7.169  0.3747 -0.0741 -0.9101
   21MOL   H63913479   2.356   4.013   7.303  1.1815  0.4309  0.8228
   21MOL   H64013480   2.389   4.099   7.162  0.9753  2.0978  2.1548
   21MOL   H64113481   2.567   3.894   7.254 -0.3233 -1.1223 -0.8240
   21MOL   H64213482   2.568   4.050   7.282 -1.4520 -0.1263 -0.2216
   22MOL     C113483   4.063   4.581   4.349  0.4786 -0.8162 -0.3209
   22MOL     O213484   3.943   4.583   4.316 -0.3443 -0.0905  0.7637
   22MOL     C313485   4.151   4.706   4.386 -0.7228 -0.2403  0.2592
   22MOL     C413486   4.201   4.787   4.270 -0.1970  0.6573 -0.1975
   22MOL     C513487   4.351   4.793   4.245  0.2350 -0.7660  0.1680
   22MOL     C613488   4.388   4.882   4.121 -0.0229  0.4355 -0.4307
   22MOL     C713489   4.379   5.028   4.161  0.3928  0.0203  0.2467
   22MOL     O813490   4.366   5.060   4.279  0.5039  0.4959 -0.3251
   22MOL     N913491   4.397   5.117   4.060  0.1789 -0.3609  0.0019
   22MOL    C1013492   4.371   5.260   4.068  0.2036  0.4034  0.3455
   22MOL    C1113493   4.500   5.330   4.129  0.2865  0.1377  0.5359
   22MOL    C1213494   4.461   5.447   4.218  0.1465 -0.3982 -0.2594
   22MOL    C1313495   4.397   5.411   4.357  0.3505 -0.2939 -0.0842
   22MOL    N1413496   4.338   5.524   4.433 -0.3281 -0.0825  0.0346
   22MOL    H1513497   4.096   4.781   4.443 -1.2635 -0.8814  0.5736
   22MOL    H1613498   4.233   4.667   4.446 -0.5780 -1.1534 -0.5293
   22MOL    H1713499   4.154   4.747   4.180  0.0572 -1.4426  0.5651
   22MOL    H1813500   4.157   4.886   4.279 -1.9420 -0.1317  0.0832
   22MOL    H1913501   4.386   4.691   4.231  2.2954 -0.1905  0.8693
   22MOL    H2013502   4.408   4.821   4.334  2.3922 -1.3030 -1.0204
   22MOL    H2113503   4.325   4.855   4.036  4.3993 -1.5570 -3.2735
   22MOL    H2213504   4.495   4.869   4.104  0.8061  4.1106  1.5302
   22MOL    H2313505   4.411   5.073   3.970 -1.6945  0.1470 -0.5479
   22MOL    H2413506   4.276   5.275   4.119  0.4319  2.3237  0.2435
   22MOL    H2513507   4.364   5.287   3.963  1.8402  0.7494  0.3085
   22MOL    H2613508   4.550   5.250   4.183 -0.1207 -2.3633 -2.6547
   22MOL    H2713509   4.555   5.368   4.043  0.4731  0.3913  0.7673
   22MOL    H2813510   4.381   5.504   4.171 -0.2874 -0.7745  0.0230
   22MOL    H2913511   4.550   5.503   4.248  0.8770 -1.0611 -1.1670
   22MOL    H3013512   4.456   5.350   4.425  3.2725  1.7903 -0.6558
   22MOL    H3113513   4.308   5.352   4.334  1.4658 -1.6570 -1.0154
   22MOL    H3213514   4.238   5.538   4.425  0.0579  1.5712 -2.8007
   22MOL    H3313515   4.122   4.490   4.352  0.4396 -1.0286 -4.0895
   22MOL    C3413516   4.406   5.612   4.510 -0.4732  0.5180 -0.1425
   22MOL    O3513517   4.526   5.594   4.528  0.0321  0.2243 -0.1920
   22MOL    C3613518   4.334   5.729   4.564 -0.1942 -0.3138 -0.5855
   22MOL    C3713519   4.355   5.853   4.483  0.4817  0.4426  0.8848
   22MOL    C3813520   4.249   5.871   4.364  0.2070  0.0584 -1.1187
   22MOL    C3913521   4.290   5.981   4.266 -0.3601 -0.3357 -0.6079
   22MOL    C4013522   4.401   5.944   4.168  0.4268  0.1839 -0.4846
   22MOL    O4113523   4.379   5.858   4.082 -0.3240 -0.7696  0.5298
   22MOL    N4213524   4.524   5.993   4.198  0.5201  0.2235  0.0747
   22MOL    C4313525   4.647   5.928   4.154 -0.2363  0.2775 -0.4006
   22MOL    C4413526   4.740   6.004   4.060  0.4865  0.2919 -0.1611
   22MOL    C4513527   4.666   6.061   3.941  0.0100  1.1180 -0.1354
   22MOL    C4613528   4.732   6.188   3.898  0.4109 -0.2399  0.5967
   22MOL    N4713529   4.686   6.231   3.767  0.0921 -0.3347  0.3351
   22MOL    H4813530   4.234   5.699   4.598 -0.3311  2.1605  1.3665
   22MOL    H4913531   4.384   5.750   4.658 -0.3830  1.3678 -0.8316
   22MOL    H5013532   4.344   5.942   4.545 -0.7956  1.2738 -0.5039
   22MOL    H5113533   4.458   5.855   4.447  0.2494  0.9997  0.2172
   22MOL    H5213534   4.156   5.897   4.414  0.9699 -0.8114  0.8341
   22MOL    H5313535   4.228   5.777   4.314  0.2257 -0.5043 -0.0914
   22MOL    H5413536   4.320   6.073   4.317 -1.4321 -0.0493 -0.4878
   22MOL    H5513537   4.196   5.996   4.214 -1.6516 -1.3017  1.4058
   22MOL    H5613538   4.531   6.059   4.274  1.4834  0.4658 -0.2211
   22MOL    H5713539   4.617   5.834   4.109 -2.1236  0.0377  1.2980
   22MOL    H5813540   4.701   5.897   4.244 -1.9293  0.9415  0.8703
   22MOL    H5913541   4.786   6.082   4.121  0.6147  0.0773  0.0136
   22MOL    H6013542   4.823   5.938   4.037 -0.3130  0.5800 -4.1690
   22MOL    H6113543   4.559   6.079   3.954 -0.0968  0.3898  0.0339
   22MOL    H6213544   4.669   5.971   3.880  0.7090  0.1707  1.2593
   22MOL    H6313545   4.839   6.172   3.889  0.5161  0.1778  1.1297
   22MOL    H6413546   4.713   6.273   3.963 -5.1598  0.3046 -1.4023
   22MOL    H6513547   4.609   6.185   3.720 -0.8779 -0.7255  2.2692
   22MOL    C6613548   4.740   6.336   3.706 -0.7240 -0.2389  0.1238
   22MOL    O6713549   4.849   6.374   3.737  0.1500 -0.6340  0.6427
   22MOL    C6813550   4.667   6.395   3.582  0.2693  0.5800 -0.3792
   22MOL    C6913551   4.675   6.545   3.570 -0.4220  0.1893  0.1338
   22MOL    C7013552   4.628   6.599   3.435 -0.2980 -0.2921 -0.2041
   22MOL    C7113553   4.672   6.741   3.412 -0.1013 -0.5013  0.2836
   22MOL    C7213554   4.671   6.770   3.260  0.3171 -0.7799  0.5535
   22MOL    O7313555   4.568   6.810   3.209 -0.0483  0.4460 -0.3910
   22MOL    N7413556   4.787   6.748   3.192  0.4770 -0.5500  0.3170
   22MOL    C7513557   4.820   6.762   3.050 -0.0668 -0.4963  0.3745
   22MOL    C7613558   4.729   6.686   2.962 -0.2101  0.0436 -0.4133
   22MOL    C7713559   4.749   6.704   2.809  0.0637 -0.1022 -0.0352
   22MOL    C7813560   4.644   6.645   2.717 -0.5119  0.1356  0.4380
   22MOL    N7913561   4.687   6.675   2.579 -0.0998  0.4574  0.1233
   22MOL    H8013562   4.713   6.345   3.497  1.5941  2.5564 -0.8568
   22MOL    H8113563   4.563   6.361   3.580 -0.3294  2.2641  0.7832
   22MOL    H8213564   4.636   6.595   3.659 -0.0627  0.9177 -0.1236
   22MOL    H8313565   4.780   6.571   3.561 -0.5505  0.2902 -1.1679
   22MOL    H8413566   4.522   6.577   3.420  0.3122 -2.8913 -1.0137
   22MOL    H8513567   4.671   6.534   3.359  0.6051  0.7061 -0.5558
   22MOL    H8613568   4.777   6.749   3.442  0.6104 -1.0169 -1.9792
   22MOL    H8713569   4.608   6.814   3.460  1.4992  1.8484 -1.0492
   22MOL    H8813570   4.864   6.724   3.253 -0.7566  1.0841  2.6181
   22MOL    H8913571   4.916   6.715   3.030 -0.1465 -0.1917 -0.7361
   22MOL    H9013572   4.819   6.868   3.027 -1.1426 -1.0995 -2.5042
   22MOL    H9113573   4.725   6.583   2.996 -0.0281  0.7242  1.8093
   22MOL    H9213574   4.633   6.732   2.986  1.2691  2.7814  0.5826
   22MOL    H9313575   4.845   6.664   2.775 -0.3852 -1.6282  0.4583
   22MOL    H9413576   4.766   6.810   2.793  0.1438 -0.0589  0.3165
   22MOL    H9513577   4.549   6.694   2.739  0.0906  1.7735 -0.4919
   22MOL    H9613578   4.628   6.539   2.735  1.0041 -0.3921 -1.2034
   22MOL    H9713579   4.765   6.738   2.568 -0.4545  0.7542 -0.7232
   22MOL    C9813580   4.629   6.651   2.464 -0.3693  0.8765 -0.4909
   22MOL    O9913581   4.517   6.594   2.457 -0.1614  0.1499 -0.3655
   22MOL   C10013582   4.711   6.684   2.337 -0.1271 -0.2873 -0.5113
   22MOL   C10113583   4.651   6.645   2.210  0.8107  0.7004  0.0160
   22MOL   C10213584   4.532   6.730   2.163  0.2452 -0.2722  0.7399
   22MOL   C10313585   4.571   6.864   2.098  0.7224 -0.3813  0.0453
   22MOL   C10413586   4.448   6.940   2.053  0.0000 -0.6056  0.0547
   22MOL   O10513587   4.401   6.902   1.945  0.1564 -0.3730 -0.0639
   22MOL   N10613588   4.402   7.048   2.123 -0.2729 -0.1892 -0.4884
   22MOL   C10713589   4.278   7.116   2.101 -0.5315  0.7338 -0.5542
   22MOL   C10813590   4.267   7.216   1.979 -0.3249 -0.4883 -0.0982
   22MOL   C10913591   4.127   7.270   1.973  0.4635 -0.1365 -0.3752
   22MOL   C11013592   4.088   7.308   1.832 -0.0929 -0.4029 -0.0278
   22MOL   N11113593   3.954   7.363   1.834 -0.4246 -0.2256  0.0162
   22MOL   H11213594   4.735   6.790   2.346  0.4228 -0.5018  0.6330
   22MOL   H11313595   4.809   6.638   2.350  0.5591  1.5535  1.1889
   22MOL   H11413596   4.734   6.642   2.139  0.3588  2.6116 -0.6157
   22MOL   H11513597   4.622   6.541   2.224 -0.6252  1.2660  1.2512
   22MOL   H11613598   4.450   6.750   2.232  0.2012 -3.2655  1.6324
   22MOL   H11713599   4.484   6.664   2.090  1.0131  0.2907 -0.2811
   22MOL   H11813600   4.639   6.849   2.013 -0.5832 -0.2947 -1.0366
   22MOL   H11913601   4.633   6.923   2.165 -0.1445 -0.0583  0.5689
   22MOL   H12013602   4.457   7.080   2.201 -0.0841  3.0572 -1.8771
   22MOL   H12113603   4.265   7.174   2.193  0.5297  0.8277 -0.4587
   22MOL   H12213604   4.198   7.042   2.103  0.3450 -0.2089  1.8612
   22MOL   H12313605   4.341   7.296   1.994 -0.9731 -0.0343  0.7168
   22MOL   H12413606   4.291   7.171   1.883  0.1689 -1.5719  0.5287
   22MOL   H12513607   4.115   7.358   2.036 -0.5360 -2.4226  2.7699
   22MOL   H12613608   4.073   7.185   2.015 -0.2859  0.7703  0.5378
   22MOL   H12713609   4.096   7.227   1.760  0.3288  0.7080 -1.2613
   22MOL   H12813610   4.158   7.385   1.801 -0.7234  0.1020 -0.2169
   22MOL   H12913611   3.942   7.457   1.869  1.5746 -0.9705  2.8692
   22MOL   C13013612   3.839   7.289   1.821 -0.3300 -0.2194  0.3742
   22MOL   O13113613   3.842   7.171   1.800  0.1582 -0.3516  0.2326
   22MOL   C13213614   3.703   7.351   1.849  0.6448 -0.1502  0.1764
   22MOL   C13313615   3.576   7.276   1.802  0.5502  0.2310 -0.5163
   22MOL   C13413616   3.537   7.153   1.885 -0.5211  0.0483  0.8456
   22MOL   C13513617   3.407   7.084   1.840 -0.4330  0.2065  0.0146
   22MOL   C13613618   3.279   7.151   1.905 -0.6913  0.4160 -0.3981
   22MOL   O13713619   3.251   7.117   2.020 -0.7183  0.4768  0.0693
   22MOL   N13813620   3.212   7.233   1.829 -0.0245 -0.2791  0.4289
   22MOL   C13913621   3.088   7.294   1.868 -0.2113  0.1751  0.0466
   22MOL   C14013622   3.089   7.381   1.994  0.5201  0.4897  0.1131
   22MOL   C14113623   2.963   7.461   2.014  0.5707  0.1102 -0.1506
   22MOL   C14213624   2.928   7.498   2.157 -0.1020 -0.1206 -0.1293
   22MOL   N14313625   3.022   7.602   2.204 -0.4317 -0.1042 -0.2591
   22MOL   H14413626   3.689   7.362   1.957  1.0882 -0.5419  0.2767
   22MOL   H14513627   3.706   7.451   1.806  0.3354 -0.0645  0.3573
   22MOL   H14613628   3.499   7.352   1.798 -0.0931 -0.4144 -0.5084
   22MOL   H14713629   3.584   7.241   1.699  2.1882 -3.9742  0.9216
   22MOL   H14813630   3.540   7.177   1.991  0.4891 -0.5415  0.9610
   22MOL   H14913631   3.617   7.078   1.887 -1.1958 -0.8147 -1.6132
   22MOL   H15013632   3.419   6.980   1.870  1.3283  0.7295  1.1951
   22MOL   H15113633   3.410   7.083   1.731 -0.7139 -0.1881  0.0081
   22MOL   H15213634   3.240   7.253   1.734  0.9658  1.1193  1.0009
   22MOL   H15313635   3.013   7.216   1.875 -1.5512  1.7446  4.3551
   22MOL   H15413636   3.053   7.354   1.783  0.0055  2.0597  1.2590
   22MOL   H15513637   3.105   7.318   2.081 -1.8038  1.4215  1.2504
   22MOL   H15613638   3.179   7.443   1.998  0.6137  0.3563  0.0582
   22MOL   H15713639   2.878   7.409   1.970 -0.6452  0.9640  1.1337
   22MOL   H15813640   2.966   7.559   1.965 -1.1762  0.0857 -0.3113
   22MOL   H15913641   2.913   7.415   2.226 -0.0600  0.3772  0.4904
   22MOL   H16013642   2.826   7.537   2.156 -0.5173 -1.1008  1.7749
   22MOL   H16113643   3.077   7.658   2.140 -2.3244  0.4135 -1.4648
   22MOL   C16213644   3.050   7.636   2.329  0.4033  1.2190  0.0209
   22MOL   O16313645   2.978   7.603   2.418 -0.1241  0.2763 -0.8515
   22MOL   C16413646   3.171   0.024   2.352 -0.4636  0.2021 -0.3178
   22MOL   C16513647   3.311   7.652   2.360  0.0537  0.7358 -0.3844
   22MOL   C16613648   3.362   7.586   2.236 -0.3622  0.2880 -0.4325
   22MOL   C16713649   3.482   7.488   2.252  0.2315 -0.2426  0.0058
   22MOL   C16813650   3.604   7.559   2.319  0.1532  0.7901 -0.2888
   22MOL   O16913651   3.613   7.681   2.329 -0.2331  0.0054  0.8012
   22MOL   N17013652   3.698   7.483   2.383  0.6029 -0.1139 -0.5508
   22MOL   C17113653   3.819   7.536   2.452  0.4762 -0.1607 -0.0351
   22MOL   C17213654   3.803   7.547   2.610 -0.1272  0.6929 -0.1302
   22MOL   C17313655   3.698   7.654   2.653 -0.2600  0.1660  0.3344
   22MOL   C17413656   3.678   7.652   2.809 -0.1670  0.0676 -0.0142
   22MOL   N17513657   3.797   7.684   2.876 -0.0572 -0.1069 -0.4112
   22MOL   H17613658   3.172   0.099   2.272  0.3502  2.3883  1.6723
   22MOL   H17713659   3.153   0.075   2.447 -2.1488 -0.2644 -0.3798
   22MOL   H17813660   3.387   0.020   2.395 -0.0340  1.3216 -1.3313
   22MOL   H17913661   3.298   7.571   2.432  0.9001  1.8895  1.0942
   22MOL   H18013662   3.380   7.662   2.161  2.8228  0.3272  0.3121
   22MOL   H18113663   3.285   7.519   2.198  1.2579 -0.5804 -2.2189
   22MOL   H18213664   3.529   7.454   2.160  0.3430  1.4855 -0.6045
   22MOL   H18313665   3.449   7.412   2.323  0.4277  2.6208  3.3601
   22MOL   H18413666   3.695   7.382   2.380 -1.2178 -0.1171  0.9223
   22MOL   H18513667   3.850   7.633   2.411  0.1586  0.4921  1.2519
   22MOL   H18613668   3.897   7.472   2.412  1.3367 -0.7286  2.4617
   22MOL   H18713669   3.789   7.448   2.652 -0.0071 -0.4355 -2.6705
   22MOL   H18813670   3.896   7.591   2.647  0.4280 -1.0534  0.6224
   22MOL   H18913671   3.604   7.630   2.604 -0.2642  2.3787 -0.7797
   22MOL   H19013672   3.714   0.056   2.622 -0.0393 -0.2325 -0.9021
   22MOL   H19113673   3.659   7.548   2.837 -3.9645  0.4121 -1.0887
   22MOL   H19213674   3.597   0.018   2.832 -1.2112 -0.3742 -2.2409
   22MOL   H19313675   3.863   7.608   2.882  1.3997  1.2139  1.2036
   22MOL   C19413676   3.834   0.100   2.918  0.9355  0.7600  0.2425
   22MOL   O19513677   3.762   0.202   2.914  0.1559  0.2594 -0.0649
   22MOL   C19613678   3.979   0.117   2.970  0.5378 -0.2989  0.6883
   22MOL   C19713679   4.074   0.182   2.868  0.1068  0.8787 -0.3688
   22MOL   C19813680   4.084   0.110   2.733  0.0699  0.3929  0.1245
   22MOL   C19913681   4.187   0.179   2.647  0.8702 -0.0289  0.6849
   22MOL   C20013682   4.226   0.080   2.526 -0.2392 -0.1134 -0.3887
   22MOL   O20113683   4.163   7.678   2.501 -0.1682 -0.1299 -0.1267
   22MOL   N20213684   4.331   0.109   2.448  0.0717  0.0635 -0.5458
   22MOL   C20313685   4.387   0.025   2.342  0.4923 -0.3698 -0.7697
   22MOL   C20413686   4.495   0.109   2.270 -0.8941  0.9452  0.5538
   22MOL   C20513687   4.550   0.051   2.137  0.4211 -0.2707 -0.1147
   22MOL   C20613688   4.661   0.132   2.073 -0.0847 -0.1737  0.1522
   22MOL   N20713689   4.700   0.074   1.947  0.2695  0.3907 -0.0466
   22MOL   H20813690   3.978   0.183   3.057  4.4715 -0.7404  1.1367
   22MOL   H20913691   4.026   0.028   3.012 -1.0881 -0.9756  1.1086
   22MOL   H21013692   4.067   0.289   2.851 -0.9241  0.5365 -2.2678
   22MOL   H21113693   4.173   0.176   2.913  0.8315 -4.0799 -2.2912
   22MOL   H21213694   3.990   0.091   2.682 -0.3943 -0.2276  1.1886
   22MOL   H21313695   4.120   0.010   2.759 -2.7163 -0.4657  0.8011
   22MOL   H21413696   4.277   0.196   2.706  0.3202  1.0039  1.2467
   22MOL   H21513697   4.150   0.269   2.598  1.2106 -1.4909 -2.3908
   22MOL   H21613698   4.375   0.200   2.455 -0.3844  0.1490  1.3177
   22MOL   H21713699   4.309   7.701   2.271 -0.2523  1.4628 -0.6317
   22MOL   H21813700   4.432   7.637   2.386  2.3110  1.2729  0.8062
   22MOL   H21913701   4.453   0.204   2.237 -0.9892  1.1001  1.1090
   22MOL   H22013702   4.573   0.127   2.344  0.7641 -2.1832 -0.3517
   22MOL   H22113703   4.466   0.052   2.068 -0.4707  0.1114  0.9604
   22MOL   H22213704   4.590   7.653   2.159 -1.2950 -0.4526  2.4438
   22MOL   H22313705   4.750   0.141   2.135  0.1480 -2.3229  0.1700
   22MOL   H22413706   4.627   0.230   2.040  0.0508 -0.3462 -0.5210
   22MOL   H22513707   4.637   7.700   1.922 -1.1014  1.1150  1.1243
   22MOL   C22613708   4.788   0.127   1.862 -0.7344  0.2271  0.7037
   22MOL   O22713709   4.834   0.244   1.880  0.0538  0.1265  0.2543
   22MOL   C22813710   4.825   0.040   1.736  0.0929  0.4228 -0.2963
   22MOL   C22913711   4.809   0.111   1.602 -0.4805  0.0976 -0.3689
   22MOL   C23013712   4.758   0.006   1.496  0.8258  0.5186 -0.8270
   22MOL   C23113713   4.725   0.057   1.357  0.4178 -0.3251  0.4141
   22MOL   C23213714   4.847   0.113   1.284 -0.7316  0.0754  0.3383
   22MOL   O23313715   4.955   0.050   1.280  0.1223  0.0659 -0.1402
   22MOL   N23413716   4.832   0.233   1.234 -0.2057  0.4889  0.5514
   22MOL   C23513717   4.944   0.319   1.194 -0.5358 -0.1486  0.4585
   22MOL   C23613718   4.905   0.412   1.069  0.1209 -0.2136  0.4249
   22MOL   C23713719   4.904   0.341   0.932 -0.0839  0.0411 -0.0137
   22MOL   C23813720   4.900   0.437   0.808  0.3326  0.4246 -1.3068
   22MOL   N23913721   4.816   0.552   0.828  0.2798  0.8137 -0.1558
   22MOL   H24013722   4.930   0.018   1.756 -0.3438 -1.8686 -0.3922
   22MOL   H24113723   4.761   7.654   1.750  0.8297  0.2047  1.9674
   22MOL   H24213724   4.734   0.190   1.604 -0.4476  0.1185  1.7493
   22MOL   H24313725   4.905   0.152   1.571  0.5198 -0.1718  2.2253
   22MOL   H24413726   4.669   7.662   1.539  0.1523 -0.2009 -2.9060
   22MOL   H24513727   4.821   7.619   1.487  1.0209  0.5090  0.4656
   22MOL   H24613728   4.658   0.142   1.361  0.6791 -0.0447 -1.0861
   22MOL   H24713729   4.684   7.684   1.289  0.4627  0.0585 -0.0360
   22MOL   H24813730   4.744   0.282   1.232 -0.1660  0.5131 -2.2946
   22MOL   H24913731   5.041   0.271   1.180 -0.4671  1.1932 -4.3199
   22MOL   H25013732   4.969   0.383   1.279  0.2962  1.6991 -1.1440
   22MOL   H25113733   4.801   0.442   1.083 -0.2073 -1.0353 -0.1933
   22MOL   H25213734   4.973   0.497   1.064 -0.8786  0.4889 -1.9275
   22MOL   H25313735   4.832   0.260   0.931  0.7634 -0.7485 -3.0396
   22MOL   H25413736   4.997   0.286   0.920  0.0839  0.2945  0.1173
   22MOL   H25513737   4.858   0.374   0.729 -0.3973  0.5454 -1.0163
   22MOL   H25613738   4.998   0.461   0.766  0.6544  2.5640  0.6145
   22MOL   H25713739   4.846   0.607   0.908 -3.0320  0.0484  1.6906
   22MOL   C25813740   4.742   0.613   0.734  0.0696  0.7975 -0.4215
   22MOL   O25913741   4.722   0.555   0.623 -0.4398  0.3222 -0.5210
   22MOL   C26013742   4.692   0.751   0.758  0.1772 -0.3323  0.2667
   22MOL   C26113743   4.543   0.762   0.794 -0.7831 -0.3093  0.0308
   22MOL   C26213744   4.493   0.662   0.898  0.1215  0.2799  0.1225
   22MOL   C26313745   4.563   0.696   1.036  0.1418 -0.8150 -0.2528
   22MOL   C26413746   4.569   0.595   1.149  0.2778 -0.2656 -0.1150
   22MOL   O26513747   4.487   0.504   1.158  0.2652  0.0168  0.2944
   22MOL   N26613748   4.665   0.607   1.240 -0.5268 -0.5788  0.0683
   22MOL   C26713749   4.674   0.535   1.365  0.2996 -0.3831  0.6841
   22MOL   C26813750   4.788   0.586   1.457 -0.8663 -0.6538 -0.2050
   22MOL   C26913751   4.793   0.511   1.597  0.1923  0.2726 -0.0420
   22MOL   C27013752   4.866   0.578   1.713 -0.4093  0.0772  0.1392
   22MOL   N27113753   4.811   0.704   1.764  0.1637 -0.2623  0.1568
   22MOL   H27213754   4.747   0.803   0.836 -0.1235 -1.3151  1.1493
   22MOL   H27313755   4.708   0.805   0.665 -2.5120 -2.0538 -1.2731
   22MOL   H27413756   4.532   0.865   0.830  1.7543  1.4151 -3.7316
   22MOL   H27513757   4.478   0.758   0.707  0.6900 -1.1925 -1.0486
   22MOL   H27613758   4.518   0.560   0.869  0.9485 -0.1593  2.2578
   22MOL   H27713759   4.386   0.674   0.911 -0.2131 -1.8134 -0.5408
   22MOL   H27813760   4.533   0.789   1.085  0.0109 -1.5362  1.0662
   22MOL   H27913761   4.666   0.722   1.010  0.2860  1.7278  2.4784
   22MOL   H28013762   4.723   0.688   1.224  0.5218 -1.1619  0.8631
   22MOL   H28113763   4.682   0.427   1.357 -2.2768 -0.4636 -1.6239
   22MOL   H28213764   4.583   0.554   1.422 -0.8250 -0.5293 -1.0180
   22MOL   H28313765   4.881   0.567   1.404  0.0818 -1.0272  1.5369
   22MOL   H28413766   4.785   0.695   1.457 -0.9565 -0.6548 -1.2592
   22MOL   H28513767   4.842   0.418   1.570  2.6520  1.6433 -0.5350
   22MOL   H28613768   4.698   0.474   1.636  0.7929 -1.2028  0.0421
   22MOL   H28713769   4.967   0.608   1.682  0.0558 -0.5457  1.0271
   22MOL   H28813770   4.872   0.514   1.802  0.6974 -1.0780 -0.7353
   22MOL   H28913771   4.856   0.793   1.748  2.0901 -0.7486  2.5718
   22MOL   C29013772   4.692   0.717   1.827 -0.0979 -0.0826 -0.2770
   22MOL   O29113773   4.628   0.623   1.872 -0.1745 -0.3624 -0.0056
   22MOL   C29213774   4.650   0.862   1.859 -0.3512 -0.1259 -0.2396
   22MOL   C29313775   4.515   0.884   1.939 -0.2334  0.2886 -0.1351
   22MOL   C29413776   4.389   0.845   1.853  0.7977 -1.1981 -0.0809
   22MOL   C29513777   4.246   0.866   1.915  0.3278 -0.0285 -0.0780
   22MOL   C29613778   4.198   1.020   1.923 -0.2340  0.2077  0.4555
   22MOL   O29713779   4.264   1.120   1.894  0.1810 -0.2298 -0.3197
   22MOL   N29813780   4.068   1.030   1.952 -0.4952 -0.5688  0.0711
   22MOL   C29913781   3.998   1.158   1.962 -0.2423  0.7896  0.4786
   22MOL   C30013782   3.861   1.149   2.023 -0.8710 -0.1525  0.2557
   22MOL   C30113783   3.762   1.069   1.939  0.0628  0.0339  0.7914
   22MOL   C30213784   3.612   1.093   1.969  0.4824 -0.7874  0.4745
   22MOL   N30313785   3.517   1.012   1.891 -0.1635 -1.2728  0.2098
   22MOL   H30413786   4.737   0.909   1.905  0.5844 -1.7581 -0.2914
   22MOL   H30513787   4.640   0.897   1.757 -0.2555  0.4457 -0.0544
   22MOL   H30613788   4.509   0.820   2.027  2.5985 -0.9259 -0.7823
   22MOL   H30713789   4.504   0.988   1.969 -0.4458  0.1567  0.2482
   22MOL   H30813790   4.398   0.743   1.816 -0.7086 -0.7752 -1.6970
   22MOL   H30913791   4.395   0.905   1.762  0.3508  1.3743  1.5244
   22MOL   H31013792   4.240   0.815   2.011  4.0839  0.1014  0.2927
   22MOL   H31113793   4.174   0.826   1.843 -0.4182  1.7415 -0.3448
   22MOL   H31213794   4.011   0.947   1.952 -0.0236 -0.9262 -1.9185
   22MOL   H31313795   3.986   1.193   1.859  0.8100 -0.1678  0.0127
   22MOL   H31413796   4.063   1.232   2.008  1.8653 -0.6351 -0.0857
   22MOL   H31513797   3.867   1.098   2.120 -1.8388  2.3839  1.7094
   22MOL   H31613798   3.828   1.252   2.016  0.1321  0.0815 -1.0863
   22MOL   H31713799   3.798   0.966   1.949  0.7157  0.2631  0.7820
   22MOL   H31813800   3.790   1.092   1.836 -1.6892 -2.6185 -0.3409
   22MOL   H31913801   3.584   1.198   1.954  2.3641 -0.2548  0.5535
   22MOL   H32013802   3.597   1.073   2.075 -0.6384  0.9009  0.6603
   22MOL   H32113803   3.488   1.055   1.804  0.4655 -2.1493 -0.4485
   22MOL   C32213804   3.458   0.907   1.930  0.5136  0.4009  0.4626
   22MOL   O32313805   3.469   0.859   2.040 -0.0603  0.0134 -0.4082
   22MOL   C32413806   3.386   0.814   1.821 -0.0985  0.4044 -0.6763
   22MOL   C32513807   3.485   0.704   1.771  1.1320 -0.4028 -0.2661
   22MOL   C32613808   3.518   0.590   1.873  0.2598 -0.3367 -0.0655
   22MOL   C32713809   3.595   0.473   1.823  0.5110  0.1949  0.0333
   22MOL   C32813810   3.593   0.353   1.917 -0.1915  0.6110  0.1711
   22MOL   O32913811   3.691   0.344   1.995  0.1093 -0.0862  0.1334
   22MOL   N33013812   3.481   0.275   1.907 -1.0184  0.0636  0.0369
   22MOL   C33113813   3.452   0.156   1.985  0.6694 -0.2370 -0.3313
   22MOL   C33213814   3.484   0.026   1.916  0.2654  1.0579 -0.4987
   22MOL   C33313815   3.422   0.001   1.776  0.4803  0.3572 -0.0114
   22MOL   C33413816   3.276   7.659   1.777  0.2801 -0.3679 -0.1178
   22MOL   N33513817   3.178   0.067   1.787 -0.0547  0.4675  0.5167
   22MOL   H33613818   3.298   0.772   1.871  0.7004  0.6543  0.9919
   22MOL   H33713819   3.349   0.878   1.742  0.8711  3.3717  1.1992
   22MOL   H33813820   3.444   0.656   1.682 -1.4784 -0.1151  0.7537
   22MOL   H33913821   3.574   0.756   1.736  2.6356 -0.4635  3.3550
   22MOL   H34013822   3.425   0.549   1.912 -0.7652  1.8682 -0.0808
   22MOL   H34113823   3.575   0.635   1.955 -0.8820  0.9121  0.0675
   22MOL   H34213824   3.698   0.504   1.807  1.7508 -3.8226 -0.4196
   22MOL   H34313825   3.553   0.438   1.729 -1.6070  2.2566  0.1855
   22MOL   H34413826   3.416   0.301   1.834  0.8727 -0.9411 -2.0872
   22MOL   H34513827   3.346   0.168   2.008  0.5425 -0.6435 -0.7006
   22MOL   H34613828   3.500   0.163   2.083  0.1802 -2.9671  0.1252
   22MOL   H34713829   3.592   0.015   1.903  0.2473 -1.4173  1.2182
   22MOL   H34813830   3.464   7.644   1.983  1.2062  1.1237 -0.1237
   22MOL   H34913831   3.470   7.628   1.712 -0.1728 -0.1974  0.1398
   22MOL   H35013832   3.426   0.092   1.717 -1.2309  0.6101  0.2302
   22MOL   H35113833   3.256   7.598   1.864 -0.1477 -1.1382 -0.7459
   22MOL   H35213834   3.246   7.590   1.698  1.5401  2.6278 -3.3338
   22MOL   H35313835   3.150   0.099   1.696  3.0312 -0.3814 -0.7885
   22MOL   C35413836   3.106   0.103   1.892  0.7215  0.2118  0.5900
   22MOL   O35513837   3.120   0.057   2.007  0.4451  0.2804  0.0911
   22MOL   C35613838   2.977   0.195   1.870  0.7079  0.2922 -0.1118
   22MOL   C35713839   2.848   0.110   1.833  0.6617 -0.8561  0.3638
   22MOL   C35813840   2.765   0.067   1.953 -0.4583  0.0414 -0.3510
   22MOL   C35913841   2.649   7.668   1.929 -0.2115  0.1874 -0.0077
   22MOL   C36013842   2.503   0.018   1.932 -0.1576 -1.0332 -0.3808
   22MOL   O36113843   2.482   0.138   1.936 -0.3168 -0.2284 -0.9403
   22MOL   N36213844   2.410   7.630   1.936  0.0603 -0.2101  0.5641
   22MOL   C36313845   2.268   7.665   1.928  0.2946 -0.5901 -0.3719
   22MOL   C36413846   2.226   0.005   1.794  0.1084 -0.3005  1.1346
   22MOL   C36513847   2.291   7.632   1.674  0.1068  0.1465 -0.3147
   22MOL   C36613848   2.264   7.696   1.535  0.1860 -0.5835  0.5491
   22MOL   N36713849   2.306   7.608   1.424 -0.2610  0.6306 -0.7417
   22MOL   H36813850   2.954   0.256   1.957 -0.5410  0.3884 -0.5001
   22MOL   H36913851   2.997   0.268   1.792  0.8328  0.7319  0.3313
   22MOL   H37013852   2.787   0.171   1.767 -1.3839 -1.4823  1.6323
   22MOL   H37113853   2.881   0.027   1.771  1.3344  1.0119 -1.8078
   22MOL   H37213854   2.735   0.150   2.016 -1.2833 -1.4056  1.2215
   22MOL   H37313855   2.833   0.014   2.019 -0.3268  0.9550  0.2496
   22MOL   H37413856   2.659   7.594   2.010 -0.7686  0.4184  0.2740
   22MOL   H37513857   2.662   7.623   1.831  0.4773  0.7548 -0.1784
   22MOL   H37613858   2.445   7.536   1.925  0.2014 -0.0606 -0.2933
   22MOL   H37713859   2.223   0.033   1.999 -2.7156 -3.0303  0.1895
   22MOL   H37813860   2.207   7.581   1.960 -0.1603 -0.0186  0.2684
   22MOL   H37913861   2.117   0.003   1.790  0.1546 -0.3740 -0.2450
   22MOL   H38013862   2.250   0.111   1.781 -0.4531 -0.1309  1.4602
   22MOL   H38113863   2.247   7.533   1.678  0.3820  0.0580  0.5365
   22MOL   H38213864   2.397   7.614   1.691 -0.1655  0.3026  1.5849
   22MOL   H38313865   2.329   0.082   1.539 -0.5037 -0.1698  4.9041
   22MOL   H38413866   2.158   0.016   1.528 -0.1000 -2.0069  0.2797
   22MOL   H38513867   2.228   7.573   1.371  0.8496 -0.7499 -1.4966
   22MOL   C38613868   2.433   7.610   1.368  0.6651 -0.9506  0.9611
   22MOL   O38713869   2.526   7.670   1.423 -0.1730  0.3015  0.1034
   22MOL   C38813870   2.464   7.528   1.241  0.4405  0.3350 -0.2562
   22MOL   C38913871   2.609   7.467   1.233  1.0226  0.6107 -0.6255
   22MOL   C39013872   2.624   7.335   1.151  0.0399 -0.6121 -0.2316
   22MOL   C39113873   2.539   7.214   1.191 -0.2133  0.3026 -0.7260
   22MOL   C39213874   2.574   7.172   1.334  0.5445  0.1202 -0.3494
   22MOL   O39313875   2.679   7.112   1.361 -0.2125 -0.4740 -0.0884
   22MOL   N39413876   2.494   7.207   1.440 -0.4593 -0.2264 -0.3232
   22MOL   C39513877   2.529   7.184   1.578 -0.1713  0.6350 -0.1121
   22MOL   C39613878   2.584   7.310   1.649 -0.2503  0.3072 -0.4401
   22MOL   C39713879   2.605   7.292   1.800 -1.1449 -0.1387 -0.6533
   22MOL   C39813880   2.713   7.184   1.841  0.1032 -0.4495 -0.3231
   22MOL   N39913881   2.716   7.163   1.984 -0.2304 -0.6545  0.2201
   22MOL   H40013882   2.388   7.450   1.231  0.4818  0.0898  1.2669
   22MOL   H40113883   2.464   7.598   1.157 -0.4708  0.6534  0.0023
   22MOL   H40213884   2.683   7.544   1.211  0.7566  1.6208  1.9148
   22MOL   H40313885   2.622   7.439   1.337  0.1794  0.3920 -0.5771
   22MOL   H40413886   2.730   7.309   1.161 -0.0512 -0.8302  0.1729
   22MOL   H40513887   2.614   7.357   1.045  1.0316  0.1486 -0.1782
   22MOL   H40613888   2.573   7.139   1.120 -1.0672  1.3372 -2.2496
   22MOL   H40713889   2.431   7.227   1.181 -0.6585 -2.6467 -0.4092
   22MOL   H40813890   2.411   7.261   1.421 -0.8785 -0.5295  0.6087
   22MOL   H40913891   2.603   7.105   1.589  0.0295  0.7505 -0.6502
   22MOL   H41013892   2.433   7.152   1.618 -0.5381  1.4204 -0.3709
   22MOL   H41113893   2.684   7.320   1.607 -0.5020  3.6027 -0.3249
   22MOL   H41213894   2.522   7.398   1.633 -0.5924 -0.1008 -1.4107
   22MOL   H41313895   2.518   7.268   1.862  0.6651  0.4167  2.1994
   22MOL   H41413896   2.626   7.390   1.842 -2.5448 -1.0863  2.4893
   22MOL   H41513897   2.811   7.212   1.802 -0.6490  0.7997 -1.3312
   22MOL   H41613898   2.687   7.087   1.800  0.8109 -0.8548  0.1664
   22MOL   H41713899   2.680   7.234   2.047 -0.6809 -1.1079  0.4802
   22MOL   C41813900   2.777   7.061   2.047  0.2722 -0.5727  0.9430
   22MOL   O41913901   2.827   6.971   1.983  0.3088 -0.0326 -0.3239
   22MOL   C42013902   2.790   7.057   2.203  0.1841 -0.2814 -0.2543
   22MOL   C42113903   2.926   7.097   2.256 -0.4847 -0.2473 -0.0032
   22MOL   C42213904   3.040   6.983   2.259  0.0864 -0.4546 -0.3324
   22MOL   C42313905   3.161   7.027   2.336  0.4245 -0.2898  0.0350
   22MOL   C42413906   3.268   6.923   2.329 -1.2946 -0.5024 -0.5595
   22MOL   O42513907   3.313   6.871   2.426  0.6114 -0.0874  0.0219
   22MOL   N42613908   3.336   6.914   2.212  0.0869 -0.4633 -0.1020
   22MOL   C42713909   3.454   6.832   2.179 -0.3544 -0.3491  0.2051
   22MOL   C42813910   3.417   6.683   2.198 -0.4353  0.5411  0.3260
   22MOL   C42913911   3.519   6.583   2.141  0.2550 -0.1754 -0.2363
   22MOL   C43013912   3.489   6.437   2.172 -0.2709  0.4427  0.7956
   22MOL   N43113913   3.361   6.407   2.131  0.3376 -0.7227 -0.4700
   22MOL   H43213914   2.706   7.119   2.234  0.5874  0.7502 -1.1846
   22MOL   H43313915   2.757   6.957   2.232 -0.4907 -0.1829 -0.6683
   22MOL   H43413916   2.963   7.173   2.187  1.5945 -2.6082 -1.5557
   22MOL   H43513917   2.906   7.127   2.359 -2.3854 -0.2919 -0.3348
   22MOL   H43613918   3.064   6.957   2.156 -2.1353 -2.1266 -0.4619
   22MOL   H43713919   3.001   6.888   2.293 -0.4023 -0.4708 -0.9293
   22MOL   H43813920   3.126   7.024   2.439 -0.3368  0.1658 -0.2038
   22MOL   H43913921   3.209   7.121   2.311  0.3487  0.5327  2.8180
   22MOL   H44013922   3.320   6.986   2.143  0.3362 -1.8182 -1.5824
   22MOL   H44113923   3.533   6.841   2.253  0.4612 -1.5154 -0.4982
   22MOL   H44213924   3.490   6.853   2.078 -1.4110 -2.1719 -0.5840
   22MOL   H44313925   3.402   6.660   2.303 -0.7987  0.7215  0.3111
   22MOL   H44413926   3.329   6.662   2.137  0.7050 -2.4571 -0.4203
   22MOL   H44513927   3.623   6.608   2.164 -0.1476  0.1481  1.2534
   22MOL   H44613928   3.518   6.593   2.032  0.1715 -2.7758 -0.5050
   22MOL   H44713929   3.513   6.417   2.276  2.3481 -2.0870 -0.2302
   22MOL   H44813930   3.561   6.375   2.118 -1.1351 -1.5495  1.8959
   22MOL   H44913931   3.289   6.465   2.171  0.4158 -1.9240  1.4746
   22MOL   C45013932   3.326   6.306   2.059 -0.5773 -0.3694 -0.0040
   22MOL   O45113933   3.401   6.222   2.007  0.7518 -0.0203  0.1960
   22MOL   C45213934   3.178   6.303   2.022  0.5656  0.1007 -0.2394
   22MOL   C45313935   3.129   6.153   1.989 -0.0491 -0.7069 -0.7320
   22MOL   C45413936   2.980   6.126   2.017 -0.5383  0.0737 -0.0061
   22MOL   C45513937   2.876   6.226   1.950  0.1145 -0.6425 -0.6170
   22MOL   C45613938   2.882   6.236   1.795 -0.5559  0.1343 -0.0142
   22MOL   O45713939   2.959   6.167   1.728  0.0081  0.0321 -0.1482
   22MOL   N45813940   2.806   6.335   1.745 -0.7849 -0.1993  0.3714
   22MOL   C45913941   2.778   6.375   1.606 -0.7972  0.0693  0.0869
   22MOL   C46013942   2.631   6.352   1.584  0.3598  0.0255  0.0827
   22MOL   C46113943   2.588   6.379   1.440  0.8957 -0.0381 -0.4968
   22MOL   C46213944   2.446   6.334   1.421 -0.5114 -0.7300  0.1818
   22MOL   N46313945   2.412   6.337   1.278  0.2444  0.3201 -0.7339
   22MOL   H46413946   3.122   6.318   2.114 -0.6789 -0.4107 -0.9146
   22MOL   H46513947   3.154   6.369   1.939  0.2735  3.5619  2.4807
   22MOL   H46613948   3.160   6.132   1.887  2.9233 -1.5537  0.2865
   22MOL   H46713949   3.191   6.090   2.053 -1.5935 -0.9207  0.6058
   22MOL   H46813950   2.974   6.128   2.126  1.4665 -0.1515  0.1229
   22MOL   H46913951   2.962   6.025   1.982 -0.8524 -0.3064  1.2306
   22MOL   H47013952   2.878   6.327   1.992 -2.0343 -0.1970 -1.5445
   22MOL   H47113953   2.774   6.208   1.985 -0.4782  2.8304 -0.4195
   22MOL   H47213954   2.751   6.389   1.810  1.2280  0.5342  1.5070
   22MOL   H47313955   2.834   6.317   1.533 -0.2495  1.4167 -0.5776
   22MOL   H47413956   2.804   6.480   1.588 -0.5791  0.0307  0.1772
   22MOL   H47513957   2.605   6.251   1.615 -0.7346  0.1549 -0.3814
   22MOL   H47613958   2.579   6.424   1.647  1.1238  2.7483 -2.2268
   22MOL   H47713959   2.662   6.337   1.372  0.7614 -2.5526  0.8100
   22MOL   H47813960   2.604   6.485   1.424 -1.1353  0.7280  2.2290
   22MOL   H47913961   2.372   6.399   1.468  1.0360  1.1275  0.1127
   22MOL   H48013962   2.445   6.229   1.453  1.8008 -0.2537  1.9931
   22MOL   H48113963   2.432   6.255   1.224  0.3980 -0.3458  0.3199
   22MOL   C48213964   2.380   6.447   1.206  0.8603  0.0253  0.1854
   22MOL   O48313965   2.351   6.557   1.260  0.0964  0.0135  0.4998
   22MOL   C48413966   2.405   6.436   1.056 -0.0294  0.6498 -0.6601
   22MOL   C48513967   2.284   6.458   0.973  1.0996  0.5808 -0.0423
   22MOL   C48613968   2.147   6.389   1.010 -0.2781 -0.2230  0.0941
   22MOL   C48713969   2.041   6.398   0.892  0.6450 -0.1470  0.6844
   22MOL   C48813970   2.069   6.299   0.784 -0.7347  0.5297 -0.6641
   22MOL   O48913971   2.132   6.334   0.686 -0.0381 -0.0513 -0.0781
   22MOL   N49013972   2.036   6.170   0.812 -0.1607 -0.4702  0.2475
   22MOL   C49113973   2.079   6.054   0.739 -0.3619  0.7194  0.0977
   22MOL   C49213974   2.229   6.020   0.754  0.1431 -0.2046  0.9861
   22MOL   C49313975   2.279   5.905   0.668  0.1284 -0.1651 -0.8364
   22MOL   C49413976   2.248   5.761   0.713  0.2817  0.0816  0.0061
   22MOL   N49513977   2.302   5.661   0.624  0.5638 -0.3086  0.0276
   22MOL   H49613978   2.483   6.508   1.028  0.9687 -0.3455 -0.5012
   22MOL   H49713979   2.455   6.341   1.033 -0.5985  0.3579 -0.6841
   22MOL   H49813980   2.259   6.565   0.974  2.1816  0.8516  1.8895
   22MOL   H49913981   2.310   6.440   0.869  0.7669  1.8687 -0.3612
   22MOL   H50013982   2.099   6.435   1.097 -0.0414  0.6290 -0.2249
   22MOL   H50113983   2.163   6.285   1.038  1.7546 -0.0551 -0.4280
   22MOL   H50213984   2.051   6.498   0.850 -2.9544 -0.0409 -0.0887
   22MOL   H50313985   1.935   6.392   0.918  0.1940  1.8856 -0.5486
   22MOL   H50413986   1.994   6.150   0.902 -0.6820  0.0908  0.1285
   22MOL   H50513987   2.051   6.072   0.635  2.6516  1.0855 -0.7086
   22MOL   H50613988   2.014   5.972   0.771  0.6927  0.0361  0.5163
   22MOL   H50713989   2.278   6.114   0.728 -1.4445 -0.0158 -1.4887
   22MOL   H50813990   2.252   6.019   0.861  1.9457  0.8389  0.6261
   22MOL   H50913991   2.387   5.917   0.652 -0.0568 -0.5638 -2.5436
   22MOL   H51013992   2.235   5.916   0.569  5.3774  0.3140 -3.3025
   22MOL   H51113993   2.143   5.733   0.717  0.6204 -1.4831 -1.3931
   22MOL   H51213994   2.285   5.745   0.814 -3.4821 -0.7540  1.3248
   22MOL   H51313995   2.230   5.644   0.555  1.4774  0.8158 -1.2303
   22MOL   C51413996   2.430   5.624   0.612  0.3996 -0.4050 -0.6770
   22MOL   O51513997   2.515   5.669   0.691  0.1071  0.8995  0.0169
   22MOL   C51613998   2.457   5.525   0.495 -0.4660 -0.7447 -0.3978
   22MOL   C51713999   2.603   5.491   0.478 -0.4174  0.0100 -0.2442
   22MOL   C51814000   2.673   5.422   0.591  0.0640  0.1792 -0.6743
   22MOL   C51914001   2.826   5.408   0.585 -0.1872  0.6168 -0.0307
   22MOL   C52014002   2.913   5.532   0.588  0.1663  0.2923  0.2606
   22MOL   O52114003   3.016   5.528   0.525  0.7244  0.2908 -0.5295
   22MOL   N52214004   2.872   5.643   0.660 -0.2901 -0.2198 -0.1414
   22MOL   C52314005   2.933   5.771   0.664  0.7939  0.5843 -0.4029
   22MOL   C52414006   2.854   5.873   0.576 -0.1647  0.2800 -0.7270
   22MOL   C52514007   2.871   5.855   0.423 -0.4930 -0.8569 -0.0531
   22MOL   C52614008   2.839   5.970   0.335 -0.0848  0.6526 -0.3381
   22MOL   N52714009   2.695   5.977   0.327  0.2612  1.3868  0.3294
   22MOL   H52814010   2.399   5.433   0.500  0.5473 -1.3025  1.8024
   22MOL   H52914011   2.422   5.568   0.402  1.4533 -2.4419 -1.9579
   22MOL   H53014012   2.622   5.427   0.392  0.3189 -0.9857  0.6476
   22MOL   H53114013   2.663   5.580   0.457 -0.4858 -0.1979 -1.3660
   22MOL   H53214014   2.632   5.321   0.588  0.0767  0.2349 -3.6266
   22MOL   H53314015   2.650   5.454   0.693  0.1330 -1.5946 -0.0857
   22MOL   H53414016   2.849   5.349   0.496  0.4289  1.9067 -0.7521
   22MOL   H53514017   2.849   5.350   0.674  0.2357  0.5680 -0.1693
   22MOL   H53614018   2.780   5.645   0.700  0.4982 -0.1982  1.6885
   22MOL   H53714019   3.035   5.768   0.627  1.5300 -1.5143  1.7122
   22MOL   H53814020   2.931   5.802   0.768 -2.3078 -0.8058  0.0116
   22MOL   H53914021   2.748   5.876   0.598 -0.5815  2.3134 -2.7944
   22MOL   H54014022   2.893   5.971   0.603 -1.1861  0.7121 -0.7961
   22MOL   H54114023   2.808   5.771   0.393 -1.1518  0.2483 -1.8491
   22MOL   H54214024   2.973   5.820   0.409 -0.3184 -0.0717 -0.7996
   22MOL   H54314025   2.881   5.960   0.235 -0.2861  1.9431 -0.5553
   22MOL   H54414026   2.888   6.063   0.366  0.5915 -0.2861  1.5181
   22MOL   H54514027   2.647   5.889   0.332 -0.2073  1.6674  0.8415
   22MOL   C54614028   2.629   6.087   0.296  0.1133  0.4826 -0.2226
   22MOL   O54714029   2.690   6.180   0.245 -0.2949 -0.2529  0.3552
   22MOL   C54814030   2.471   6.097   0.314  0.7640 -0.2714  0.6408
   22MOL   C54914031   2.433   6.242   0.344  0.2033 -0.1121  0.7510
   22MOL   C55014032   2.289   6.267   0.416 -0.7183  0.9079 -0.1208
   22MOL   C55114033   2.167   6.212   0.348 -0.3756  0.1320  0.4007
   22MOL   C55214034   2.137   6.274   0.212  0.9569 -0.0158  0.4329
   22MOL   O55314035   2.195   6.227   0.116 -0.3336 -0.7794 -0.4385
   22MOL   N55414036   2.042   6.363   0.199  0.3711  0.2516 -0.2079
   22MOL   C55514037   1.999   6.416   0.067 -0.1764 -0.1596  0.1741
   22MOL   C55614038   1.846   6.449   0.060 -0.5398 -0.2919 -0.0659
   22MOL   C55714039   1.806   6.491   7.623 -0.6545 -0.0600  0.0472
   22MOL   C55814040   1.653   6.499   7.608  0.6370 -0.5801  0.0532
   22MOL   N55914041   1.618   6.490   7.472 -0.2046 -0.0858 -0.5713
   22MOL   H56014042   2.434   6.074   0.215  0.7008  1.7870  0.1522
   22MOL   H56114043   2.429   6.023   0.382 -0.3704  2.0951  2.5954
   22MOL   H56214044   2.514   6.281   0.405  1.0080  0.5436 -0.7352
   22MOL   H56314045   2.447   6.298   0.252  2.2049  1.2807  1.8678
   22MOL   H56414046   2.284   6.375   0.431 -1.0892  1.1009 -1.5600
   22MOL   H56514047   2.295   6.224   0.516  0.5706  1.9443  0.2718
   22MOL   H56614048   2.084   6.237   0.415  0.2306  2.3915  0.3570
   22MOL   H56714049   2.174   6.104   0.336  1.2389  0.2566  0.1083
   22MOL   H56814050   2.000   6.403   0.282 -0.7079 -3.6474  1.2423
   22MOL   H56914051   2.007   6.332   7.699  0.2446 -0.4667  0.5952
   22MOL   H57014052   2.063   6.494   0.026 -1.2659  0.8709  0.4047
   22MOL   H57114053   1.798   6.355   0.086  0.7560 -0.9648 -0.0394
   22MOL   H57214054   1.808   6.521   0.132 -0.5955 -0.9412  0.5643
   22MOL   H57314055   1.849   6.428   7.546  0.0734  0.4979 -0.0155
   22MOL   H57414056   1.849   6.589   7.599 -1.0938  0.6849  2.1708
   22MOL   H57514057   1.601   6.578   7.662  0.2030 -1.1323  0.4482
   22MOL   H57614058   1.607   6.403   7.633  0.4416 -0.4075  0.3538
   22MOL   H57714059   1.647   6.401   7.432  0.0063 -0.5837  0.6492
   22MOL   C57814060   1.526   6.562   7.407  0.0043 -0.5437  0.9467
   22MOL   O57914061   1.479   6.667   7.447  0.2917 -0.2377 -0.5815
   22MOL   C58014062   1.466   6.496   7.284 -0.7973 -0.1958  0.0197
   22MOL   C58114063   1.365   6.574   7.199  0.5987  0.4297 -0.2140
   22MOL   C58214064   1.423   6.690   7.117  0.3744 -0.0173  0.4250
   22MOL   C58314065   1.320   6.766   7.029  0.3047  0.2516  0.0124
   22MOL   C58414066   1.271   6.683   6.911  0.1391 -0.2797  0.1765
   22MOL   O58514067   1.352   6.645   6.822  0.1597  0.1990 -0.8149
   22MOL   N58614068   1.137   6.669   6.906 -0.0011 -0.3230  0.7897
   22MOL   C58714069   1.058   6.593   6.798  0.3921 -0.3603 -0.2268
   22MOL   C58814070   1.132   6.459   6.758 -0.2173 -0.1624 -0.5013
   22MOL   C58914071   1.133   6.370   6.880  1.0175 -0.2908  0.0621
   22MOL   C59014072   1.157   6.218   6.842  0.4953  0.4785  0.5245
   22MOL   N59114073   1.161   6.134   6.956 -0.5358  0.0830  0.3644
   22MOL   H59214074   1.541   6.451   7.218  1.2206  1.7358  0.9189
   22MOL   H59314075   1.409   6.416   7.331 -0.0963  0.4407  2.0062
   22MOL   H59414076   1.304   6.503   7.144  0.1060  0.2070  0.6215
   22MOL   H59514077   1.291   6.601   7.275 -1.7225  0.5660 -2.4505
   22MOL   H59614078   1.494   6.649   7.046  0.9272 -1.1713  1.6269
   22MOL   H59714079   1.472   6.763   7.181  0.5618  0.9407 -0.7818
   22MOL   H59814080   1.373   6.847   6.979 -1.2871  1.3837  0.1333
   22MOL   H59914081   1.235   6.800   7.089  0.5229  0.0025  0.4670
   22MOL   H60014082   1.078   6.731   6.959 -0.0922  2.9145 -2.8592
   22MOL   H60114083   1.044   6.656   6.710  2.5551 -0.0175 -0.3710
   22MOL   H60214084   0.956   6.576   6.830  0.1710 -0.3871 -0.9263
   22MOL   H60314085   1.074   6.403   6.684 -0.7220 -0.8525  0.4083
   22MOL   H60414086   1.229   6.460   6.709 -1.0703  0.0791 -2.2337
   22MOL   H60514087   1.045   6.385   6.944  1.0178  0.2504 -0.0551
   22MOL   H60614088   1.219   6.407   6.935  0.7710  0.6604 -0.1766
   22MOL   H60714089   1.254   6.205   6.794 -0.7717 -3.1929 -1.2850
   22MOL   H60814090   1.084   6.186   6.767  0.5211  0.1554  0.6351
   22MOL   H60914091   1.074   6.094   6.986 -0.7629  0.8349  0.7173
   22MOL   C61014092   1.272   6.103   7.026  0.5097 -0.6003  0.4485
   22MOL   O61114093   1.382   6.142   6.996 -0.1131 -0.0764  0.0308
   22MOL   C61214094   1.249   6.035   7.162 -0.2866  0.0781  0.2563
   22MOL   C61314095   1.351   6.084   7.275  0.0491  0.0358  1.0443
   22MOL   C61414096   1.491   6.025   7.277  0.2306 -0.6669  0.8704
   22MOL   C61514097   1.594   6.094   7.355 -0.0363 -0.2102 -0.0654
   22MOL   C61614098   1.549   6.114   7.499 -0.5413 -0.4582 -0.4298
   22MOL   O61714099   1.466   6.197   7.535 -0.3052 -0.8170 -0.2472
   22MOL   N61814100   1.615   6.038   7.591 -0.2239 -0.1334  0.7692
   22MOL   C61914101   1.597   6.053   0.034  0.6798 -0.6891  0.4579
   22MOL   C62014102   1.710   5.983   0.111  0.0352 -0.0808  0.4229
   22MOL   C62114103   1.700   5.979   0.260 -0.8094  0.0188 -0.5126
   22MOL   C62214104   1.754   6.104   0.329 -0.4302  0.3161 -0.0729
   22MOL   N62314105   1.771   6.067   0.465 -0.0700  0.6731 -0.2118
   22MOL   H62414106   1.146   6.055   7.191 -0.0983  1.7657 -0.1943
   22MOL   H62514107   1.246   5.928   7.142 -2.7974 -0.1235  1.5232
   22MOL   H62614108   1.358   6.192   7.263  0.4069 -0.2118 -1.2193
   22MOL   H62714109   1.309   6.067   7.374 -2.4678  0.2217  0.0505
   22MOL   H62814110   1.529   6.041   7.176 -1.3658  1.4766  0.5870
   22MOL   H62914111   1.503   5.920   7.303 -2.7153 -1.1570  0.4375
   22MOL   H63014112   1.614   6.193   7.315 -0.2989  0.0646  0.4826
   22MOL   H63114113   1.687   6.037   7.351  0.8829  1.2634 -0.2288
   22MOL   H63214114   1.676   5.964   7.558 -2.3638 -1.5839 -0.0284
   22MOL   H63314115   1.496   6.020   0.059 -0.2919  3.1117  2.0170
   22MOL   H63414116   1.594   6.159   0.061  1.3361 -1.0500  1.9512
   22MOL   H63514117   1.719   5.886   0.062 -1.9317  0.4379 -0.9900
   22MOL   H63614118   1.808   6.027   0.092  0.7759 -0.9644  2.0267
   22MOL   H63714119   1.738   5.881   0.287  0.0105  0.6210  0.5723
   22MOL   H63814120   1.593   5.978   0.284 -0.0682  0.2214  3.0181
   22MOL   H63914121   1.676   6.181   0.328 -0.2586  0.4879 -1.0354
   22MOL   H64014122   1.834   6.155   0.275  0.7146  1.7396  2.8458
   22MOL   H64114123   1.687   6.044   0.515  1.0431 -1.3412  0.7769
   22MOL   H64214124   1.799   6.155   0.505 -3.2679  1.8774 -0.5245
   23MOL     C114125   0.403   1.019   1.250  0.1708 -0.8471 -0.2634
   23MOL     O214126   0.519   1.035   1.209 -0.1803 -0.1049 -0.3896
   23MOL     C314127   0.365   0.894   1.332  0.0954  0.1863 -0.1435
   23MOL     C414128   0.477   0.832   1.399 -0.7083  0.7241  0.3994
   23MOL     C514129   0.439   0.725   1.488  0.3290 -0.8202  0.9103
   23MOL     C614130   0.547   0.677   1.587 -0.0367  0.8055  0.4287
   23MOL     C714131   0.506   0.555   1.668 -0.3862  0.0042 -0.0394
   23MOL     O814132   0.525   0.437   1.618 -0.5372  0.0190 -0.8284
   23MOL     N914133   0.455   0.581   1.787  0.2798  0.6807 -0.2942
   23MOL    C1014134   0.397   0.481   1.880  0.2870 -0.5332  0.1513
   23MOL    C1114135   0.246   0.512   1.891 -0.1675 -0.2920 -0.5485
   23MOL    C1214136   0.216   0.664   1.910  0.7488  0.5836 -1.2311
   23MOL    C1314137   0.071   0.701   1.951 -0.2744  0.4318  0.0125
   23MOL    N1414138   0.025   0.612   2.057 -0.1854 -0.4415  0.1237
   23MOL    H1514139   0.292   0.917   1.410  0.1626  0.0628 -0.0443
   23MOL    H1614140   0.316   0.826   1.263 -1.4348  0.6144  0.5027
   23MOL    H1714141   0.552   0.808   1.324 -1.5510  1.4531 -0.6811
   23MOL    H1814142   0.527   0.897   1.471 -0.4245  1.3603 -0.3769
   23MOL    H1914143   0.408   0.637   1.430  0.7165  0.6521 -1.6067
   23MOL    H2014144   0.351   0.759   1.542  0.0328 -1.7888  1.0518
   23MOL    H2114145   0.583   0.759   1.648  1.3493  0.8815 -0.4623
   23MOL    H2214146   0.627   0.650   1.518  1.4490  1.2846  1.9419
   23MOL    H2314147   0.460   0.678   1.812 -1.5825  0.7302 -0.0476
   23MOL    H2414148   0.451   0.495   1.973  1.4276 -1.6652 -0.3361
   23MOL    H2514149   0.414   0.377   1.854  1.4042 -0.1023 -0.8826
   23MOL    H2614150   0.199   0.483   1.797 -2.6943  0.9251  0.2855
   23MOL    H2714151   0.202   0.445   1.966  0.2330 -0.1131 -0.1507
   23MOL    H2814152   0.233   0.704   1.810  0.5944 -0.2922 -1.6141
   23MOL    H2914153   0.278   0.711   1.986  0.0157  0.2710 -0.4317
   23MOL    H3014154   0.003   0.702   1.866 -2.2159  1.9439  1.5538
   23MOL    H3114155   0.066   0.806   1.980 -1.4678  0.3730  0.0286
   23MOL    H3214156   0.063   0.519   2.044 -1.1282 -0.5578 -1.9934
   23MOL    H3314157   0.318   1.085   1.233  0.9841  0.7673  1.8413
   23MOL    C3414158   7.677   0.662   2.173 -0.5184  0.6533  0.2396
   23MOL    O3514159   7.658   0.782   2.189  0.1522 -0.1443  0.0143
   23MOL    C3614160   7.644   0.569   2.287  0.4574 -0.6379 -0.9642
   23MOL    C3714161   0.022   0.440   2.293  0.3036  0.4070  0.0552
   23MOL    C3814162   7.681   0.336   2.186  0.4767 -0.3708  0.3005
   23MOL    C3914163   0.036   0.199   2.193 -0.0973  0.1288  0.0871
   23MOL    C4014164   0.181   0.180   2.140  0.1622 -0.3188 -0.3593
   23MOL    O4114165   0.273   0.256   2.166 -0.0411 -0.4484 -0.4005
   23MOL    N4214166   0.193   0.081   2.058  0.1645  0.3223 -0.4027
   23MOL    C4314167   0.313   0.048   1.978  0.5495  0.3661  0.3425
   23MOL    C4414168   0.293   0.066   1.824  0.1339 -0.0806 -0.2517
   23MOL    C4514169   0.423   0.041   1.735  0.1068  0.0794  0.4188
   23MOL    C4614170   0.390   0.089   1.582  0.4218  0.2789  0.5965
   23MOL    N4714171   0.271   0.031   1.522 -0.2934  0.1041 -0.3732
   23MOL    H4814172   7.649   0.628   2.379  0.1216 -0.1165 -1.2816
   23MOL    H4914173   7.537   0.551   2.274  0.3227  0.6309 -1.5919
   23MOL    H5014174   0.131   0.448   2.286  0.6642 -1.5743  2.5477
   23MOL    H5114175   0.003   0.398   2.392 -1.3685 -0.1044 -0.4790
   23MOL    H5214176   0.011   0.370   2.087  1.6086  2.1721  1.4704
   23MOL    H5314177   7.573   0.325   2.185  0.3383  0.9128 -0.3746
   23MOL    H5414178   7.664   0.142   2.136 -0.9673 -1.1685  2.4139
   23MOL    H5514179   0.026   0.159   2.294 -1.4217  2.0184  0.7248
   23MOL    H5614180   0.112   0.021   2.054 -1.2182  1.9210  1.8241
   23MOL    H5714181   0.343   7.647   2.002  1.0748  0.5988  0.6877
   23MOL    H5814182   0.407   0.098   2.001 -0.3757  2.7929 -1.0872
   23MOL    H5914183   0.208   0.012   1.783  0.0478 -0.4770  0.4434
   23MOL    H6014184   0.263   0.170   1.809 -0.2282  0.0078  1.0651
   23MOL    H6114185   0.455   7.638   1.740 -1.4473 -0.4617 -0.4521
   23MOL    H6214186   0.503   0.110   1.761 -0.2583  0.1995  1.2414
   23MOL    H6314187   0.470   0.053   1.518 -0.4578 -0.4468 -0.1210
   23MOL    H6414188   0.381   0.197   1.578  0.5798  0.2884  0.4877
   23MOL    H6514189   0.222   7.658   1.569 -1.0754  0.8569  0.0206
   23MOL    C6614190   0.231   0.066   1.397 -0.0591 -0.1224 -0.7554
   23MOL    O6714191   0.280   0.161   1.340 -0.0183  0.0563 -0.4684
   23MOL    C6814192   0.130   7.671   1.330  0.4511 -0.0777  0.3293
   23MOL    C6914193   7.680   0.000   1.376 -0.7029 -0.8716 -0.3040
   23MOL    C7014194   7.589   0.074   1.273  0.3958  0.2816 -0.4370
   23MOL    C7114195   7.635   0.211   1.232 -0.4018  0.3012 -0.0905
   23MOL    C7214196   7.637   0.307   1.351  0.2178  0.4595 -0.5760
   23MOL    O7314197   7.530   0.328   1.409  0.2932  0.4716 -0.2995
   23MOL    N7414198   0.057   0.365   1.373  0.5429  0.1064 -0.3845
   23MOL    C7514199   0.078   0.469   1.473  0.3197 -0.0426 -0.0910
   23MOL    C7614200   0.043   0.612   1.420  0.2060  0.7255  0.3993
   23MOL    C7714201   0.041   0.720   1.528 -0.8317 -0.2392  0.0243
   23MOL    C7814202   0.003   0.864   1.484  0.4335 -0.3943  0.3931
   23MOL    N7914203   7.572   0.882   1.417  0.4036  0.2207 -0.2235
   23MOL    H8014204   0.159   7.675   1.225 -0.6658 -0.0317  0.0083
   23MOL    H8114205   0.159   7.570   1.359 -2.5940 -1.0380  0.1946
   23MOL    H8214206   7.641   7.601   1.395  1.1280 -1.8560 -1.5815
   23MOL    H8314207   7.677   0.055   1.470 -0.4166 -0.6124 -0.4457
   23MOL    H8414208   7.490   0.085   1.318  0.2855 -1.4288 -0.2196
   23MOL    H8514209   7.581   0.014   1.183  1.5897 -1.5050  0.6337
   23MOL    H8614210   7.560   0.242   1.160 -0.7623 -0.9473 -0.2534
   23MOL    H8714211   0.034   0.207   1.190  0.2183  1.2257  1.2627
   23MOL    H8814212   0.133   0.335   1.314  0.4839 -0.4496 -0.1842
   23MOL    H8914213   0.178   0.449   1.511 -1.0974 -2.9941  2.3149
   23MOL    H9014214   0.015   0.460   1.562  1.0766 -0.0263  0.4438
   23MOL    H9114215   0.118   0.631   1.343  0.5747  0.1060  0.5999
   23MOL    H9214216   7.643   0.612   1.380  0.0607  1.3906  0.7578
   23MOL    H9314217   0.137   0.736   1.578 -1.2908  3.4492 -0.1192
   23MOL    H9414218   7.682   0.693   1.615  0.1422  1.4904  1.2536
   23MOL    H9514219   0.076   0.902   1.413 -0.4773 -0.4680 -0.5834
   23MOL    H9614220   0.010   0.935   1.567  0.5649  1.1001 -0.8915
   23MOL    H9714221   7.557   0.862   1.319  0.9674  1.2103 -0.5216
   23MOL    C9814222   7.453   0.904   1.475  0.0897  0.2199 -0.1773
   23MOL    O9914223   7.434   0.909   1.602 -0.3401 -0.0359  0.0479
   23MOL   C10014224   7.343   0.938   1.379 -0.4941 -0.4498  0.3574
   23MOL   C10114225   7.212   0.971   1.457 -0.1049  0.5073 -0.2401
   23MOL   C10214226   7.215   1.099   1.531 -0.4349 -0.1591 -0.3514
   23MOL   C10314227   7.239   1.223   1.442 -0.2972 -0.1068 -0.6490
   23MOL   C10414228   7.206   1.364   1.501  0.2035 -0.0874  0.4314
   23MOL   O10514229   7.280   1.419   1.584 -0.6630 -0.5484  0.0650
   23MOL   N10614230   7.096   1.428   1.458 -0.5711  0.3785  0.6389
   23MOL   C10714231   7.038   1.551   1.508  0.8228 -0.7826  0.2936
   23MOL   C10814232   7.087   1.671   1.423  0.5168 -0.5105  0.2192
   23MOL   C10914233   7.059   1.656   1.270 -0.2396 -0.1057 -0.5929
   23MOL   C11014234   7.108   1.773   1.174 -0.4592 -0.2679 -0.7232
   23MOL   N11114235   7.251   1.793   1.178  0.2752  0.0715  0.2202
   23MOL   H11214236   7.381   1.022   1.320 -0.9220 -1.1924 -0.9851
   23MOL   H11314237   7.339   0.857   1.307 -0.7735 -1.2209  1.2378
   23MOL   H11414238   7.135   0.980   1.380  0.2689  0.5547 -0.6080
   23MOL   H11514239   7.161   0.895   1.517 -0.2191  1.2380  0.5944
   23MOL   H11614240   7.269   1.103   1.626 -0.9132 -2.2871  0.0409
   23MOL   H11714241   7.115   1.111   1.574  0.5081  1.1341  1.5826
   23MOL   H11814242   7.185   1.212   1.348 -3.5078 -2.2330  1.3272
   23MOL   H11914243   7.345   1.233   1.422 -0.0999 -0.8230  0.0265
   23MOL   H12014244   7.025   1.373   1.411  1.5138 -1.3687 -0.5870
   23MOL   H12114245   7.065   1.571   1.612 -1.6827 -0.3410  0.8810
   23MOL   H12214246   6.932   1.532   1.492  0.8157  1.0592 -2.2169
   23MOL   H12314247   7.030   1.760   1.450 -1.2230 -0.8770 -2.0842
   23MOL   H12414248   7.196   1.675   1.429  0.4811  0.6348  0.2631
   23MOL   H12514249   6.952   1.648   1.256 -0.0782 -0.4531 -1.6322
   23MOL   H12614250   7.103   1.565   1.228  0.8559  0.2457 -0.2303
   23MOL   H12714251   7.060   1.869   1.193 -2.4687 -1.3188 -0.3609
   23MOL   H12814252   7.062   1.752   1.077  0.5292  1.2788 -1.5483
   23MOL   H12914253   7.301   1.730   1.239 -2.2005 -1.8553  0.3406
   23MOL   C13014254   7.317   1.883   1.107  0.2099  0.3626  0.0778
   23MOL   O13114255   7.259   1.954   1.024  0.7358  0.1045  0.2721
   23MOL   C13214256   7.469   1.890   1.123 -0.6683 -0.6024  0.0235
   23MOL   C13314257   7.545   1.850   0.999 -0.5897  0.3967  0.5733
   23MOL   C13414258   7.534   1.939   0.877 -0.0885 -0.2453 -1.1116
   23MOL   C13514259   7.625   1.903   0.763  0.0568 -0.5565  0.4077
   23MOL   C13614260   7.609   2.000   0.645  0.1218  0.2284 -0.2386
   23MOL   O13714261   7.654   2.110   0.648  0.5605  0.5719 -0.6098
   23MOL   N13814262   7.557   1.959   0.532  0.0585 -0.0017  0.1611
   23MOL   C13914263   7.518   2.043   0.413 -0.1620 -0.8335  0.4478
   23MOL   C14014264   7.431   1.967   0.319  0.1498 -0.2959  0.1504
   23MOL   C14114265   7.381   2.065   0.204  0.0804 -0.3044 -0.4083
   23MOL   C14214266   7.497   2.112   0.113  0.4485  0.0845 -0.4584
   23MOL   N14314267   7.562   1.998   0.043  0.5515 -0.9397 -0.0392
   23MOL   H14414268   7.500   1.992   1.145  0.2184 -0.4665 -1.7418
   23MOL   H14514269   7.501   1.814   1.195 -0.6764  0.7024  1.4226
   23MOL   H14614270   7.648   1.825   1.026 -0.6276  0.1107  0.4538
   23MOL   H14714271   7.517   1.748   0.974  3.3954 -0.7463  0.4519
   23MOL   H14814272   7.546   2.045   0.902 -1.4529 -0.2230 -0.4984
   23MOL   H14914273   7.428   1.940   0.852 -0.7488 -1.7497  1.4213
   23MOL   H15014274   7.623   1.798   0.735 -4.8297 -0.4927  0.1427
   23MOL   H15114275   0.023   1.941   0.789 -0.4924 -0.1420  1.9590
   23MOL   H15214276   7.548   1.859   0.527  0.9977 -0.0805 -0.0762
   23MOL   H15314277   7.607   2.084   0.366 -1.6008  1.6810 -0.1737
   23MOL   H15414278   7.471   2.132   0.454 -0.0582 -1.0634  1.0827
   23MOL   H15514279   7.474   1.875   0.279 -0.5785  0.0028 -1.3772
   23MOL   H15614280   7.347   1.931   0.379  0.0419 -0.7386 -0.2559
   23MOL   H15714281   7.332   2.152   0.247 -0.3590 -1.0239  0.5541
   23MOL   H15814282   7.309   2.010   0.144 -0.5977  0.5370 -0.3800
   23MOL   H15914283   7.577   2.165   0.164 -0.3015 -0.4317  1.2583
   23MOL   H16014284   7.448   2.181   0.045  0.0896  0.3802  0.1011
   23MOL   H16114285   7.648   1.965   0.085  1.2989  1.2400  0.2258
   23MOL   C16214286   7.524   1.933   7.632 -0.2516 -0.0403 -0.1547
   23MOL   O16314287   7.419   1.964   7.569 -0.8179 -0.7383 -0.2858
   23MOL   C16414288   7.610   1.808   7.594 -0.3913 -0.3306  0.5730
   23MOL   C16514289   7.525   1.705   7.534  0.2635 -0.0781  0.0457
   23MOL   C16614290   7.420   1.649   7.638 -0.0872  0.0911  0.1204
   23MOL   C16714291   7.342   1.533   7.592  0.1801  0.1774 -0.9082
   23MOL   C16814292   7.251   1.568   7.471  0.0484  0.7624 -0.5667
   23MOL   O16914293   7.284   1.553   7.358  0.3555  0.0713 -0.4552
   23MOL   N17014294   7.132   1.619   7.503  0.6548 -0.3391 -0.0219
   23MOL   C17114295   7.021   1.643   7.410 -0.5246  0.2218 -0.2774
   23MOL   C17214296   6.924   1.754   7.454 -0.0097  0.3458 -0.5426
   23MOL   C17314297   6.796   1.779   7.364 -0.3244 -0.3046 -0.0860
   23MOL   C17414298   6.677   1.834   7.439 -0.2762  0.3912 -0.2149
   23MOL   N17514299   6.610   1.744   7.535  0.3629 -0.3007 -0.3317
   23MOL   H17614300   7.684   1.849   7.526  0.2028 -1.4055  0.5660
   23MOL   H17714301   7.657   1.759   7.679  0.7813  1.0535  0.7422
   23MOL   H17814302   7.467   1.743   7.451 -0.6551 -2.8580 -0.6515
   23MOL   H17914303   7.595   1.631   7.495 -1.0605 -0.7144 -1.1703
   23MOL   H18014304   7.352   1.728   7.667 -1.1661 -0.1984 -1.5313
   23MOL   H18114305   7.468   1.620   0.030 -2.5079  0.8419  1.6206
   23MOL   H18214306   7.274   1.513   7.674 -1.1803  0.6401 -1.9090
   23MOL   H18314307   7.398   1.442   7.573  1.6976  0.9124 -0.0287
   23MOL   H18414308   7.121   1.638   7.601  2.1178 -1.3628  0.3368
   23MOL   H18514309   6.969   1.550   7.389  0.1039  0.1185 -1.4026
   23MOL   H18614310   7.069   1.673   7.317 -2.1509 -0.1218 -1.2263
   23MOL   H18714311   6.887   1.718   7.550  1.1816  0.7696  0.0896
   23MOL   H18814312   6.964   1.854   7.470  1.8714 -0.7827  2.2855
   23MOL   H18914313   6.781   1.681   7.318  0.3133  0.3125 -1.6527
   23MOL   H19014314   6.826   1.843   7.282  1.2345  0.0887  0.7613
   23MOL   H19114315   6.599   1.885   7.383 -3.7479  0.2781  4.2553
   23MOL   H19214316   6.725   1.908   7.504 -0.5673  0.8274 -0.4927
   23MOL   H19314317   6.586   1.787   7.623 -0.6616 -2.1758  0.3286
   23MOL   C19414318   6.542   1.643   7.494  0.3862  0.3058  0.1505
   23MOL   O19514319   6.543   1.592   7.380 -0.9096  0.4874 -1.0416
   23MOL   C19614320   6.442   1.594   7.609 -0.1540 -0.0823  0.6899
   23MOL   C19714321   6.398   1.453   7.593 -0.3111  0.1968  0.3136
   23MOL   C19814322   6.491   1.347   7.666 -0.5443  0.1618  0.3731
   23MOL   C19914323   6.445   1.206   7.695 -0.0387 -0.1903 -0.0340
   23MOL   C20014324   6.331   1.208   0.104 -0.0455  0.2941  0.0808
   23MOL   O20114325   6.347   1.221   0.226  0.0609  0.4551 -0.3714
   23MOL   N20214326   6.209   1.209   0.052 -0.3194  0.1763  0.0226
   23MOL   C20314327   6.088   1.226   0.131 -0.0205  0.1148  0.4762
   23MOL   C20414328   6.042   1.373   0.113  0.1478  0.1053  0.7220
   23MOL   C20514329   5.913   1.415   0.188  0.3820  0.2031 -0.0167
   23MOL   C20614330   5.898   1.566   0.204  0.4809 -0.4523 -0.5225
   23MOL   N20714331   5.780   1.592   0.287  0.1999  0.5684 -0.1143
   23MOL   H20814332   6.491   1.602   0.005  2.1830 -2.0887 -0.2591
   23MOL   H20914333   6.364   1.669   7.598  0.0214  0.0025  0.0122
   23MOL   H21014334   6.302   1.457   7.645 -0.3982  2.0857  0.0571
   23MOL   H21114335   6.375   1.419   7.492 -1.7146 -0.7807  0.9516
   23MOL   H21214336   6.524   1.392   0.058  1.2264 -1.9672  0.8003
   23MOL   H21314337   6.572   1.327   7.596 -0.3816  0.3330  0.5145
   23MOL   H21414338   6.530   1.145   0.023 -0.0951  0.6202  1.8937
   23MOL   H21514339   6.406   1.141   7.617  0.3978 -0.2198 -0.2277
   23MOL   H21614340   6.190   1.201   7.654 -1.9116 -3.7939  0.5501
   23MOL   H21714341   6.107   1.191   0.232  0.2466 -1.5593 -0.1518
   23MOL   H21814342   6.011   1.157   0.096  0.5450 -0.2783  0.0090
   23MOL   H21914343   6.117   1.449   0.134 -0.4263  0.9752 -0.3444
   23MOL   H22014344   6.026   1.369   0.006  1.1751  0.9657  0.5273
   23MOL   H22114345   5.924   1.378   0.290  4.0246  2.0229  0.3306
   23MOL   H22214346   5.826   1.375   0.136 -1.6029  1.5735  2.1528
   23MOL   H22314347   5.898   1.601   0.101  1.5545 -0.3041 -0.4802
   23MOL   H22414348   5.992   1.605   0.244 -1.0178  1.1331  1.5862
   23MOL   H22514349   5.695   1.604   0.233  0.4348  1.1557 -0.3581
   23MOL   C22614350   5.777   1.616   0.416 -0.3312  0.2898 -0.4899
   23MOL   O22714351   5.877   1.604   0.489 -0.1511  0.4012  0.1098
   23MOL   C22814352   5.641   1.655   0.472 -0.6161 -0.1031  0.0682
   23MOL   C22914353   5.609   1.807   0.462 -0.4538 -0.0345  0.0561
   23MOL   C23014354   5.581   1.859   0.320  0.9346  0.6806 -0.7445
   23MOL   C23114355   5.522   1.999   0.312  0.6917  0.1910 -0.4490
   23MOL   C23214356   5.620   2.114   0.327 -0.0850 -0.2218  0.4376
   23MOL   O23314357   5.655   2.171   0.221 -0.7752  0.1006 -0.1907
   23MOL   N23414358   5.676   2.141   0.447  0.0625 -0.5953 -0.4350
   23MOL   C23514359   5.781   2.239   0.472  0.4557 -0.2468  0.0109
   23MOL   C23614360   5.914   2.199   0.407 -0.6946  0.2451 -0.2833
   23MOL   C23714361   5.951   2.053   0.405  0.4328 -0.0243 -0.8778
   23MOL   C23814362   6.086   2.014   0.333  0.5454 -0.2417 -0.4984
   23MOL   N23914363   6.196   2.079   0.405  0.3289  0.4571  0.4595
   23MOL   H24014364   5.566   1.603   0.413  0.1064  0.1571 -1.1156
   23MOL   H24114365   5.630   1.610   0.570 -0.9123 -0.6543 -0.2180
   23MOL   H24214366   5.518   1.832   0.517  0.6872  2.6967  0.7863
   23MOL   H24314367   5.688   1.871   0.503 -0.7026 -0.6414  1.5038
   23MOL   H24414368   5.508   1.788   0.278  2.1672 -1.3000  0.3781
   23MOL   H24514369   5.672   1.848   0.262  0.7296  0.2715 -0.9955
   23MOL   H24614370   5.444   2.015   0.386  1.1036  0.3687 -0.0519
   23MOL   H24714371   5.472   2.019   0.217 -0.8528 -1.3134  0.0340
   23MOL   H24814372   5.635   2.101   0.531 -2.8269  0.3919 -1.2985
   23MOL   H24914373   5.788   2.256   0.579 -2.0188  1.0094  0.0163
   23MOL   H25014374   5.751   2.328   0.416 -1.1434 -0.0012  1.2178
   23MOL   H25114375   5.940   2.242   0.311  0.1118 -0.7199 -0.4963
   23MOL   H25214376   5.988   2.234   0.478 -0.6594 -1.0791  0.3604
   23MOL   H25314377   5.879   1.996   0.346  1.9275  0.7607 -3.5363
   23MOL   H25414378   5.936   2.004   0.501 -2.1959  0.9552 -0.7470
   23MOL   H25514379   6.083   2.051   0.230  0.7606 -0.8589 -0.7252
   23MOL   H25614380   6.095   1.907   0.316 -1.1860 -0.6573  0.9407
   23MOL   H25714381   6.212   2.179   0.407  0.9642  0.3658 -0.1773
   23MOL   C25814382   6.275   2.023   0.499 -0.5293  0.2809  0.0240
   23MOL   O25914383   6.269   1.904   0.536  0.6702  0.1894 -0.3942
   23MOL   C26014384   6.366   2.122   0.571  1.3558  0.2332 -0.3840
   23MOL   C26114385   6.373   2.124   0.718  0.4568 -0.1671  0.4035
   23MOL   C26214386   6.451   2.240   0.773  0.4582 -0.1134 -0.2135
   23MOL   C26314387   6.597   2.237   0.738  0.4464 -0.8861 -0.1356
   23MOL   C26414388   6.636   2.324   0.616  0.0439 -0.0829 -0.0490
   23MOL   O26514389   6.550   2.375   0.547  0.4079 -0.6766 -0.0321
   23MOL   N26614390   6.763   2.323   0.581  0.1279  0.7345 -0.0944
   23MOL   C26714391   6.822   2.407   0.477  0.0851  0.6373 -0.7124
   23MOL   C26814392   6.973   2.388   0.468 -0.1248 -0.0380  0.8929
   23MOL   C26914393   7.029   2.499   0.378  0.6912  0.5423  0.4342
   23MOL   C27014394   7.174   2.467   0.332  0.2871  0.0032 -0.9914
   23MOL   N27114395   7.206   2.539   0.209 -0.1745  1.0596 -0.2015
   23MOL   H27214396   6.467   2.121   0.532  2.0595 -0.7562  1.4326
   23MOL   H27314397   6.327   2.218   0.536  2.4407  0.9996  0.5160
   23MOL   H27414398   6.272   2.124   0.759  0.2069 -1.6514 -0.1879
   23MOL   H27514399   6.408   2.035   0.770 -0.0926 -0.1093  0.8711
   23MOL   H27614400   6.436   2.233   0.881  1.0357 -3.1072 -0.2875
   23MOL   H27714401   6.407   2.337   0.748 -1.3048 -1.4689 -2.5992
   23MOL   H27814402   6.643   2.138   0.732  2.0487 -0.1722 -0.0548
   23MOL   H27914403   6.637   2.286   0.827 -0.2162 -3.1264  1.4303
   23MOL   H28014404   6.830   2.270   0.634 -1.1831  0.1001  0.9545
   23MOL   H28114405   6.799   2.510   0.504  2.4686  0.2497  3.1110
   23MOL   H28214406   6.774   2.383   0.382  0.2688 -2.0002 -0.1705
   23MOL   H28314407   7.023   2.386   0.565  0.1899  0.5556  0.7448
   23MOL   H28414408   7.010   2.293   0.429  0.4370  0.7737 -0.5738
   23MOL   H28514409   7.028   2.599   0.420 -0.7881  0.3907  0.7999
   23MOL   H28614410   6.962   2.504   0.292  1.8786  1.2672 -0.4574
   23MOL   H28714411   7.169   2.360   0.310 -0.5556  0.3320 -2.4235
   23MOL   H28814412   7.234   2.481   0.422 -2.2728 -1.1732  0.9958
   23MOL   H28914413   7.162   2.630   0.201 -1.2966  0.6622  1.2974
   23MOL   C29014414   7.245   2.483   0.092 -0.0339 -0.2705 -0.4477
   23MOL   O29114415   7.274   2.362   0.088  0.0305 -0.4177  0.4472
   23MOL   C29214416   7.232   2.568   7.664  0.5595 -0.2689  0.1755
   23MOL   C29314417   7.228   2.493   7.531 -0.0632 -0.6867  0.3548
   23MOL   C29414418   7.369   2.439   7.484 -0.6455 -0.5041 -0.3855
   23MOL   C29514419   7.385   2.282   7.463 -0.0409  0.1697  0.2725
   23MOL   C29614420   7.304   2.220   7.352 -0.1754 -0.1415 -0.4803
   23MOL   O29714421   7.255   2.294   7.270 -0.5810  0.4862  0.6372
   23MOL   N29814422   7.299   2.087   7.352 -0.0925  0.3464  0.3806
   23MOL   C29914423   7.206   2.009   7.267 -0.4556 -0.0690  0.3335
   23MOL   C30014424   7.285   1.893   7.195  0.6549 -0.1287 -0.1046
   23MOL   C30114425   7.194   1.845   7.082  0.3552 -0.6331 -0.0333
   23MOL   C30214426   7.264   1.732   7.000 -0.0494  0.2350  0.3076
   23MOL   N30314427   7.226   1.605   7.057  0.4194  0.1153 -0.7662
   23MOL   H30414428   7.137   2.621   7.675  0.7217  0.4165 -1.6568
   23MOL   H30514429   7.315   2.639   7.670  2.9429 -3.0135  1.1550
   23MOL   H30614430   7.165   2.406   7.547 -0.2711 -0.6260 -0.1236
   23MOL   H30714431   7.178   2.557   7.458  2.1337 -0.8817 -1.3583
   23MOL   H30814432   7.439   2.464   7.563 -3.7431  0.4343  2.1466
   23MOL   H30914433   7.399   2.491   7.393  0.3082 -0.0114  0.2145
   23MOL   H31014434   7.353   2.229   7.553  0.3939 -0.9260 -0.2114
   23MOL   H31114435   7.488   2.246   7.462 -0.9341 -2.4503  0.2271
   23MOL   H31214436   7.344   2.044   7.432  1.8803  0.2374 -0.7404
   23MOL   H31314437   7.168   2.072   7.186 -0.0824 -3.1431 -2.3356
   23MOL   H31414438   7.127   1.967   7.329  2.4741 -2.0519  2.8608
   23MOL   H31514439   7.379   1.933   7.159  0.3278  0.5145 -0.2515
   23MOL   H31614440   7.305   1.821   7.274  4.2762  1.3314  0.3657
   23MOL   H31714441   7.168   1.930   7.019  0.2185  0.0762  0.9571
   23MOL   H31814442   7.100   1.815   7.129  0.8105  0.0763  1.3468
   23MOL   H31914443   7.371   1.755   6.992 -0.1815  1.0249  0.7758
   23MOL   H32014444   7.242   1.745   6.894 -0.4933  1.2322  0.5146
   23MOL   H32114445   7.252   1.593   7.154 -2.3660  2.1978  0.3268
   23MOL   C32214446   7.157   1.502   7.007 -0.6591  0.2602 -1.0439
   23MOL   O32314447   7.115   1.493   6.891 -0.8282 -0.5138  0.6296
   23MOL   C32414448   7.140   1.378   7.106 -0.6866 -0.1860  0.5863
   23MOL   C32514449   7.135   1.239   7.034  0.0131 -0.9944 -0.1163
   23MOL   C32614450   7.101   1.123   7.123  0.4938  0.4049 -0.6136
   23MOL   C32714451   6.948   1.091   7.145  0.7585  0.8073 -0.1433
   23MOL   C32814452   6.880   1.201   7.236  0.5486 -0.2966  0.1810
   23MOL   O32914453   6.903   1.207   7.361  0.1029  0.1543  0.1507
   23MOL   N33014454   6.797   1.285   7.163  0.4269  0.0510  0.3237
   23MOL   C33114455   6.701   1.379   7.225  0.2772  0.1189  0.1641
   23MOL   C33214456   6.570   1.302   7.248 -0.6138  0.1216  0.0058
   23MOL   C33314457   6.577   1.160   7.311  0.5076  0.0635  0.2396
   23MOL   C33414458   6.443   1.101   7.342 -0.3766  0.4545 -0.2554
   23MOL   N33514459   6.366   1.038   7.228  0.2269 -1.0175  0.2717
   23MOL   H33614460   7.225   1.368   7.174 -0.9827 -2.3099  0.6979
   23MOL   H33714461   7.052   1.392   7.169 -0.1841 -0.7313  1.4245
   23MOL   H33814462   7.063   1.250   6.953  1.2169 -0.9129 -1.2036
   23MOL   H33914463   7.226   1.216   6.979 -0.7577 -1.1746 -1.3310
   23MOL   H34014464   7.158   1.133   7.215 -1.5576  2.4467  0.4818
   23MOL   H34114465   7.145   1.031   7.085  1.3850  0.8635 -0.6946
   23MOL   H34214466   6.933   0.997   7.198  1.8655 -0.1500 -1.4540
   23MOL   H34314467   6.905   1.065   7.048  1.2105  1.4237 -0.5133
   23MOL   H34414468   6.784   1.271   7.064 -2.1725 -2.0607  0.8912
   23MOL   H34514469   6.683   1.468   7.165  0.7517  0.4046  0.4471
   23MOL   H34614470   6.733   1.409   7.325 -2.1784  1.1804  0.6644
   23MOL   H34714471   6.495   1.350   7.311 -0.5692  1.5938 -1.0489
   23MOL   H34814472   6.520   1.287   7.152  0.1343  0.6323 -0.4626
   23MOL   H34914473   6.636   1.162   7.402  0.8329 -1.1575  0.0621
   23MOL   H35014474   6.627   1.093   7.241  1.2883 -0.3503  1.1889
   23MOL   H35114475   6.373   1.169   7.391 -0.0950  2.4902 -2.5827
   23MOL   H35214476   6.475   1.019   7.406 -1.2989 -1.0264 -1.6568
   23MOL   H35314477   6.375   1.084   7.139  0.1003  0.4799  1.0105
   23MOL   C35414478   6.274   0.942   7.242  0.4939 -0.2548 -0.5935
   23MOL   O35514479   6.255   0.880   7.350  0.0183  0.2685  0.4354
   23MOL   C35614480   6.196   0.911   7.113 -0.2907 -0.6660  0.7298
   23MOL   C35714481   6.213   0.763   7.073  0.0382 -0.2375  0.0509
   23MOL   C35814482   6.131   0.721   6.947  0.6144 -0.1126 -0.1243
   23MOL   C35914483   6.192   0.777   6.819  0.1661 -0.1536 -0.3821
   23MOL   C36014484   6.328   0.708   6.783  0.0156 -0.3299  0.4190
   23MOL   O36114485   6.352   0.584   6.797 -0.4260  0.4317  0.1289
   23MOL   N36214486   6.412   0.792   6.713  0.5875 -0.5827 -0.7699
   23MOL   C36314487   6.553   0.751   6.683 -0.1192  0.0159 -0.3486
   23MOL   C36414488   6.577   0.727   6.529 -0.3315 -0.2097  0.0641
   23MOL   C36514489   6.479   0.624   6.462 -0.2018 -0.3098  0.4689
   23MOL   C36614490   6.521   0.596   6.322 -0.6363  0.6311  0.0556
   23MOL   N36714491   6.470   0.468   6.276  0.0844  0.4056 -0.3340
   23MOL   H36814492   6.089   0.934   7.119 -0.6918 -2.1614 -0.5481
   23MOL   H36914493   6.245   0.973   7.038 -1.0815 -0.2389  0.5591
   23MOL   H37014494   6.318   0.737   7.060  0.5456  0.6392  2.0875
   23MOL   H37114495   6.193   0.703   7.162  1.2705 -1.5648 -0.5554
   23MOL   H37214496   6.026   0.748   6.949  0.9106  0.9668  1.4045
   23MOL   H37314497   6.145   0.613   6.946  0.5108 -0.1715  2.1099
   23MOL   H37414498   6.203   0.885   6.829  3.0154 -0.5073  0.7723
   23MOL   H37514499   6.134   0.747   6.731 -0.3744  0.8856 -0.3899
   23MOL   H37614500   6.369   0.874   6.671 -0.5455 -1.5879 -1.6236
   23MOL   H37714501   6.578   0.660   6.739 -1.3033  0.5368  1.0745
   23MOL   H37814502   6.630   0.824   6.706 -0.7165  0.8649 -1.0223
   23MOL   H37914503   6.588   0.823   6.478  1.5897 -0.5296 -0.1584
   23MOL   H38014504   6.673   0.675   6.523 -0.3480 -0.1116 -1.1026
   23MOL   H38114505   6.373   0.649   6.466 -0.5657 -1.5898 -0.6626
   23MOL   H38214506   6.504   0.534   6.519 -1.3615 -0.7779  0.2566
   23MOL   H38314507   6.627   0.602   6.299 -0.5794 -1.0751 -0.1864
   23MOL   H38414508   6.475   0.681   6.272 -1.8821  0.3276  0.6561
   23MOL   H38514509   6.482   0.384   6.331  0.1636  0.3816 -0.3881
   23MOL   C38614510   6.389   0.459   6.173  0.4930  0.6006 -0.5924
   23MOL   O38714511   6.353   0.554   6.109  0.3040 -0.1955 -0.0858
   23MOL   C38814512   6.346   0.319   6.142  0.3270  0.1262  0.2550
   23MOL   C38914513   6.215   0.307   6.077  0.1966 -0.1268 -0.2229
   23MOL   C39014514   6.096   0.337   6.172 -0.0059  1.1693  0.6671
   23MOL   C39114515   5.955   0.326   6.106  0.2793 -0.4873  0.3262
   23MOL   C39214516   5.930   0.182   6.048  0.4928  0.6598 -0.3223
   23MOL   O39314517   5.970   0.080   6.102 -0.1164 -0.0888  0.1488
   23MOL   N39414518   5.864   0.177   5.936 -0.5631  0.2412 -0.0528
   23MOL   C39514519   5.808   0.062   5.866  0.9528  0.7840 -0.6026
   23MOL   C39614520   5.892   0.004   5.754 -0.5752  0.3804 -0.5117
   23MOL   C39714521   6.032   7.639   5.772  0.6797 -0.6122  0.1113
   23MOL   C39814522   6.024   7.499   5.837 -0.2505 -0.0929  0.6417
   23MOL   N39914523   6.000   7.506   5.986 -0.2076 -0.7072 -0.5721
   23MOL   H40014524   6.422   0.280   6.074 -1.4105 -1.7748 -0.6581
   23MOL   H40114525   6.366   0.245   6.221  2.4429  0.5399  0.1532
   23MOL   H40214526   6.215   0.379   5.996 -1.4476 -2.0636 -2.0193
   23MOL   H40314527   6.204   0.207   6.034  1.8644 -0.6664  0.5432
   23MOL   H40414528   6.105   0.438   6.212 -0.3335  1.4865 -0.0640
   23MOL   H40514529   6.089   0.270   6.258 -1.2614 -2.0924 -1.8762
   23MOL   H40614530   5.937   0.405   6.033  1.0380 -0.7423 -0.1463
   23MOL   H40714531   5.878   0.341   6.182  0.9629 -1.3599  1.1948
   23MOL   H40814532   5.832   0.268   5.905  1.2871  0.9810  0.1470
   23MOL   H40914533   5.709   0.093   5.831  0.4771 -1.6229 -1.4737
   23MOL   H41014534   5.793   7.683   5.938  1.9889  1.8000  0.7810
   23MOL   H41114535   5.820   7.636   5.711  0.0306 -2.5745  2.9602
   23MOL   H41214536   5.907   0.080   5.678 -0.7093 -0.0201 -0.9389
   23MOL   H41314537   6.101   0.009   5.817  0.1082  2.1134 -3.1399
   23MOL   H41414538   6.058   7.620   5.668  0.3126 -1.9386  0.2577
   23MOL   H41514539   6.123   7.455   5.830  0.0234  0.4070  1.3990
   23MOL   H41614540   5.957   7.428   5.788 -1.1188  1.8325 -1.0688
   23MOL   H41714541   6.001   7.603   6.016  2.2825 -0.3229 -1.7715
   23MOL   C41814542   5.972   7.406   6.070  0.5728 -0.2725 -0.1711
   23MOL   O41914543   5.975   7.289   6.039 -0.1607 -0.7341 -0.3963
   23MOL   C42014544   5.933   7.449   6.217 -0.3688  0.8723 -0.2365
   23MOL   C42114545   5.985   7.341   6.323 -0.1566 -0.1688  0.5755
   23MOL   C42214546   6.125   7.293   6.315  0.1929  0.1599 -0.5374
   23MOL   C42314547   6.169   7.213   6.439 -0.2706 -0.5214  0.1715
   23MOL   C42414548   6.310   7.163   6.419  0.0592 -0.4429  0.8970
   23MOL   O42514549   6.397   7.243   6.373  0.0635  0.0463 -0.2281
   23MOL   N42614550   6.345   7.034   6.444 -0.2843 -0.0241 -0.2167
   23MOL   C42714551   6.476   6.976   6.433 -0.4732 -0.0640 -0.6892
   23MOL   C42814552   6.580   7.039   6.525 -0.1938 -0.3280  0.2035
   23MOL   C42914553   6.710   6.970   6.519  0.7313  0.2902 -0.1427
   23MOL   C43014554   6.817   7.034   6.598 -0.0095 -0.3936 -0.0400
   23MOL   N43114555   6.922   6.941   6.628  0.0156 -0.2776 -0.0017
   23MOL   H43214556   5.962   7.553   6.231  0.3865  0.8302 -1.4027
   23MOL   H43314557   5.824   7.462   6.222 -0.3402  0.0504  3.1835
   23MOL   H43414558   5.956   7.367   6.425 -0.5645 -1.5833  0.8392
   23MOL   H43514559   5.923   7.255   6.295  0.7394 -0.6396 -0.0013
   23MOL   H43614560   6.185   7.384   6.309 -0.8006  0.9956  1.8146
   23MOL   H43714561   6.149   7.234   6.227  0.4244 -0.8267  0.1847
   23MOL   H43814562   6.096   7.135   6.461 -0.5412 -0.5955 -0.9298
   23MOL   H43914563   6.166   7.279   6.525  0.9742 -0.4227  0.1350
   23MOL   H44014564   6.263   6.984   6.477 -0.8337  0.8168 -0.2787
   23MOL   H44114565   6.514   6.996   6.333  0.5372 -2.2044 -0.7616
   23MOL   H44214566   6.479   6.868   6.448 -1.6614  0.2825  2.3415
   23MOL   H44314567   6.591   7.146   6.511  0.4922 -0.0831  2.3641
   23MOL   H44414568   6.540   7.019   6.625  0.4793 -1.8992  0.1843
   23MOL   H44514569   6.746   6.985   6.417  0.2696  2.5322  0.0066
   23MOL   H44614570   6.699   6.863   6.539  0.8581 -0.1151 -2.1552
   23MOL   H44714571   6.775   7.045   6.698 -0.2416 -1.3657 -0.0210
   23MOL   H44814572   6.853   7.129   6.559  2.3282 -1.4822 -0.6570
   23MOL   H44914573   6.923   6.901   6.720 -0.2133 -0.2741  0.0027
   23MOL   C45014574   7.011   6.899   6.542  0.3111  0.0411 -0.0907
   23MOL   O45114575   7.014   6.935   6.428 -0.1021  0.0765 -0.0650
   23MOL   C45214576   7.111   6.792   6.594 -0.0933  0.1214 -0.0432
   23MOL   C45314577   7.148   6.682   6.488 -0.6160 -0.0948 -0.1418
   23MOL   C45414578   7.031   6.614   6.416 -0.4380 -0.0139  0.3744
   23MOL   C45514579   7.080   6.544   6.289  0.3907 -0.0015 -0.2912
   23MOL   C45614580   7.154   6.413   6.310 -0.2475 -0.0297 -1.1415
   23MOL   O45714581   7.148   6.365   6.423 -0.1974  0.0359 -0.1900
   23MOL   N45814582   7.227   6.368   6.216 -0.6430 -0.5614 -0.0812
   23MOL   C45914583   7.318   6.261   6.245  0.9169  0.2636  0.5176
   23MOL   C46014584   7.441   6.284   6.161 -0.7197 -0.1302 -0.0415
   23MOL   C46114585   7.536   6.174   6.187 -0.6487  0.0666  0.3217
   23MOL   C46214586   7.496   6.052   6.105  0.3835 -0.5003  0.5388
   23MOL   N46314587   7.544   6.065   5.968 -1.0152  1.1667  0.1506
   23MOL   H46414588   7.200   6.834   6.641 -1.6093  1.1754  2.0135
   23MOL   H46514589   7.065   6.727   6.669  1.3040  0.1956  0.9116
   23MOL   H46614590   7.222   6.730   6.423 -0.9929 -1.6087 -1.7524
   23MOL   H46714591   7.209   6.604   6.535 -0.4344 -0.9544 -1.7283
   23MOL   H46814592   6.958   6.689   6.386 -0.6208  0.6821  2.5237
   23MOL   H46914593   6.988   6.543   6.487  2.7861 -2.6118 -0.1280
   23MOL   H47014594   7.156   6.599   6.234 -0.8576  1.0862 -0.9792
   23MOL   H47114595   7.003   6.528   6.213  0.6684 -0.6482 -0.4352
   23MOL   H47214596   7.220   6.410   6.124 -0.4780 -0.4100 -0.0247
   23MOL   H47314597   7.266   6.165   6.238  1.7292 -0.2212  1.0004
   23MOL   H47414598   7.355   6.280   6.345  0.9827 -2.3162  1.0129
   23MOL   H47514599   7.421   6.298   6.054 -0.0206  2.9665  0.1625
   23MOL   H47614600   7.475   6.381   6.198 -1.5034 -0.0040  0.3591
   23MOL   H47714601   7.547   6.154   6.294  1.8417 -1.5596 -0.1889
   23MOL   H47814602   7.638   6.210   6.172 -0.4921  0.1120  1.4741
   23MOL   H47914603   7.388   6.036   6.108  0.3258 -0.2248 -0.0100
   23MOL   H48014604   7.539   5.959   6.141  0.7453  0.3852  2.4484
   23MOL   H48114605   7.631   6.115   5.963  1.5902 -2.6980  3.8201
   23MOL   C48214606   7.514   5.983   5.867  0.0861  0.4837  0.1566
   23MOL   O48314607   7.433   5.892   5.879  0.2318  0.4204 -0.2378
   23MOL   C48414608   7.576   5.993   5.729  0.1323  1.2686  0.2846
   23MOL   C48514609   7.477   5.971   5.614 -0.3627 -0.0568  0.0019
   23MOL   C48614610   7.367   6.076   5.580  0.0382  0.0376 -1.0134
   23MOL   C48714611   7.250   6.019   5.496  0.0612 -0.0279 -0.2467
   23MOL   C48814612   7.146   6.129   5.474 -0.6091  0.5819 -0.1333
   23MOL   O48914613   7.067   6.159   5.559  0.0059  1.2829 -0.1606
   23MOL   N49014614   7.149   6.198   5.360  0.3074  0.6934  0.2672
   23MOL   C49114615   7.069   6.310   5.314 -0.7014  0.2457  0.0925
   23MOL   C49214616   7.157   6.433   5.287 -0.7267  0.2142  0.1731
   23MOL   C49314617   7.084   6.557   5.232 -0.3050 -0.0825 -0.6030
   23MOL   C49414618   7.180   6.655   5.170  0.5043  0.2300 -0.2234
   23MOL   N49514619   7.102   6.756   5.105 -0.1562 -0.3035 -0.0530
   23MOL   H49614620   7.632   6.086   5.714  1.8698  0.0724 -0.9173
   23MOL   H49714621   7.649   5.913   5.715  1.3029  1.9815  2.1041
   23MOL   H49814622   7.521   5.953   5.516 -0.9691 -3.4441  0.2980
   23MOL   H49914623   7.432   5.873   5.630  0.9977 -0.5931  0.6052
   23MOL   H50014624   7.405   6.171   5.541  3.0241 -1.2398 -1.3246
   23MOL   H50114625   7.321   6.116   5.671  1.1115  1.5279 -1.1168
   23MOL   H50214626   7.202   5.939   5.552 -0.6054  1.2233  0.9947
   23MOL   H50314627   7.295   5.972   5.409 -2.2676  0.4049 -1.7080
   23MOL   H50414628   7.216   6.166   5.291 -1.8266 -1.8596 -0.7316
   23MOL   H50514629   6.986   6.350   5.371 -1.0018 -0.5802  0.2378
   23MOL   H50614630   7.021   6.278   5.221  1.2700  1.5825 -1.4236
   23MOL   H50714631   7.212   6.458   5.377  0.8561 -0.0833 -0.6850
   23MOL   H50814632   7.239   6.412   5.218  0.7201  0.2681  1.8502
   23MOL   H50914633   7.033   6.609   5.313 -1.0237 -0.4867 -0.7883
   23MOL   H51014634   7.009   6.518   5.163 -1.3153 -0.5096  0.7058
   23MOL   H51114635   7.240   6.599   5.098  1.8541 -0.6517  1.5585
   23MOL   H51214636   7.247   6.705   5.240  1.0082  0.2266 -0.7021
   23MOL   H51314637   7.089   6.834   5.168  1.7712 -0.9272  1.1606
   23MOL   C51414638   7.036   6.747   4.984  0.3388  0.1419 -0.4890
   23MOL   O51514639   7.056   6.651   4.908  0.1278 -0.1250  0.1754
   23MOL   C51614640   6.937   6.857   4.961 -0.2785 -0.3451  0.1271
   23MOL   C51714641   6.796   6.806   4.942  0.1154 -0.0467 -0.4450
   23MOL   C51814642   6.732   6.717   5.050 -0.1410  0.4808  0.0377
   23MOL   C51914643   6.761   6.571   5.024 -0.0273 -0.3317  0.6031
   23MOL   C52014644   6.651   6.506   4.938 -0.1479  0.6047  1.3715
   23MOL   O52114645   6.540   6.562   4.922 -0.5515  0.5367  0.3897
   23MOL   N52214646   6.680   6.392   4.874 -0.0092 -0.4271  0.2005
   23MOL   C52314647   6.587   6.337   4.780 -0.4591  0.0334  0.5156
   23MOL   C52414648   6.586   6.402   4.647  0.5458 -0.9806  0.3595
   23MOL   C52514649   6.722   6.400   4.575  0.4061 -1.1999  0.2569
   23MOL   C52614650   6.713   6.489   4.448  0.6459  0.2112  0.2432
   23MOL   N52714651   6.834   6.484   4.363 -0.2505 -0.3879 -0.9176
   23MOL   H52814652   6.956   6.919   5.049 -1.3018 -1.1153  0.9079
   23MOL   H52914653   6.961   6.916   4.873 -2.7922  1.4415  0.5916
   23MOL   H53014654   6.729   6.892   4.940 -0.6820 -0.5757  1.8670
   23MOL   H53114655   6.797   6.747   4.851 -2.6225  0.4526 -0.8434
   23MOL   H53214656   6.626   6.743   5.053 -0.5497 -0.8411 -2.0060
   23MOL   H53314657   6.775   6.744   5.147 -0.3446 -1.7858  0.7813
   23MOL   H53414658   6.756   6.517   5.118 -2.7826 -0.5518  0.3765
   23MOL   H53514659   6.857   6.552   4.975 -0.2797  0.6547 -0.2969
   23MOL   H53614660   6.761   6.343   4.909  1.0039  1.3543  0.4245
   23MOL   H53714661   6.486   6.334   4.821 -1.2811 -1.9828 -1.5201
   23MOL   H53814662   6.612   6.232   4.767 -0.1376  0.2272 -0.5026
   23MOL   H53914663   6.504   6.368   4.584 -0.2701 -0.5557  1.1896
   23MOL   H54014664   6.553   6.505   4.661 -1.7883 -1.8090  1.2288
   23MOL   H54114665   6.752   6.299   4.547 -0.2283 -1.6588  1.1928
   23MOL   H54214666   6.798   6.427   4.648  0.2216 -1.3583  0.5083
   23MOL   H54314667   6.676   6.589   4.471 -0.9771 -0.7258  1.7730
   23MOL   H54414668   6.634   6.456   4.381 -2.4043 -0.6834  4.1346
   23MOL   H54514669   6.892   6.401   4.368  0.4686  0.1581 -0.0032
   23MOL   C54614670   6.843   6.564   4.253  0.0798 -0.2971 -0.7486
   23MOL   O54714671   6.774   6.665   4.247 -0.4853 -0.2432  0.6711
   23MOL   C54814672   6.955   6.534   4.155  0.6185  0.0642 -0.4200
   23MOL   C54914673   6.947   6.604   4.023 -0.0994  0.0373  0.5434
   23MOL   C55014674   6.838   6.546   3.930  0.5089  0.2851  0.1389
   23MOL   C55114675   6.856   6.628   3.804  0.6049  0.2158 -0.2317
   23MOL   C55214676   6.946   6.566   3.700  0.2518  0.4081 -0.2025
   23MOL   O55314677   6.923   6.451   3.661 -0.3894  0.4847 -0.3785
   23MOL   N55414678   7.042   6.635   3.644  0.0637 -0.1345 -0.1991
   23MOL   C55514679   7.132   6.579   3.541  0.1983  0.0419  0.2547
   23MOL   C55614680   7.265   6.549   3.618 -0.6636  0.0063 -0.0818
   23MOL   C55714681   7.395   6.538   3.525  0.0644 -0.2267 -0.1604
   23MOL   C55814682   7.528   6.525   3.603 -0.6033 -0.1136  0.1028
   23MOL   N55914683   7.634   6.464   3.526  0.1867  0.1870  0.4039
   23MOL   H56014684   7.050   6.558   4.203  0.1627 -1.1452  1.1521
   23MOL   H56114685   6.949   6.428   4.132  2.3692  0.2012 -1.6070
   23MOL   H56214686   6.931   6.712   4.033  0.7483  0.1790  0.4212
   23MOL   H56314687   7.040   6.589   3.970 -0.4623  0.5058 -0.2271
   23MOL   H56414688   6.741   6.562   3.975  0.5062 -1.1727  0.6685
   23MOL   H56514689   6.845   6.438   3.912  0.2776  0.3842 -0.5726
   23MOL   H56614690   6.889   6.728   3.832  0.3129  0.6237 -1.3352
   23MOL   H56714691   6.760   6.640   3.754 -0.2387 -1.1968  0.9824
   23MOL   H56814692   7.042   6.731   3.676 -3.7998  0.4984 -1.7643
   23MOL   H56914693   7.148   6.662   3.472 -0.2343  0.7671  1.0254
   23MOL   H57014694   7.104   6.488   3.487  2.5671  0.4557 -1.7770
   23MOL   H57114695   7.285   6.635   3.683  2.3460  1.2900 -2.5708
   23MOL   H57214696   7.249   6.462   3.682 -0.5405 -0.3318 -0.5144
   23MOL   H57314697   7.388   6.626   3.460 -1.9773  0.6012  1.1225
   23MOL   H57414698   7.379   6.441   3.478 -2.5283 -0.8217  1.8351
   23MOL   H57514699   7.510   6.466   3.692 -0.9450 -1.0177 -0.5553
   23MOL   H57614700   7.562   6.626   3.627 -0.6581 -0.1324  0.2538
   23MOL   H57714701   7.612   6.447   3.429  0.3903  1.0796  0.1919
   23MOL   C57814702   0.052   6.444   3.583 -0.5411  0.4111  0.8667
   23MOL   O57914703   0.081   6.471   3.701 -0.7298  0.2388  0.0554
   23MOL   C58014704   0.154   6.388   3.489  0.3872 -0.3103 -0.5329
   23MOL   C58114705   0.276   6.478   3.498  0.3213  0.0784  0.3583
   23MOL   C58214706   0.403   6.423   3.426  0.1804  0.1755  0.1507
   23MOL   C58314707   0.527   6.511   3.458 -0.4389  1.0067  0.1073
   23MOL   C58414708   0.589   6.481   3.595  0.0440 -0.5562 -0.8321
   23MOL   O58514709   0.615   6.364   3.628  0.5886  0.5941 -0.2931
   23MOL   N58614710   0.585   6.586   3.679 -0.4232 -0.2250  0.2598
   23MOL   C58714711   0.660   6.588   3.806 -0.0764 -0.1477 -0.1616
   23MOL   C58814712   0.617   6.477   3.906  0.4475 -0.1102  0.7321
   23MOL   C58914713   0.668   6.505   4.047  0.2813  0.0283  0.4397
   23MOL   C59014714   0.612   6.407   4.155  0.0724  0.7815  0.2201
   23MOL   N59114715   0.672   6.277   4.140  0.0191  0.7015 -0.0675
   23MOL   H59214716   0.178   6.294   3.537  0.5077  0.0165  0.0586
   23MOL   H59314717   0.123   6.376   3.385  1.7955 -1.1308 -0.8584
   23MOL   H59414718   0.250   6.576   3.456  1.0368 -0.8591 -2.4122
   23MOL   H59514719   0.311   6.489   3.600 -1.5634  0.5943  0.9664
   23MOL   H59614720   0.380   6.422   3.319 -0.8993  1.0436  0.3646
   23MOL   H59714721   0.420   6.317   3.443  1.3468  0.4605  0.8285
   23MOL   H59814722   0.508   6.618   3.463 -0.5036  0.9675  0.7312
   23MOL   H59914723   0.601   6.494   3.380 -0.0252 -3.0598  1.2905
   23MOL   H60014724   0.540   6.671   3.647 -2.1864 -0.6835  1.4699
   23MOL   H60114725   0.631   6.689   3.832  0.2809  0.0009 -0.3283
   23MOL   H60214726   0.768   6.588   3.787 -0.0290  1.1522  0.1030
   23MOL   H60314727   0.509   6.491   3.911 -0.1676 -4.3921  2.2541
   23MOL   H60414728   0.640   6.373   3.883  0.9286 -0.2403  1.7448
   23MOL   H60514729   0.634   6.607   4.068  0.7200 -0.0795  1.7537
   23MOL   H60614730   0.777   6.505   4.039  0.3656 -1.1618  1.4104
   23MOL   H60714731   0.506   6.404   4.130 -0.1003 -0.4161  1.0729
   23MOL   H60814732   0.616   6.450   4.255  0.7449  0.1582  0.4592
   23MOL   H60914733   0.766   6.270   4.176  0.2181 -0.1537 -0.7207
   23MOL   C61014734   0.609   6.168   4.102 -0.4667  0.2468  0.1607
   23MOL   O61114735   0.499   6.158   4.052 -0.2797 -0.2799 -0.0388
   23MOL   C61214736   0.688   6.044   4.124 -0.1316 -0.7412  0.6336
   23MOL   C61314737   0.607   5.939   4.202  0.1358  0.3651  0.4791
   23MOL   C61414738   0.617   5.944   4.358  0.3918 -0.1833 -0.0355
   23MOL   C61514739   0.515   5.856   4.440  0.0784 -0.1397  0.6443
   23MOL   C61614740   0.582   5.723   4.486 -0.0608 -0.1643  0.0287
   23MOL   O61714741   0.678   5.717   4.564 -0.3236  0.0295 -0.4066
   23MOL   N61814742   0.537   5.606   4.429 -0.2004  0.4254  0.1298
   23MOL   C61914743   0.605   5.477   4.416 -0.6186 -0.6414  0.0062
   23MOL   C62014744   0.535   5.366   4.504 -0.3481 -0.4781  0.9822
   23MOL   C62114745   0.558   5.382   4.649 -0.6466 -0.4622 -0.1943
   23MOL   C62214746   0.715   5.373   4.685 -0.7223  0.8135 -0.2930
   23MOL   N62314747   0.729   5.351   4.830 -0.9033 -0.3920  0.1051
   23MOL   H62414748   0.698   6.010   4.021  0.7486 -0.7237  0.7081
   23MOL   H62514749   0.786   6.043   4.172  0.8839 -0.1653 -1.3636
   23MOL   H62614750   0.502   5.944   4.173 -0.5826 -0.6452  2.8234
   23MOL   H62714751   0.640   5.838   4.176 -2.2039 -0.4742  0.6114
   23MOL   H62814752   0.584   6.044   4.385  0.0815  0.1874 -1.7069
   23MOL   H62914753   0.721   5.931   4.385  0.4507 -1.1388 -0.6894
   23MOL   H63014754   0.416   5.837   4.400  1.2331 -2.2714 -1.2713
   23MOL   H63114755   0.496   5.904   4.537 -1.4649  0.6617 -0.0379
   23MOL   H63214756   0.465   5.612   4.358 -0.0621  1.0272  0.0335
   23MOL   H63314757   0.708   5.497   4.445 -0.8385  0.9583 -0.2603
   23MOL   H63414758   0.604   5.450   4.310 -0.3389  1.0883 -0.4499
   23MOL   H63514759   0.429   5.362   4.478  0.4209 -0.1500 -2.5324
   23MOL   H63614760   0.582   5.270   4.480  2.7189  0.4878  2.9285
   23MOL   H63714761   0.491   5.319   4.707 -0.0910 -0.4650  0.4447
   23MOL   H63814762   0.531   5.485   4.673 -3.3409 -1.6701  2.2130
   23MOL   H63914763   0.765   5.466   4.659 -2.1324  1.7881  0.3955
   23MOL   H64014764   0.757   5.285   4.637 -0.3091  1.1243 -0.5059
   23MOL   H64114765   0.683   5.425   4.881  2.0824  1.0291  0.8051
   23MOL   H64214766   0.828   5.362   4.847 -0.9277 -0.0109  0.0007
   24MOL     C114767   1.367   1.230   6.160  0.2344 -0.6044  0.0567
   24MOL     O214768   1.433   1.155   6.231 -0.7797 -0.4569 -0.1711
   24MOL     C314769   1.356   1.374   6.202  0.7091 -0.2297  0.2149
   24MOL     C414770   1.492   1.433   6.232 -0.6443  0.1804 -0.6320
   24MOL     C514771   1.478   1.573   6.292  0.2421  0.3739  0.0653
   24MOL     C614772   1.616   1.647   6.269  0.2927 -0.0411 -0.2828
   24MOL     C714773   1.732   1.597   6.351 -0.0351 -0.0650 -0.1688
   24MOL     O814774   1.716   1.580   6.473 -0.4119  0.1238  0.1601
   24MOL     N914775   1.854   1.578   6.292 -0.4122 -0.2248 -0.5071
   24MOL    C1014776   1.981   1.549   6.344  0.3416  0.0018 -0.6756
   24MOL    C1114777   1.981   1.407   6.410  0.0498 -0.2160  0.2406
   24MOL    C1214778   2.114   1.351   6.463 -0.0958  0.3968 -1.4546
   24MOL    C1314779   2.096   1.202   6.495 -0.1131  0.7390 -0.0318
   24MOL    N1414780   2.010   1.170   6.613  0.0210 -0.0918 -0.0770
   24MOL    H1514781   1.311   1.424   6.116  1.1906 -2.6992 -1.5394
   24MOL    H1614782   1.288   1.380   6.286 -2.5659 -0.3139 -2.3276
   24MOL    H1714783   1.553   1.376   6.302  0.0139 -0.0139 -1.3472
   24MOL    H1814784   1.545   1.430   6.136 -1.1325  2.0163 -0.9755
   24MOL    H1914785   1.431   1.571   6.390 -2.7791  0.3559 -1.3394
   24MOL    H2014786   1.401   1.630   6.240  0.9674  2.3936  1.1658
   24MOL    H2114787   1.597   1.742   6.317 -0.6058 -0.2744 -0.1680
   24MOL    H2214788   1.633   1.667   6.163  0.6778 -0.7388 -0.3616
   24MOL    H2314789   1.847   1.573   6.191  1.8841  0.6047 -0.7364
   24MOL    H2414790   2.002   1.627   6.417  0.8414  0.9231 -1.7877
   24MOL    H2514791   2.053   1.564   6.263  0.3893 -0.0231 -0.6378
   24MOL    H2614792   1.907   1.409   6.490  0.3674  1.0072  0.5239
   24MOL    H2714793   1.936   1.339   6.338 -0.9673 -0.4377  1.0832
   24MOL    H2814794   2.157   1.398   6.551  0.5545 -1.5742 -0.7057
   24MOL    H2914795   2.196   1.360   6.391  0.7373  1.0295 -0.4373
   24MOL    H3014796   2.195   1.161   6.519 -0.0681  0.9248  0.1014
   24MOL    H3114797   2.072   1.141   6.409 -2.0885  0.3919  0.7424
   24MOL    H3214798   1.928   1.116   6.589 -0.2056 -0.4166  1.4064
   24MOL    H3314799   1.299   1.198   6.082  2.0150  1.2299 -2.3386
   24MOL    C3414800   2.070   1.159   6.738  0.6006 -0.0472 -0.0643
   24MOL    O3514801   2.186   1.203   6.759  0.4332 -0.4572  0.2831
   24MOL    C3614802   1.973   1.094   6.844  0.1603 -0.4118  0.4448
   24MOL    C3714803   2.003   1.132   6.990  0.3929 -0.7668 -0.0313
   24MOL    C3814804   2.128   1.058   7.046 -0.3226  0.0890 -0.2737
   24MOL    C3914805   2.150   1.086   7.191  0.4985 -0.6244  0.2399
   24MOL    C4014806   2.274   1.023   7.252  1.1251  0.3364 -0.0611
   24MOL    O4114807   2.381   1.040   7.200 -0.7830 -0.5420 -0.6920
   24MOL    N4214808   2.250   0.964   7.368  0.1604 -0.3096 -0.0245
   24MOL    C4314809   2.343   0.906   7.457  0.6339 -0.2635  0.3911
   24MOL    C4414810   2.412   1.005   7.551  0.3293  0.3527 -0.7520
   24MOL    C4514811   2.310   1.098   7.624  0.2211  0.2130 -0.6091
   24MOL    C4614812   2.372   1.174   0.041  1.0858 -0.5562  0.2194
   24MOL    N4714813   2.410   1.084   0.147  0.8403  0.1227 -0.7587
   24MOL    H4814814   1.875   1.132   6.816  0.3127 -1.3865 -1.4579
   24MOL    H4914815   1.981   0.986   6.833 -0.5494 -0.3619 -0.6730
   24MOL    H5014816   2.023   1.239   6.985 -2.8079 -0.1645 -0.7803
   24MOL    H5114817   1.924   1.121   7.065 -0.9388  0.9962 -1.1518
   24MOL    H5214818   2.212   1.090   6.984 -0.2564  0.3810 -0.0296
   24MOL    H5314819   2.118   0.950   7.035  4.9543 -0.4465 -1.2470
   24MOL    H5414820   2.062   1.042   7.240  0.8172 -2.8484 -1.1086
   24MOL    H5514821   2.139   1.193   7.207  0.2778 -0.9124  2.2190
   24MOL    H5614822   2.156   0.938   7.395  0.1695 -0.0914  0.2232
   24MOL    H5714823   2.412   0.847   7.396  1.0699 -0.2688  0.8781
   24MOL    H5814824   2.295   0.831   7.520 -0.4067  1.5041  1.7536
   24MOL    H5914825   2.480   0.949   7.616 -0.1054 -1.6841 -2.0084
   24MOL    H6014826   2.480   1.075   7.501  0.9514  0.9832  0.9567
   24MOL    H6114827   2.239   1.025   7.663  1.6391  0.9940  3.6186
   24MOL    H6214828   2.258   1.163   7.554 -0.2195 -0.0317 -0.5139
   24MOL    H6314829   2.300   1.248   0.078  1.6779 -0.7191  1.7261
   24MOL    H6414830   2.464   1.217   0.000 -0.0196 -0.9923 -2.8996
   24MOL    H6514831   2.431   0.987   0.127 -0.3794 -1.1617  3.7401
   24MOL    C6614832   2.432   1.125   0.275  0.0102  0.5414  0.0140
   24MOL    O6714833   2.423   1.244   0.307  0.5918 -0.1806 -0.0325
   24MOL    C6814834   2.456   1.015   0.379 -0.2209 -0.0162  0.2755
   24MOL    C6914835   2.322   0.993   0.452 -0.3252  0.9072 -0.3478
   24MOL    C7014836   2.331   0.890   0.563 -0.3443 -0.1437 -0.3060
   24MOL    C7114837   2.206   0.839   0.630  0.1279  0.8126 -0.0955
   24MOL    C7214838   2.114   0.948   0.680  0.0735 -0.5124  0.1245
   24MOL    O7314839   2.138   1.011   0.786  0.4584  0.2888  0.0140
   24MOL    N7414840   2.008   0.959   0.603 -0.0088  0.0355 -0.1456
   24MOL    C7514841   1.891   1.040   0.629 -0.6522  0.0438 -0.6313
   24MOL    C7614842   1.766   0.944   0.633 -0.4807 -1.5998 -0.5954
   24MOL    C7714843   1.634   1.026   0.665 -0.2974  0.1134  0.2238
   24MOL    C7814844   1.512   0.943   0.637 -0.1327 -0.4912 -0.5429
   24MOL    N7914845   1.397   1.028   0.627 -0.0873  0.4596  0.0561
   24MOL    H8014846   2.491   0.926   0.327 -0.0765 -1.0437  2.1121
   24MOL    H8114847   2.537   1.043   0.447  0.0626  1.6737 -0.7299
   24MOL    H8214848   2.278   1.083   0.493 -1.8583 -0.0867  0.2230
   24MOL    H8314849   2.255   0.937   0.388  0.2394 -0.5919  0.3374
   24MOL    H8414850   2.401   0.929   0.637  0.7530 -1.6068 -0.5329
   24MOL    H8514851   2.379   0.798   0.529  1.8923  0.2328  1.6390
   24MOL    H8614852   2.243   0.777   0.711  1.1282  0.8055 -0.5544
   24MOL    H8714853   2.151   0.776   0.560  1.3349 -0.3490 -0.0275
   24MOL    H8814854   2.000   0.900   0.521 -1.3910 -1.4422  1.0407
   24MOL    H8914855   1.880   1.110   0.546 -2.5306 -0.1852 -0.6068
   24MOL    H9014856   1.906   1.097   0.721  1.6713  0.0420 -0.9816
   24MOL    H9114857   1.752   0.914   0.529  1.1157 -1.3877 -0.8894
   24MOL    H9214858   1.775   0.853   0.692 -0.1534 -2.8604 -2.5095
   24MOL    H9314859   1.638   1.117   0.605 -0.7991  0.4242  0.6570
   24MOL    H9414860   1.624   1.057   0.769 -1.2870 -0.1881  0.2178
   24MOL    H9514861   1.519   0.866   0.713 -0.1022  0.4813  0.4584
   24MOL    H9614862   1.518   0.894   0.540 -1.1148 -2.0578  0.1678
   24MOL    H9714863   1.410   1.111   0.570 -0.9080 -0.2457 -1.1971
   24MOL    C9814864   1.279   0.997   0.672  0.4867  0.1567 -0.5304
   24MOL    O9914865   1.258   0.891   0.731  0.0176 -0.7005  0.0826
   24MOL   C10014866   1.165   1.097   0.641 -0.3312  0.1555 -0.2036
   24MOL   C10114867   1.147   1.214   0.743  0.0536  0.1567  0.7491
   24MOL   C10214868   1.249   1.329   0.733  0.5382 -0.2241  0.6404
   24MOL   C10314869   1.226   1.428   0.850 -0.4606  0.0159 -0.8930
   24MOL   C10414870   1.297   1.383   0.978 -0.1267  0.6226 -0.1688
   24MOL   O10514871   1.276   1.440   1.081  0.8576 -0.1552 -0.4801
   24MOL   N10614872   1.385   1.284   0.965 -0.2781 -0.3825 -0.4124
   24MOL   C10714873   1.470   1.220   1.066 -0.3967  0.3939 -0.7482
   24MOL   C10814874   1.448   1.065   1.070  0.6456  0.6147  0.4715
   24MOL   C10914875   1.301   1.027   1.085 -0.2537  0.3361  0.9083
   24MOL   C11014876   1.281   0.882   1.131  0.5347 -0.1104 -0.8562
   24MOL   N11114877   1.313   0.792   1.025  0.5448 -0.3715  0.3016
   24MOL   H11214878   1.176   1.128   0.538  1.2333  0.2801 -0.0055
   24MOL   H11314879   1.067   1.049   0.635 -1.3132  2.0289  0.5293
   24MOL   H11414880   1.046   1.247   0.722 -0.6567 -1.4808  1.4310
   24MOL   H11514881   1.140   1.173   0.844 -0.1092 -1.1947  0.2128
   24MOL   H11614882   1.232   1.386   0.642 -0.8771  2.1898  2.3664
   24MOL   H11714883   1.349   1.285   0.724 -0.3990 -2.1675 -0.5672
   24MOL   H11814884   1.121   1.445   0.873  0.2013  1.4493  1.2010
   24MOL   H11914885   1.271   1.525   0.830 -0.7541  0.5482  0.9160
   24MOL   H12014886   1.412   1.256   0.872  1.8621 -1.8752  0.6112
   24MOL   H12114887   1.437   1.263   1.161 -1.3456  2.0887 -1.8082
   24MOL   H12214888   1.572   1.252   1.049  0.5296 -1.2744  1.4122
   24MOL   H12314889   1.486   1.010   0.984  1.2907  1.0983  0.4499
   24MOL   H12414890   1.510   1.036   1.155 -0.6743 -0.0531  1.2217
   24MOL   H12514891   1.239   1.040   0.996 -2.8552 -0.9045  2.4700
   24MOL   H12614892   1.265   1.093   1.163 -0.0512  0.9276  0.5040
   24MOL   H12714893   1.175   0.859   1.140  0.1437  1.5463 -1.1476
   24MOL   H12814894   1.337   0.849   1.218 -0.9402 -0.9552 -0.2032
   24MOL   H12914895   1.274   0.817   0.935  1.1745  0.5903  0.2908
   24MOL   C13014896   1.370   0.677   1.043  0.3513  0.1277 -0.1799
   24MOL   O13114897   1.384   0.623   1.154  0.2715 -0.0012 -0.3785
   24MOL   C13214898   1.426   0.607   0.919  0.1966  0.6878 -0.3775
   24MOL   C13314899   1.580   0.584   0.918  0.8977  0.2585  0.3875
   24MOL   C13414900   1.635   0.441   0.928 -0.0181 -0.2184 -0.0258
   24MOL   C13514901   1.589   0.358   1.052 -0.7608  0.9696 -0.3184
   24MOL   C13614902   1.643   0.405   1.191  0.0894  0.3272  0.2353
   24MOL   O13714903   1.755   0.453   1.208  0.1523 -0.0427  0.4794
   24MOL   N13814904   1.561   0.386   1.296  0.3232 -0.0131 -0.3103
   24MOL   C13914905   1.580   0.412   1.440  0.1154 -0.0308 -0.7750
   24MOL   C14014906   1.457   0.490   1.487  0.6801 -0.1933  0.1195
   24MOL   C14114907   1.444   0.495   1.642 -0.0812 -0.5100  0.1344
   24MOL   C14214908   1.322   0.585   1.683  0.8978  0.3780 -0.4616
   24MOL   N14314909   1.304   0.593   1.824  1.0612 -0.4244  0.3914
   24MOL   H14414910   1.383   0.508   0.902 -1.0094  1.0260  0.6453
   24MOL   H14514911   1.388   0.665   0.835  1.2862  1.2212 -0.5125
   24MOL   H14614912   1.623   0.637   0.833  0.7422 -0.3753 -0.0898
   24MOL   H14714913   1.623   0.636   1.004  1.9225  1.9078 -1.0911
   24MOL   H14814914   1.743   0.455   0.928  0.1068 -1.0897 -1.4183
   24MOL   H14914915   1.612   0.389   0.835 -1.0586 -1.7358  1.0614
   24MOL   H15014916   1.595   0.251   1.036  1.1282  1.2624 -1.8032
   24MOL   H15114917   1.481   0.366   1.066 -0.9141 -0.8905 -0.3294
   24MOL   H15214918   1.476   0.334   1.278  0.3972  0.2970 -1.6172
   24MOL   H15314919   1.667   0.474   1.464  0.3755 -0.9365  0.7308
   24MOL   H15414920   1.589   0.311   1.481 -0.1975 -0.5027 -1.8684
   24MOL   H15514921   1.454   0.589   1.442 -1.7114 -0.9241 -1.4039
   24MOL   H15614922   1.362   0.449   1.454  0.8078 -0.0626 -0.4147
   24MOL   H15714923   1.538   0.528   1.687  0.7476  0.0380 -1.9487
   24MOL   H15814924   1.416   0.397   1.681 -0.5254 -1.1797 -1.8385
   24MOL   H15914925   1.233   0.538   1.641  0.0278  1.0997  0.5441
   24MOL   H16014926   1.325   0.684   1.638  2.1515  0.3845 -0.3884
   24MOL   H16114927   1.279   0.507   1.870 -0.8079 -0.7886 -1.2353
   24MOL   C16214928   1.310   0.702   1.895  0.2493  0.0347  0.2680
   24MOL   O16314929   1.349   0.808   1.848  0.5254 -0.3454 -0.1207
   24MOL   C16414930   1.271   0.691   2.042 -0.1021  0.1307  0.2024
   24MOL   C16514931   1.128   0.719   2.068  0.1407  0.5527 -0.2372
   24MOL   C16614932   1.098   0.721   2.212  0.1239 -0.3310 -0.5553
   24MOL   C16714933   0.951   0.729   2.253  0.3620  0.1366  0.2408
   24MOL   C16814934   0.891   0.869   2.237  0.3232 -0.3767  0.3121
   24MOL   O16914935   0.963   0.965   2.218  0.3050 -0.5049 -0.1498
   24MOL   N17014936   0.756   0.881   2.243  0.2118  0.2127 -0.1695
   24MOL   C17114937   0.678   0.998   2.222  0.4801 -0.1467 -0.7265
   24MOL   C17214938   0.679   1.099   2.341 -0.6252  0.0627  0.7151
   24MOL   C17314939   0.605   1.225   2.320 -0.0697 -0.3969 -0.3931
   24MOL   C17414940   0.635   1.332   2.429  0.2508 -0.6886  0.8587
   24MOL   N17514941   0.560   1.452   2.415 -0.6080 -0.5476  0.5167
   24MOL   H17614942   1.283   0.585   2.067  2.6331  0.1881 -0.6966
   24MOL   H17714943   1.344   0.735   2.109  2.4872  1.1766 -3.1710
   24MOL   H17814944   1.118   0.821   2.031 -0.7355 -0.5261 -3.1874
   24MOL   H17914945   1.058   0.649   2.022  1.7318 -0.2841 -1.4484
   24MOL   H18014946   1.164   0.802   2.245  2.3384 -0.3770 -4.6022
   24MOL   H18114947   1.139   0.628   2.252  2.4586  0.8178 -0.1757
   24MOL   H18214948   0.943   0.700   2.358 -0.9127 -0.9618 -0.1391
   24MOL   H18314949   0.883   0.668   2.194  1.4359 -1.9494  1.0976
   24MOL   H18414950   0.701   0.799   2.260 -0.1814  0.5200  0.0444
   24MOL   H18514951   0.575   0.965   2.203 -0.6980  1.2997  2.7705
   24MOL   H18614952   0.712   1.036   2.126  1.7621  0.2052 -0.1357
   24MOL   H18714953   0.645   1.047   2.431 -2.1881 -2.2310 -1.1451
   24MOL   H18814954   0.785   1.124   2.343 -0.3187 -1.2523  2.0065
   24MOL   H18914955   0.496   1.219   2.327  0.1611 -1.9286  2.5007
   24MOL   H19014956   0.634   1.261   2.221  0.2205 -0.2381 -0.2497
   24MOL   H19114957   0.741   1.357   2.424 -0.2576  1.2940 -1.0602
   24MOL   H19214958   0.619   1.298   2.531 -1.5685 -4.1588 -0.5002
   24MOL   H19314959   0.511   1.471   2.328 -0.2354  0.2492  0.4689
   24MOL   C19414960   0.551   1.555   2.506 -0.0252 -0.0455  0.3546
   24MOL   O19514961   0.624   1.563   2.607 -0.2609  0.8058  0.1568
   24MOL   C19614962   0.464   1.675   2.470 -0.3116  0.6157 -0.2105
   24MOL   C19714963   0.345   1.688   2.566  0.3467  0.8550 -0.7251
   24MOL   C19814964   0.243   1.795   2.512  0.2100  0.2247 -0.7845
   24MOL   C19914965   0.113   1.822   2.588 -0.6148 -0.1332 -0.3193
   24MOL   C20014966   0.120   1.914   2.714 -0.2010 -0.6471  0.4319
   24MOL   O20114967   0.210   1.907   2.794 -0.1509  0.1309 -0.0886
   24MOL   N20214968   0.016   1.995   2.734  0.4137 -0.4625  0.0189
   24MOL   C20314969   0.007   2.106   2.833  0.0876  0.5473  0.2095
   24MOL   C20414970   7.574   2.100   2.921  0.0388 -0.0744  0.8450
   24MOL   C20514971   7.563   2.222   3.023  0.1025 -0.7530  0.2072
   24MOL   C20614972   7.538   2.356   2.945 -0.0049  0.0355  0.1057
   24MOL   N20714973   7.543   2.474   3.022 -0.7817 -0.1074 -0.3035
   24MOL   H20814974   0.525   1.765   2.461 -0.1257  0.4024 -1.0686
   24MOL   H20914975   0.417   1.659   2.373 -0.2262 -2.1711  0.1665
   24MOL   H21014976   0.290   1.594   2.565  1.0205  0.4516  0.3367
   24MOL   H21114977   0.373   1.713   2.668 -0.9146 -1.5042  0.2245
   24MOL   H21214978   0.210   1.758   2.416  1.0332  0.5012 -1.1810
   24MOL   H21314979   0.298   1.881   2.473  1.9024 -0.3281  0.3140
   24MOL   H21414980   0.065   1.726   2.609 -1.1078  0.0616 -0.5536
   24MOL   H21514981   0.036   1.863   2.523 -0.3332  1.8941  0.5934
   24MOL   H21614982   7.654   2.002   2.655 -0.5367 -0.8471  0.7305
   24MOL   H21714983   0.002   2.189   2.763 -2.1715  0.1852 -0.1182
   24MOL   H21814984   0.093   2.107   2.899 -0.2052 -0.3047  0.6228
   24MOL   H21914985   7.485   2.089   2.860  0.8887  0.6942 -0.5779
   24MOL   H22014986   7.586   2.014   2.986  1.0579 -1.3526 -0.9592
   24MOL   H22114987   7.658   2.220   3.076  1.0268 -1.1618 -1.4611
   24MOL   H22214988   7.474   2.203   3.084 -0.0106 -0.5325  0.1144
   24MOL   H22314989   7.449   2.349   2.882  0.2337  2.2273 -0.5085
   24MOL   H22414990   7.620   2.381   2.878  0.5384 -1.7219  0.0673
   24MOL   H22514991   7.565   2.473   3.121 -0.0655  1.6319 -0.4227
   24MOL   C22614992   7.523   2.598   2.976 -0.6452  0.8460 -0.2730
   24MOL   O22714993   7.503   2.615   2.857  0.6534  0.3366  0.7022
   24MOL   C22814994   7.552   2.713   3.078  0.3172 -0.2720  0.1282
   24MOL   C22914995   7.465   2.832   3.051 -0.5088  0.0329  0.2829
   24MOL   C23014996   7.519   2.912   2.938  0.5034  0.0207 -0.5257
   24MOL   C23114997   7.466   3.061   2.938 -0.1936  0.9972  0.4878
   24MOL   C23214998   7.543   3.146   2.835  0.2935  0.3227 -0.0932
   24MOL   O23314999   7.611   3.094   2.746  0.4836  0.2122 -0.5684
   24MOL   N23415000   7.524   3.278   2.844  0.5184 -0.3599  0.5742
   24MOL   C23515001   7.579   3.367   2.743  0.1362  0.4830 -0.2791
   24MOL   C23615002   7.569   3.513   2.788 -0.0304 -0.2096  0.3793
   24MOL   C23715003   7.640   3.608   2.694 -0.0237  0.5621  0.3417
   24MOL   C23815004   0.096   3.609   2.704 -0.6282  0.2538  0.7458
   24MOL   N23915005   0.153   3.509   2.620 -0.7531  0.2564 -0.2920
   24MOL   H24015006   7.525   2.683   3.179  2.5010 -0.4162  0.6886
   24MOL   H24115007   7.657   2.737   3.093  0.2807 -0.5150  0.7676
   24MOL   H24215008   7.361   2.807   3.028 -0.2239  1.2506 -2.5869
   24MOL   H24315009   7.469   2.903   3.133 -1.1644  1.5083 -0.9362
   24MOL   H24415010   7.505   2.857   2.845  0.7424 -1.2200  0.1583
   24MOL   H24515011   7.628   2.919   2.943  0.6030 -1.5547 -0.2714
   24MOL   H24615012   7.487   3.101   3.037 -2.8348  0.4610  1.3087
   24MOL   H24715013   7.360   3.063   2.911  0.0847  0.1531 -0.7133
   24MOL   H24815014   7.456   3.312   2.911 -0.3262  0.1366 -0.5296
   24MOL   H24915015   7.517   3.348   2.655 -0.2470  0.3680  0.0131
   24MOL   H25015016   7.677   3.325   2.720 -0.3654  0.6832 -2.9587
   24MOL   H25115017   7.466   3.547   2.797  0.0164 -0.3661  1.6228
   24MOL   H25215018   7.607   3.526   2.889  1.1684  3.2409 -0.4331
   24MOL   H25315019   7.600   3.709   2.701  1.8103  1.2303  1.6317
   24MOL   H25415020   7.605   3.586   2.593  0.6122  1.1699 -0.0179
   24MOL   H25515021   0.118   3.591   2.809  1.1683 -0.4007  0.2827
   24MOL   H25615022   0.133   3.706   2.671 -3.6707  1.2103 -0.0345
   24MOL   H25715023   0.089   3.471   2.551  2.1356 -2.7369 -1.4612
   24MOL   C25815024   0.279   3.466   2.621  0.3198 -0.3670 -0.1744
   24MOL   O25915025   0.353   3.543   2.678 -0.6563  0.0300  0.2784
   24MOL   C26015026   0.315   3.344   2.534  0.2628  0.4290  0.1601
   24MOL   C26115027   0.463   3.340   2.503 -0.2655  0.0715 -0.2216
   24MOL   C26215028   0.501   3.240   2.399  0.4437 -0.4557 -0.4945
   24MOL   C26315029   0.464   3.096   2.445 -0.0142 -0.4243 -0.7810
   24MOL   C26415030   0.496   2.985   2.347  0.1448 -0.9269  0.3488
   24MOL   O26515031   0.525   3.005   2.226  0.0400 -0.2242 -0.3213
   24MOL   N26615032   0.483   2.861   2.400 -0.1784  0.4825 -0.7898
   24MOL   C26715033   0.511   2.735   2.337 -0.3836 -0.0849 -0.9051
   24MOL   C26815034   0.488   2.611   2.419  0.5590 -0.4220  0.7342
   24MOL   C26915035   0.577   2.599   2.546 -0.0451  0.2248  0.0756
   24MOL   C27015036   0.568   2.464   2.624  0.5790 -0.4305  0.3677
   24MOL   N27115037   0.443   2.435   2.693 -0.0529 -0.0906 -0.4133
   24MOL   H27215038   0.288   3.248   2.579 -1.2058  0.4706 -0.6129
   24MOL   H27315039   0.267   3.365   2.438  0.7654  1.2688  0.0931
   24MOL   H27415040   0.503   3.440   2.484  0.9509 -0.4698 -0.6054
   24MOL   H27515041   0.510   3.327   2.601 -1.7066 -0.7794  0.3661
   24MOL   H27615042   0.606   3.243   2.371  0.8456 -0.0267  1.0123
   24MOL   H27715043   0.451   3.264   2.305 -2.7408  0.1498  1.2775
   24MOL   H27815044   0.358   3.077   2.464  0.2098 -2.8543 -1.7178
   24MOL   H27915045   0.509   3.065   2.540 -0.4038 -0.0905 -0.4841
   24MOL   H28015046   0.457   2.852   2.497 -1.8152 -2.1184 -1.4235
   24MOL   H28115047   0.615   2.732   2.303 -1.1331  0.4910 -3.3817
   24MOL   H28215048   0.447   2.720   2.250 -0.0434  1.3225 -1.4119
   24MOL   H28315049   0.382   2.597   2.439  0.0872  0.0379 -1.3409
   24MOL   H28415050   0.506   2.527   2.351 -1.0317 -0.4162  0.2964
   24MOL   H28515051   0.546   2.672   2.621  1.0371 -0.8589  1.6031
   24MOL   H28615052   0.683   2.612   2.527  0.2210 -0.9476  0.6859
   24MOL   H28715053   0.643   2.448   2.701  2.0452  2.0684 -0.4691
   24MOL   H28815054   0.585   2.384   2.552  1.3864  1.5677 -1.7120
   24MOL   H28915055   0.370   2.423   2.625  1.1209  1.6859 -2.0133
   24MOL   C29015056   0.405   2.458   2.823  0.2604  0.4281  0.2186
   24MOL   O29115057   0.468   2.505   2.917  0.0856  0.1635 -0.3911
   24MOL   C29215058   0.249   2.440   2.855  0.5398  0.5703  0.4277
   24MOL   C29315059   0.230   2.388   2.997  0.6444  0.4256  0.4764
   24MOL   C29415060   0.188   2.489   3.095 -0.2085  0.3795  0.7636
   24MOL   C29515061   0.147   2.425   3.228  0.3743 -0.7546  0.0869
   24MOL   C29615062   0.045   2.510   3.313  0.3391  0.4830 -0.2364
   24MOL   O29715063   7.634   2.462   3.337  0.9356  0.1144  0.6796
   24MOL   N29815064   0.098   2.622   3.366  0.2568 -0.1190  0.3803
   24MOL   C29915065   0.029   2.717   3.443  0.1986 -0.0750 -0.1661
   24MOL   C30015066   0.066   2.690   3.597  0.1602  0.1971  0.6174
   24MOL   C30115067   7.661   2.732   3.688  0.9651 -0.0827  0.0295
   24MOL   C30215068   7.684   2.699   3.840 -0.0811  0.1280  0.0740
   24MOL   N30315069   7.578   2.745   3.926  0.0783  0.5372 -0.7816
   24MOL   H30415070   0.183   2.526   2.845 -0.3734 -0.2608 -0.8839
   24MOL   H30515071   0.212   2.361   2.789 -1.6752  1.8135  0.1241
   24MOL   H30615072   0.155   2.310   3.004 -0.6168  1.6142  0.3360
   24MOL   H30715073   0.323   2.353   3.043  1.7228  1.4530 -0.8553
   24MOL   H30815074   0.108   2.555   3.060 -2.4592 -2.0051  1.2634
   24MOL   H30915075   0.270   2.556   3.117  1.0695 -0.8335 -0.2200
   24MOL   H31015076   0.243   2.408   3.277  2.1195  2.0406 -2.1435
   24MOL   H31115077   0.100   2.328   3.215 -0.0041 -0.5410 -0.1689
   24MOL   H31215078   0.195   2.635   3.343  0.3305 -2.6908 -1.0370
   24MOL   H31315079   7.623   2.701   3.433  0.5521 -1.9181 -1.1989
   24MOL   H31415080   0.053   2.820   3.420  2.0895  0.0066  1.9618
   24MOL   H31515081   0.087   2.585   3.614  2.4745  0.4395 -0.5879
   24MOL   H31615082   0.163   2.732   3.625 -0.8156  3.2007 -0.2781
   24MOL   H31715083   7.564   2.692   3.657 -0.3705  1.3366  2.2642
   24MOL   H31815084   7.643   2.839   3.676 -0.4298 -0.2203  0.8191
   24MOL   H31915085   0.077   2.742   3.873 -1.5233  1.9317  1.8998
   24MOL   H32015086   7.692   2.590   3.848  2.3732  0.0906 -2.0009
   24MOL   H32115087   7.575   2.846   3.933 -1.1863  0.3848  1.6178
   24MOL   C32215088   7.509   2.681   4.025  0.3434  0.2081 -0.3463
   24MOL   O32315089   7.516   2.566   4.047 -0.2015  0.0413  0.7101
   24MOL   C32415090   7.416   2.772   4.111 -0.3006 -0.2712 -0.2806
   24MOL   C32515091   7.475   2.911   4.140  0.0170 -0.2293 -0.0467
   24MOL   C32615092   7.384   2.996   4.230 -0.6387  0.2745 -0.7074
   24MOL   C32715093   7.239   3.017   4.180  1.4614 -0.5116 -0.0636
   24MOL   C32815094   7.243   3.114   4.057  0.0317 -0.0164 -0.5562
   24MOL   O32915095   7.295   3.226   4.063 -0.6295 -0.1343  0.4735
   24MOL   N33015096   7.206   3.060   3.941 -0.3868 -0.2159  0.4061
   24MOL   C33115097   7.202   3.136   3.819  0.7396  0.0343 -0.3330
   24MOL   C33215098   7.336   3.139   3.743 -0.2701 -0.8040  0.7633
   24MOL   C33315099   7.380   2.997   3.698  0.1553 -0.3064 -0.1632
   24MOL   C33415100   7.457   3.003   3.568  0.0062 -1.0687 -0.2894
   24MOL   N33515101   7.596   3.066   3.574  0.1822  0.2697  0.6782
   24MOL   H33615102   7.319   2.771   4.061 -0.8210  0.3355  0.7130
   24MOL   H33715103   7.396   2.721   4.205  0.7498  1.1045  0.7079
   24MOL   H33815104   7.572   2.901   4.189 -0.9599 -1.2718  1.7455
   24MOL   H33915105   7.492   2.967   4.048 -0.5651  0.2366  0.1289
   24MOL   H34015106   7.442   3.084   4.258 -1.0817 -0.5746  3.0992
   24MOL   H34115107   7.373   2.939   4.322  1.5232 -1.1900 -1.3355
   24MOL   H34215108   7.182   3.062   4.262  1.8616 -0.4504  0.1838
   24MOL   H34315109   7.186   2.926   4.153 -2.3050  1.0431  1.7244
   24MOL   H34415110   7.154   2.974   3.949 -0.4255 -0.2811 -0.4392
   24MOL   H34515111   7.167   3.235   3.850 -0.6454 -1.1951  2.1342
   24MOL   H34615112   7.124   3.091   3.759  0.7490  1.8292 -1.7496
   24MOL   H34715113   7.328   3.205   3.656 -0.7847 -0.7761  0.8319
   24MOL   H34815114   7.416   3.184   3.802  1.7594 -1.6594 -1.2433
   24MOL   H34915115   7.295   2.933   3.674 -0.1593 -0.4943  1.3916
   24MOL   H35015116   7.440   2.956   3.779 -1.7168 -0.6813  1.0745
   24MOL   H35115117   7.387   3.047   3.497 -0.5331 -1.1765  0.1778
   24MOL   H35215118   7.475   2.904   3.526  1.1512 -1.5228  1.2202
   24MOL   H35315119   7.642   3.075   3.664 -0.9454 -0.7460  1.3785
   24MOL   C35415120   7.660   3.109   3.461  0.6453 -0.4524 -0.2078
   24MOL   O35515121   7.604   3.089   3.357  0.0621  0.3001 -0.0091
   24MOL   C35615122   0.089   3.186   3.472  0.0868  0.6102  0.2591
   24MOL   C35715123   0.217   3.122   3.413  0.1876  0.0891  0.1060
   24MOL   C35815124   0.283   3.008   3.493  0.4607 -0.5064  0.1174
   24MOL   C35915125   0.407   2.945   3.434  0.2885 -0.0874 -0.0605
   24MOL   C36015126   0.381   2.875   3.301 -0.0731  0.9532  0.0253
   24MOL   O36115127   0.336   2.765   3.312  0.3592  0.5110  0.4908
   24MOL   N36215128   0.430   2.921   3.185  0.3985 -0.3833 -0.6406
   24MOL   C36315129   0.376   2.875   3.058 -0.5121  0.1258  0.6854
   24MOL   C36415130   0.229   2.922   3.032  0.6002  0.4351 -0.6275
   24MOL   C36515131   0.218   3.067   2.986 -0.1276 -0.0758  0.3037
   24MOL   C36615132   0.261   3.101   2.841  0.1032 -0.3876 -0.3450
   24MOL   N36715133   0.171   3.031   2.755  0.5290  0.3191 -0.1466
   24MOL   H36815134   0.070   3.286   3.434  0.6261  0.4257 -0.5073
   24MOL   H36915135   0.103   3.214   3.577  1.1331  0.1736  0.2410
   24MOL   H37015136   0.179   3.097   3.314 -1.1322  4.0247 -0.4767
   24MOL   H37115137   0.286   3.205   3.401  0.6470 -0.5324 -1.8038
   24MOL   H37215138   0.215   2.923   3.492 -1.7496  1.1866 -3.6222
   24MOL   H37315139   0.299   3.039   3.597 -1.6765 -0.3546  0.4246
   24MOL   H37415140   0.445   2.874   3.507 -2.7595  1.2593  2.9735
   24MOL   H37515141   0.486   3.020   3.429 -0.1952  0.3540 -1.3358
   24MOL   H37615142   0.481   3.008   3.189 -0.2356 -0.0417  0.1148
   24MOL   H37715143   0.380   2.767   3.050 -0.5574  0.3638 -3.2409
   24MOL   H37815144   0.444   2.916   2.983  0.3602 -0.9988  0.8563
   24MOL   H37915145   0.166   2.856   2.972  0.8919 -0.6520  0.2581
   24MOL   H38015146   0.173   2.921   3.126  1.9639 -1.5049  0.2024
   24MOL   H38115147   0.286   3.125   3.048  0.4615 -0.4048 -0.0330
   24MOL   H38215148   0.123   3.117   3.005 -0.3636 -0.3786 -0.0769
   24MOL   H38315149   0.367   3.085   2.819  0.3338  3.2239 -2.1555
   24MOL   H38415150   0.243   3.207   2.825  2.5244  0.4917  2.3442
   24MOL   H38515151   0.076   3.058   2.736 -0.5586 -3.4793 -0.5557
   24MOL   C38615152   0.207   2.928   2.670  0.4440 -0.5832  0.0123
   24MOL   O38715153   0.324   2.892   2.665 -0.2869  1.0332 -0.1813
   24MOL   C38815154   0.103   2.865   2.570  0.5497  0.7431 -0.0024
   24MOL   C38915155   0.074   2.725   2.617 -0.3644 -0.1868  0.0479
   24MOL   C39015156   7.689   2.639   2.521  0.3452 -0.7306  0.1205
   24MOL   C39115157   7.693   2.491   2.549  0.0246  0.2492 -0.3812
   24MOL   C39215158   0.116   2.435   2.484 -0.2488  0.2911  0.1053
   24MOL   O39315159   0.223   2.436   2.546  0.0370  0.8668  0.9997
   24MOL   N39415160   0.102   2.386   2.364 -0.1322  0.0774 -0.9420
   24MOL   C39515161   0.207   2.311   2.298  0.7623  0.0916 -0.3259
   24MOL   C39615162   0.227   2.170   2.356  0.2651  0.5707 -0.1453
   24MOL   C39715163   0.325   2.098   2.265 -0.4296 -0.4279 -0.0414
   24MOL   C39815164   0.464   2.080   2.326 -0.0303  0.0175  0.2496
   24MOL   N39915165   0.544   1.981   2.265 -0.0174  0.3537  0.7194
   24MOL   H40015166   0.019   2.934   2.569  0.6670  0.9056  0.9834
   24MOL   H40115167   0.135   2.870   2.466  1.9749 -0.6673  0.3521
   24MOL   H40215168   0.169   2.673   2.628  0.1984  0.5400 -1.4117
   24MOL   H40315169   0.027   2.716   2.716 -2.5380 -0.5491 -0.9726
   24MOL   H40415170   0.013   2.658   2.417  0.6134  0.7389  0.4584
   24MOL   H40515171   7.590   2.682   2.537  0.3943 -0.7762  0.5671
   24MOL   H40615172   7.603   2.438   2.519  0.7119 -0.2154 -1.6920
   24MOL   H40715173   7.694   2.478   2.657  1.6854  1.7028 -0.1869
   24MOL   H40815174   0.006   2.387   2.333 -1.0762 -2.3243  1.6760
   24MOL   H40915175   0.299   2.366   2.317  0.7743  0.2817 -0.9359
   24MOL   H41015176   0.185   2.299   2.192  0.7876  0.6828 -0.4006
   24MOL   H41115177   0.261   2.168   2.460  0.6753  0.5127 -0.2772
   24MOL   H41215178   0.139   2.106   2.360  0.6205  0.0422 -0.6131
   24MOL   H41315179   0.335   2.137   2.164  4.8486 -1.6721 -0.1463
   24MOL   H41415180   0.286   1.998   2.246 -1.5113  0.0132 -0.1784
   24MOL   H41515181   0.445   2.051   2.430  0.1046  1.9613  0.8384
   24MOL   H41615182   0.520   2.173   2.319 -1.2595  0.7193 -0.3412
   24MOL   H41715183   0.583   1.912   2.327  3.1160  0.1159 -1.4243
   24MOL   C41815184   0.592   1.991   2.142 -0.8491  0.9253 -0.1436
   24MOL   O41915185   0.570   2.081   2.066  0.1414  0.8141  0.1490
   24MOL   C42015186   0.688   1.879   2.088 -0.6166 -0.1388  0.0631
   24MOL   C42115187   0.838   1.912   2.123 -0.3623  0.0522  0.3518
   24MOL   C42215188   0.899   1.869   2.263 -0.3582 -0.2872  0.2435
   24MOL   C42315189   1.044   1.903   2.297  0.0379  0.1464  0.0447
   24MOL   C42415190   1.150   1.817   2.233  0.6963  0.1679  0.5488
   24MOL   O42515191   1.111   1.713   2.181 -0.5025  0.0071  0.2353
   24MOL   N42615192   1.279   1.844   2.261 -0.2374  0.0948  0.2445
   24MOL   C42715193   1.344   1.973   2.267  0.9338  0.1348  0.0814
   24MOL   C42815194   1.327   2.038   2.129  0.1036  0.6634  0.0906
   24MOL   C42915195   1.386   2.180   2.110 -0.5464  0.3494  0.4194
   24MOL   C43015196   1.297   2.285   2.177  0.3375  0.7004 -0.5400
   24MOL   N43115197   1.347   2.417   2.146 -0.4921  0.7513 -0.6740
   24MOL   H43215198   0.650   1.787   2.132  0.2162 -0.0892  0.8946
   24MOL   H43315199   0.682   1.870   1.980 -0.1842  0.3803 -0.0088
   24MOL   H43415200   0.895   1.860   2.046 -3.3936 -0.3845 -1.7093
   24MOL   H43515201   0.850   2.019   2.105  0.5396 -0.2044 -0.6124
   24MOL   H43615202   0.876   1.763   2.275  0.9490 -0.5143  0.8060
   24MOL   H43715203   0.841   1.904   2.349  1.1210 -1.3370  1.6853
   24MOL   H43815204   1.059   1.889   2.404 -1.0618  1.7939  0.4196
   24MOL   H43915205   1.070   2.006   2.273 -0.3102 -0.1681 -1.7449
   24MOL   H44015206   1.340   1.765   2.247  1.7728  1.0387  2.9554
   24MOL   H44115207   1.448   1.964   2.297  1.0923  1.1408 -0.1295
   24MOL   H44215208   1.303   2.030   2.351  0.3273  1.9213 -1.3752
   24MOL   H44315209   1.374   1.966   2.061  0.2307  0.8286  0.0044
   24MOL   H44415210   1.223   2.044   2.098  0.0600 -0.4682 -0.0147
   24MOL   H44515211   1.384   2.204   2.004 -2.2415 -0.0823  0.3396
   24MOL   H44615212   1.492   2.182   2.139 -0.8641  1.8829  1.5481
   24MOL   H44715213   1.283   2.274   2.285 -1.8988  1.5606 -0.7093
   24MOL   H44815214   1.198   2.276   2.132 -0.2618 -0.3128  0.9230
   24MOL   H44915215   1.437   2.424   2.099 -0.1868 -0.3135 -0.2546
   24MOL   C45015216   1.317   2.528   2.222  0.5294 -0.0738 -0.1030
   24MOL   O45115217   1.236   2.518   2.312 -0.3855  0.3083 -0.6175
   24MOL   C45215218   1.380   2.659   2.193 -0.5571  0.0580 -0.0484
   24MOL   C45315219   1.461   2.720   2.313  0.2484 -0.7267 -0.7665
   24MOL   C45415220   1.487   2.873   2.298  0.4551  0.1082 -0.6988
   24MOL   C45515221   1.595   2.928   2.384 -0.4220  0.4712  0.2311
   24MOL   C45615222   1.574   2.905   2.536 -0.0799  0.3021  0.2547
   24MOL   O45715223   1.458   2.927   2.576  0.1398  0.1894  0.0892
   24MOL   N45815224   1.683   2.889   2.616  0.5447  0.3070  0.5593
   24MOL   C45915225   1.684   2.854   2.758 -0.0445 -0.8054  0.0270
   24MOL   C46015226   1.695   2.990   2.835 -0.0011 -0.6055  0.6839
   24MOL   C46115227   1.670   2.970   2.982  0.3411 -0.1202 -0.0783
   24MOL   C46215228   1.625   3.099   3.047  0.1813 -0.6752 -0.4941
   24MOL   N46315229   1.729   3.197   3.091  0.3535  0.1362  1.0484
   24MOL   H46415230   1.437   2.661   2.099 -1.6183  0.2446 -0.6967
   24MOL   H46515231   1.295   2.726   2.181  0.2363  1.0731 -0.1260
   24MOL   H46615232   1.401   2.699   2.401  0.3095  2.6061  0.1309
   24MOL   H46715233   1.548   2.655   2.321 -0.8065 -2.0070  0.4361
   24MOL   H46815234   1.402   2.941   2.294  2.4318  2.6618  0.0788
   24MOL   H46915235   1.527   2.883   2.197 -0.1931  1.0066 -0.8761
   24MOL   H47015236   1.606   3.034   2.364 -0.8460  0.3087 -0.8602
   24MOL   H47115237   1.690   2.879   2.360 -0.4493  1.6752 -2.4747
   24MOL   H47215238   1.776   2.883   2.575  0.1210 -0.4108 -0.3306
   24MOL   H47315239   1.775   2.798   2.779 -0.2103 -1.2598 -0.4585
   24MOL   H47415240   1.597   2.794   2.783 -0.1926  0.2819  2.2564
   24MOL   H47515241   1.796   3.032   2.826 -0.5455  0.7911  0.9871
   24MOL   H47615242   1.615   3.057   2.804 -1.3537 -2.9326 -0.9787
   24MOL   H47715243   1.755   2.927   3.033 -1.8056 -4.6181 -0.0157
   24MOL   H47815244   1.588   2.905   3.013  0.5719  0.5762  2.0429
   24MOL   H47915245   1.566   3.076   3.135  0.3170  1.9185  0.3090
   24MOL   H48015246   1.554   3.157   2.989 -0.4447  0.2903  1.2341
   24MOL   H48115247   1.760   3.194   3.187  2.9009 -1.2383  0.2258
   24MOL   C48215248   1.795   3.287   3.018 -0.3065  0.2616 -0.1335
   24MOL   O48315249   1.776   3.289   2.894 -0.9056  0.0195  0.2831
   24MOL   C48415250   1.899   3.378   3.085  0.2505 -0.0049 -0.2514
   24MOL   C48515251   2.016   3.412   2.995 -0.4230 -0.1418  0.4557
   24MOL   C48615252   2.112   3.513   3.059  0.1840 -0.1296 -0.2114
   24MOL   C48715253   2.058   3.655   3.056 -0.4510 -0.2515  0.0097
   24MOL   C48815254   2.056   3.727   2.914  0.4104 -0.0843 -0.0548
   24MOL   O48915255   2.151   3.736   2.839 -0.7668 -0.0805  0.2145
   24MOL   N49015256   1.935   3.780   2.880  0.3382  0.0295  0.0015
   24MOL   C49115257   1.904   3.842   2.752  0.1843 -0.9863 -0.2420
   24MOL   C49215258   1.905   3.757   2.624  0.4358  0.9819  0.1619
   24MOL   C49315259   1.855   3.851   2.507 -0.3306  0.4030  1.1271
   24MOL   C49415260   1.813   3.778   2.374  0.4374  0.2838 -0.6000
   24MOL   N49515261   1.908   3.685   2.319 -0.1219  0.1428  0.1357
   24MOL   H49615262   1.836   3.461   3.118 -1.4265 -0.5745 -1.9374
   24MOL   H49715263   1.950   3.339   3.173 -0.0090  0.1786 -0.0149
   24MOL   H49815264   2.084   3.327   2.979 -0.9796 -0.8070  1.5447
   24MOL   H49915265   1.985   3.445   2.896 -1.7849 -2.3627  0.1025
   24MOL   H50015266   2.204   3.504   3.001 -1.6795 -1.8711 -2.9981
   24MOL   H50115267   2.128   3.482   3.162  1.2983  0.2872 -0.2541
   24MOL   H50215268   2.120   3.709   3.127  0.0112 -0.8288  0.0516
   24MOL   H50315269   1.954   3.649   3.088 -0.2858 -3.2693  0.0967
   24MOL   H50415270   1.860   3.762   2.946 -0.1250 -2.6024 -1.1834
   24MOL   H50515271   1.967   3.929   2.734 -0.0299 -0.6673  0.5286
   24MOL   H50615272   1.805   3.887   2.761 -0.3491 -1.8916 -1.4631
   24MOL   H50715273   2.009   3.729   2.611 -0.1456 -0.2030 -2.1784
   24MOL   H50815274   1.840   3.670   2.634 -1.4733  2.3956  0.4965
   24MOL   H50915275   1.930   3.928   2.489  0.0126 -0.3144 -0.6402
   24MOL   H51015276   1.765   3.905   2.534 -0.4645 -0.2630  2.0329
   24MOL   H51115277   1.788   3.852   2.299  0.4091 -0.7334 -1.6024
   24MOL   H51215278   1.723   3.720   2.393  0.5584  1.1644  3.0481
   24MOL   H51315279   1.911   3.590   2.354 -2.4805 -0.6698 -1.7998
   24MOL   C51415280   1.989   3.699   2.212 -0.3725  0.7962  1.2346
   24MOL   O51515281   1.987   3.801   2.144  0.6721 -0.3857 -0.1962
   24MOL   C51615282   2.067   3.576   2.170  0.0076 -0.2980  0.4976
   24MOL   C51715283   2.119   3.586   2.023  0.3998 -0.3305 -0.3133
   24MOL   C51815284   1.997   3.575   1.924  0.7347 -0.5806  0.1704
   24MOL   C51915285   2.029   3.546   1.778 -0.5557  0.1257 -0.1610
   24MOL   C52015286   2.028   3.397   1.740 -0.2614  0.3364  0.5386
   24MOL   O52115287   1.936   3.320   1.737 -0.0770 -0.3149 -0.0900
   24MOL   N52215288   2.143   3.353   1.697 -0.0314 -0.4591  0.0002
   24MOL   C52315289   2.173   3.236   1.627 -0.3880  0.7533 -0.4560
   24MOL   C52415290   2.159   3.095   1.705 -0.9559 -0.1491 -0.0561
   24MOL   C52515291   2.262   3.084   1.819 -0.2585  0.0601 -0.7761
   24MOL   C52615292   2.389   3.011   1.790 -0.2533 -0.7318  0.4588
   24MOL   N52715293   2.372   2.873   1.789 -0.1397  0.5861  0.3778
   24MOL   H52815294   2.156   3.565   2.232  0.1527  2.6184  0.8724
   24MOL   H52915295   2.004   3.488   2.183  0.3924 -0.7905 -0.8402
   24MOL   H53015296   2.173   3.681   2.017  2.3566 -1.4126 -0.1614
   24MOL   H53115297   2.202   3.521   1.993 -0.6271 -0.9666 -1.8312
   24MOL   H53215298   1.928   3.659   1.930 -0.6138 -1.7447  1.2812
   24MOL   H53315299   1.940   3.491   1.964  2.5231 -3.2145 -2.5865
   24MOL   H53415300   2.120   3.599   1.749  0.5941 -0.3204  2.4725
   24MOL   H53515301   1.947   3.593   1.724 -0.8090 -1.0696 -0.8233
   24MOL   H53615302   2.214   3.422   1.679 -0.4978 -0.4302 -1.8611
   24MOL   H53715303   2.278   3.248   1.601 -0.7564 -0.8222 -2.8344
   24MOL   H53815304   2.115   3.237   1.535  0.4539  2.3351 -0.9925
   24MOL   H53915305   2.057   3.082   1.742 -1.1009  1.8188  0.3060
   24MOL   H54015306   2.193   3.021   1.633  0.1855 -0.6027  0.9414
   24MOL   H54115307   2.212   3.029   1.898 -2.1780 -0.0228 -2.0077
   24MOL   H54215308   2.281   3.186   1.852  0.8508 -0.4339  0.1222
   24MOL   H54315309   2.466   3.039   1.862 -0.8533 -0.2495  0.9145
   24MOL   H54415310   2.422   3.048   1.692 -1.5012  0.3781  0.4483
   24MOL   H54515311   2.353   2.836   1.881  0.2873 -1.5135 -0.3525
   24MOL   C54615312   2.376   2.793   1.687 -0.4421 -0.7014  0.6310
   24MOL   O54715313   2.428   2.813   1.578 -0.0208 -0.6396  0.0884
   24MOL   C54815314   2.308   2.655   1.726  0.0574 -1.0535  0.2605
   24MOL   C54915315   2.161   2.663   1.759 -0.0683  0.2134 -0.5057
   24MOL   C55015316   2.061   2.715   1.656  0.2449  0.2186 -0.4720
   24MOL   C55115317   2.045   2.623   1.537  0.5239 -0.0979 -0.0901
   24MOL   C55215318   1.978   2.491   1.566 -0.4778  0.1878  0.1822
   24MOL   O55315319   1.927   2.468   1.676 -0.2011  0.6923 -0.4335
   24MOL   N55415320   1.968   2.395   1.476 -0.0916  0.3558  0.5809
   24MOL   C55515321   1.906   2.266   1.487 -0.3294 -0.3346 -0.0496
   24MOL   C55615322   1.969   2.183   1.594 -0.6135  0.4053  0.0366
   24MOL   C55715323   1.931   2.034   1.578  0.5094 -0.3879 -0.0614
   24MOL   C55815324   1.986   1.946   1.687 -0.1261  0.3105 -0.0375
   24MOL   N55915325   1.897   1.827   1.692  0.2792 -0.4795 -0.3910
   24MOL   H56015326   2.331   2.585   1.646  0.8788 -0.2369 -0.2284
   24MOL   H56115327   2.367   2.618   1.809  0.6821 -0.5496  0.0437
   24MOL   H56215328   2.118   2.569   1.794  0.8377  0.0678  0.2461
   24MOL   H56315329   2.151   2.733   1.842  0.9675  0.7264 -0.7949
   24MOL   H56415330   2.078   2.821   1.643 -1.1005  0.3865 -0.9690
   24MOL   H56515331   1.968   2.723   1.713  0.8549 -1.4548  0.7977
   24MOL   H56615332   2.130   2.607   1.472  0.9529  0.8511  0.2283
   24MOL   H56715333   1.968   2.674   1.478  1.2663  2.7693  1.2868
   24MOL   H56815334   2.016   2.409   1.388 -1.4035  0.0565 -0.1966
   24MOL   H56915335   1.916   2.218   1.390  1.5532  0.4901 -0.2799
   24MOL   H57015336   1.799   2.282   1.499 -0.3178  1.4496 -2.1195
   24MOL   H57115337   2.076   2.190   1.610 -0.9496  0.3669  2.5119
   24MOL   H57215338   1.938   2.224   1.690 -0.2719  0.6788  0.0301
   24MOL   H57315339   1.967   1.980   1.491  1.5093  0.9942 -0.5168
   24MOL   H57415340   1.824   2.027   1.561  0.5882 -0.0212 -0.7180
   24MOL   H57515341   1.987   1.992   1.786  1.8115  1.4821 -0.5872
   24MOL   H57615342   2.084   1.912   1.657 -0.1824  1.8921 -2.0750
   24MOL   H57715343   1.833   1.814   1.615 -1.6106  0.8100  0.8990
   24MOL   C57815344   1.897   1.737   1.793  0.0289 -0.0986  0.3799
   24MOL   O57915345   1.992   1.725   1.872  0.2196  0.3543  0.2592
   24MOL   C58015346   1.770   1.658   1.816 -0.2617 -0.0932  0.0414
   24MOL   C58115347   1.728   1.624   1.958 -0.3742 -0.4973 -0.5430
   24MOL   C58215348   1.616   1.527   1.964 -0.2910  1.1530  0.0235
   24MOL   C58315349   1.592   1.469   2.104  0.3180  0.6843 -0.2046
   24MOL   C58415350   1.512   1.556   2.205  0.8696  0.0072 -0.4255
   24MOL   O58515351   1.461   1.662   2.171 -0.2244  0.1131 -0.3257
   24MOL   N58615352   1.507   1.501   2.328  0.7501  0.3103  0.2157
   24MOL   C58715353   1.429   1.555   2.438  0.0329 -0.1438 -0.2699
   24MOL   C58815354   1.280   1.502   2.432 -0.4285 -0.3676 -0.0619
   24MOL   C58915355   1.188   1.559   2.542  0.3883  0.2065  0.1959
   24MOL   C59015356   1.052   1.478   2.521  0.4064 -0.7740  0.4082
   24MOL   N59115357   0.968   1.497   2.637  1.2517  0.2957  0.4840
   24MOL   H59215358   1.690   1.717   1.771  0.7531 -0.2619 -2.0328
   24MOL   H59315359   1.781   1.570   1.752  2.0079  0.1536  0.0367
   24MOL   H59415360   1.812   1.589   2.019 -0.5356  0.6272  0.3333
   24MOL   H59515361   1.696   1.712   2.012  0.7616 -0.3611 -0.0764
   24MOL   H59615362   1.643   1.455   1.887  0.4644  1.5731 -0.1114
   24MOL   H59715363   1.524   1.576   1.932 -1.1951  2.0546  3.7846
   24MOL   H59815364   1.688   1.443   2.148 -0.5517 -0.8456  0.8559
   24MOL   H59915365   1.536   1.376   2.098 -0.1640  0.8303  1.7110
   24MOL   H60015366   1.560   1.415   2.331 -0.9697 -0.9038 -2.1225
   24MOL   H60115367   1.437   1.664   2.433 -0.6959 -0.1616 -1.9860
   24MOL   H60215368   1.469   1.537   2.538 -0.1741  0.7719 -0.0160
   24MOL   H60315369   1.237   1.531   2.336  0.1573  1.6553  0.2735
   24MOL   H60415370   1.284   1.394   2.421  0.8049 -0.2183 -1.3168
   24MOL   H60515371   1.174   1.667   2.539 -0.4969  0.1233  1.2612
   24MOL   H60615372   1.237   1.529   2.634  0.5594 -1.3154 -0.3718
   24MOL   H60715373   1.058   1.370   2.512  0.3633 -0.8611  1.4376
   24MOL   H60815374   0.999   1.503   2.429 -0.5358 -0.7889  0.9413
   24MOL   H60915375   0.922   1.587   2.637 -0.0994 -0.3768  0.0173
   24MOL   C61015376   0.967   1.422   2.740 -0.1763  0.2151  0.2795
   24MOL   O61115377   1.020   1.308   2.744  0.1716  0.1909 -0.3567
   24MOL   C61215378   0.886   1.482   2.856  0.1651 -0.6677 -0.3839
   24MOL   C61315379   0.940   1.439   2.995  0.2120  0.9592  0.0393
   24MOL   C61415380   0.893   1.293   3.035  0.4228  0.0350  0.2132
   24MOL   C61515381   0.868   1.277   3.185  0.3178 -0.1591  0.3839
   24MOL   C61615382   0.911   1.146   3.247  0.0480  0.2610 -1.0535
   24MOL   O61715383   1.022   1.092   3.219 -0.6832  0.3163 -0.2651
   24MOL   N61815384   0.816   1.081   3.320 -0.3237  0.3437 -0.3141
   24MOL   C61915385   0.851   0.949   3.366 -0.0979 -0.5348 -0.0968
   24MOL   C62015386   0.741   0.843   3.325 -0.0197 -0.4199  0.8914
   24MOL   C62115387   0.775   0.695   3.351 -0.6263  0.0078 -0.5171
   24MOL   C62215388   0.658   0.599   3.329  0.5045  0.2203 -0.1596
   24MOL   N62315389   0.697   0.460   3.337  0.5083 -0.3236  0.0348
   24MOL   H62415390   0.885   1.588   2.835  2.2331 -0.5248  0.0506
   24MOL   H62515391   0.781   1.455   2.850  0.1666 -1.1899  1.4828
   24MOL   H62615392   1.048   1.451   2.993  0.3007  0.1849 -0.0314
   24MOL   H62715393   0.910   1.506   3.075  3.2280  0.4890  1.6455
   24MOL   H62815394   0.969   1.220   3.006  0.6105  0.0782  0.5833
   24MOL   H62915395   0.797   1.282   2.986 -0.2430 -0.1987  1.5302
   24MOL   H63015396   0.768   1.315   3.208 -0.6202  1.5218 -5.7386
   24MOL   H63115397   0.926   1.356   3.234 -1.0763  1.5815 -0.6930
   24MOL   H63215398   0.726   1.124   3.334 -0.5493  0.0477 -0.8465
   24MOL   H63315399   0.876   0.958   3.471  1.7562  1.3730 -0.6726
   24MOL   H63415400   0.951   0.917   3.335  0.6250  1.2077  0.4223
   24MOL   H63515401   0.643   0.863   3.368 -0.5970  0.3723 -0.7776
   24MOL   H63615402   0.736   0.853   3.217  3.3404  0.2744  0.7364
   24MOL   H63715403   0.820   0.684   3.450  0.0746  1.6644 -0.6209
   24MOL   H63815404   0.861   0.666   3.290  0.7684  0.0206  1.3727
   24MOL   H63915405   0.615   0.621   3.231  0.4771  0.4986 -0.0855
   24MOL   H64015406   0.584   0.619   3.406  1.0665  0.9019  0.2093
   24MOL   H64115407   0.744   0.444   3.424  2.6383 -0.0213 -1.0309
   24MOL   H64215408   0.761   0.427   3.267  1.4029 -0.8495  1.0979
   25MOL     C115409   5.142   3.424   7.606 -0.4698  0.6562  0.1357
   25MOL     O215410   5.232   3.361   7.552  0.0959  0.4590 -0.1723
   25MOL     C315411   5.055   3.500   7.507  0.2704  0.3243  0.3516
   25MOL     C415412   4.968   3.609   7.582  0.3691  0.2309 -0.0164
   25MOL     C515413   4.927   3.739   7.504 -0.3967  0.2215 -0.2919
   25MOL     C615414   4.829   3.717   7.389 -0.3820 -0.1743  0.2307
   25MOL     C715415   4.684   3.752   7.433 -0.4847  0.2226 -0.0393
   25MOL     O815416   4.651   3.868   7.448  0.6568 -0.3960 -0.0983
   25MOL     N915417   4.602   3.646   7.449 -0.6081 -0.1578  0.0111
   25MOL    C1015418   4.456   3.649   7.468  0.7701  0.6573 -0.2085
   25MOL    C1115419   4.430   3.629   7.617 -0.4962  0.0823  0.6974
   25MOL    C1215420   4.293   3.683   7.657 -0.1518 -0.5611  0.7442
   25MOL    C1315421   4.280   3.834   7.674 -0.5539  0.9582  0.0848
   25MOL    N1415422   4.149   3.872   0.020 -0.2118  0.1167  0.2340
   25MOL    H1515423   5.130   3.548   7.444  0.4149  1.2378  1.1986
   25MOL    H1615424   4.999   3.434   7.441 -1.2083  1.4230  0.4981
   25MOL    H1715425   4.875   3.561   7.614 -0.7935  1.3033 -1.7046
   25MOL    H1815426   5.017   3.643   7.673  3.1636 -3.3540 -0.0647
   25MOL    H1915427   5.015   3.793   7.467  0.3593 -1.5924 -1.2232
   25MOL    H2015428   4.878   3.804   7.576  0.5370  2.7242 -1.8563
   25MOL    H2115429   4.847   3.620   7.344  1.2010 -0.3808  1.2726
   25MOL    H2215430   4.851   3.794   7.315  0.7556 -1.1249 -0.4334
   25MOL    H2315431   4.652   3.565   7.415 -1.7299 -0.8464  0.0067
   25MOL    H2415432   4.421   3.561   7.414 -0.4979  2.4216 -2.3536
   25MOL    H2515433   4.419   3.737   7.415  1.0397  0.0141 -1.4770
   25MOL    H2615434   4.437   3.521   7.632  5.7233  0.2490  0.3134
   25MOL    H2715435   4.505   3.670   7.684 -0.4909  0.3874  0.5041
   25MOL    H2815436   4.257   3.623   0.039 -0.0054  1.1420  2.0766
   25MOL    H2915437   4.224   3.668   7.574  1.9382  0.1331 -1.1860
   25MOL    H3015438   4.299   3.892   7.584  0.8366 -0.8669 -0.8304
   25MOL    H3115439   4.356   3.852   0.049  0.7084 -0.6028 -0.7575
   25MOL    H3215440   4.091   3.929   7.662  0.0666 -0.3598 -0.4976
   25MOL    H3315441   5.125   3.407   0.011 -0.9712  1.0371  0.1140
   25MOL    C3415442   4.118   3.871   0.151 -0.2774  0.7870 -0.0847
   25MOL    O3515443   4.186   3.812   0.233  0.5917 -1.0144  0.0951
   25MOL    C3615444   3.983   3.929   0.195  0.1228 -0.7916  0.1294
   25MOL    C3715445   3.901   3.834   0.282  0.1931 -0.2042  0.3067
   25MOL    C3815446   3.755   3.852   0.258  0.2627  0.5814 -0.5760
   25MOL    C3915447   3.700   3.994   0.288  0.5341  0.2417  0.2267
   25MOL    C4015448   3.551   4.008   0.282 -0.3020 -0.7565  0.8559
   25MOL    O4115449   3.473   3.913   0.266 -0.0412  0.0284  0.0736
   25MOL    N4215450   3.499   4.132   0.309 -0.1541  0.0499 -0.2449
   25MOL    C4315451   3.353   4.159   0.288  0.6726 -0.7203 -0.0220
   25MOL    C4415452   3.268   4.117   0.403  0.6290 -0.3573 -0.1993
   25MOL    C4515453   3.116   4.146   0.378  0.2665 -0.0456 -1.3450
   25MOL    C4615454   3.029   4.069   0.483  0.2755  0.3552 -0.0019
   25MOL    N4715455   3.067   4.098   0.620 -0.2650 -0.3065 -0.4078
   25MOL    H4815456   4.001   4.024   0.246  0.2828 -0.8027  0.0914
   25MOL    H4915457   3.919   3.939   0.108 -2.0324  1.9253  1.9186
   25MOL    H5015458   3.932   3.732   0.259  0.0575 -0.0344 -0.6657
   25MOL    H5115459   3.924   3.847   0.388  1.9025  0.0445 -0.0846
   25MOL    H5215460   3.706   3.776   0.320 -0.9986  2.6136  1.0079
   25MOL    H5315461   3.735   3.827   0.154 -0.3368  1.3679 -0.6558
   25MOL    H5415462   3.743   4.059   0.212 -1.3259  1.4772  0.2023
   25MOL    H5515463   3.735   4.024   0.387 -1.8480  2.4478  0.4680
   25MOL    H5615464   3.565   4.203   0.336 -1.3918  1.6161 -1.2240
   25MOL    H5715465   3.309   4.112   0.201  1.0205 -0.7185 -0.2021
   25MOL    H5815466   3.347   4.268   0.287 -0.6147 -0.7333  1.9945
   25MOL    H5915467   3.286   4.010   0.411 -1.0292 -0.8168 -2.2545
   25MOL    H6015468   3.302   4.154   0.500 -0.0140 -1.7842  0.5825
   25MOL    H6115469   3.076   4.119   0.281 -0.4877 -1.5055 -0.6349
   25MOL    H6215470   3.101   4.254   0.389  0.4382 -0.1460 -0.1116
   25MOL    H6315471   3.021   3.963   0.457  0.4630  0.6680 -1.3315
   25MOL    H6415472   2.925   4.100   0.472  0.4716  0.6953 -0.9302
   25MOL    H6515473   3.122   4.181   0.627 -0.1508 -0.3610 -0.6800
   25MOL    C6615474   3.020   4.048   0.736 -0.7108 -0.3318 -0.1069
   25MOL    O6715475   3.058   4.093   0.846  0.2959  0.7157  0.1515
   25MOL    C6815476   2.917   3.939   0.730  0.2958  0.2164  0.0904
   25MOL    C6915477   2.895   3.875   0.864 -1.3008  0.5749 -0.1298
   25MOL    C7015478   3.012   3.794   0.917  0.2422 -0.0956 -0.1382
   25MOL    C7115479   2.979   3.655   0.973  0.2129  0.1415  0.1482
   25MOL    C7215480   2.896   3.666   1.096  0.1196 -0.2497 -0.3605
   25MOL    O7315481   2.929   3.723   1.196  0.1752  0.0878  0.2645
   25MOL    N7415482   2.778   3.604   1.086  0.0981 -0.6856 -0.0162
   25MOL    C7515483   2.687   3.597   1.198  0.5680  0.3943 -0.6645
   25MOL    C7615484   2.583   3.708   1.197 -0.9862  0.5732  0.3024
   25MOL    C7715485   2.488   3.682   1.310  0.0895 -0.6436  0.0180
   25MOL    C7815486   2.361   3.762   1.308  0.7053 -0.4063  0.6249
   25MOL    N7915487   2.384   3.901   1.342  0.1320 -0.2541 -0.4363
   25MOL    H8015488   2.822   3.988   0.709  0.3064  0.4930  0.6814
   25MOL    H8115489   2.932   3.865   0.652 -1.3114 -0.2865  0.2280
   25MOL    H8215490   2.860   3.934   0.949 -1.0130 -2.6324  2.3273
   25MOL    H8315491   2.812   3.805   0.855 -0.5357 -0.1342 -1.9887
   25MOL    H8415492   3.059   3.847   0.999 -2.0270  1.1873  0.3702
   25MOL    H8515493   3.088   3.771   0.842 -1.8864 -2.4588 -1.6576
   25MOL    H8615494   3.064   3.590   0.993 -1.0828 -1.2465  1.3020
   25MOL    H8715495   2.934   3.597   0.892  0.9111 -0.2802  0.0643
   25MOL    H8815496   2.753   3.564   0.996 -0.3182  0.1982 -0.3049
   25MOL    H8915497   2.749   3.590   1.288  1.0498 -1.2658 -1.1033
   25MOL    H9015498   2.647   3.496   1.186 -0.7089  0.8982 -0.7080
   25MOL    H9115499   2.625   3.807   1.209 -1.8558  1.3379 -2.5328
   25MOL    H9215500   2.532   3.714   1.101 -0.8711  0.7751  0.2541
   25MOL    H9315501   2.534   3.689   1.409  0.7639 -0.9055 -0.2759
   25MOL    H9415502   2.460   3.577   1.311 -2.6082  0.0032 -1.7705
   25MOL    H9515503   2.309   3.710   1.388 -1.1459  1.7762  0.8727
   25MOL    H9615504   2.310   3.761   1.212  1.6148 -1.2808  0.1378
   25MOL    H9715505   2.444   3.956   1.282  1.1602 -0.9952 -0.1064
   25MOL    C9815506   2.301   3.973   1.423 -0.2674 -0.4726 -0.2911
   25MOL    O9915507   2.211   3.930   1.487 -0.3693 -0.2538 -0.1378
   25MOL   C10015508   2.341   4.120   1.429 -0.0810 -0.3092 -0.3171
   25MOL   C10115509   2.333   4.175   1.573  0.1540 -0.6166  0.7552
   25MOL   C10215510   2.410   4.304   1.600 -0.5843 -0.4116 -0.1274
   25MOL   C10315511   2.414   4.349   1.742 -0.6792 -0.0130  0.3627
   25MOL   C10415512   2.281   4.407   1.793 -0.0414  0.5478 -0.8875
   25MOL   O10515513   2.244   4.511   1.740 -0.5805 -0.3074  0.3725
   25MOL   N10615514   2.220   4.344   1.890 -0.4462 -0.0969 -0.2983
   25MOL   C10715515   2.089   4.368   1.961  0.1879  0.2679  0.2536
   25MOL   C10815516   2.115   4.459   2.079 -0.4583 -0.6875  0.1318
   25MOL   C10915517   2.160   4.596   2.032 -0.0335  0.4216  0.2057
   25MOL   C11015518   2.125   4.712   2.133  0.3770  0.3192  0.0100
   25MOL   N11115519   2.189   4.688   2.258 -0.3879  0.0158  0.1605
   25MOL   H11215520   2.445   4.148   1.412  0.5597 -1.4159  1.5951
   25MOL   H11315521   2.279   4.191   1.375  1.6495  1.5251  0.0392
   25MOL   H11415522   2.230   4.175   1.610  0.5422 -2.3791  1.8922
   25MOL   H11515523   2.376   4.098   1.637  0.9405 -0.8039  0.0040
   25MOL   H11615524   2.367   4.386   1.542  0.6206 -0.8527 -1.7092
   25MOL   H11715525   2.513   4.299   1.563 -1.3780 -1.1350 -2.3612
   25MOL   H11815526   2.493   4.425   1.749  0.1501 -1.0194  2.4888
   25MOL   H11915527   2.454   4.268   1.802  1.5366  0.7388 -0.0306
   25MOL   H12015528   2.276   4.272   1.933  1.7271  2.2047  0.8746
   25MOL   H12115529   2.042   4.273   1.984  2.2496 -1.1340 -1.2292
   25MOL   H12215530   2.014   4.405   1.890 -1.1576 -3.7344 -0.5575
   25MOL   H12315531   2.017   4.474   2.126 -2.0585  0.3256 -3.3774
   25MOL   H12415532   2.187   4.417   2.149  2.4764  2.5878 -0.7439
   25MOL   H12515533   2.114   4.629   1.939  0.4982  0.2748 -0.1098
   25MOL   H12615534   2.266   4.602   2.011  0.0195  0.2255  0.4084
   25MOL   H12715535   2.020   4.737   2.147  0.4899 -0.2252  2.0608
   25MOL   H12815536   2.173   4.804   2.098  2.0102 -0.2357  0.7308
   25MOL   H12915537   2.249   4.608   2.266  0.6768  0.7431 -0.4751
   25MOL   C13015538   2.152   4.750   2.370 -0.0184 -0.0319  0.2337
   25MOL   O13115539   2.085   4.852   2.366 -0.2512  0.0070  0.2745
   25MOL   C13215540   2.207   4.688   2.503  0.2905 -0.8253  0.0008
   25MOL   C13315541   2.176   4.764   2.632  0.4243  0.5573  0.0399
   25MOL   C13415542   2.219   4.686   2.754 -0.5431 -0.1111  0.1690
   25MOL   C13515543   2.265   4.790   2.864 -0.1044 -0.2736 -0.1230
   25MOL   C13615544   2.409   4.831   2.853  0.0250  0.0301 -0.7515
   25MOL   O13715545   2.492   4.759   2.803  0.1431  0.4122 -0.3053
   25MOL   N13815546   2.446   4.945   2.916  0.3288 -0.1804 -0.3375
   25MOL   C13915547   2.570   5.020   2.890  0.0065  0.2674  0.4743
   25MOL   C14015548   2.610   5.119   2.993 -0.3975 -1.2622 -0.3909
   25MOL   C14115549   2.722   5.214   2.950  0.3662  0.1444 -0.5714
   25MOL   C14215550   2.795   5.291   3.059  0.6947 -0.5344  0.5994
   25MOL   N14315551   2.888   5.384   2.999  0.4699  1.2569  0.0335
   25MOL   H14415552   2.152   4.595   2.492 -2.9354  0.8389  1.4840
   25MOL   H14515553   2.315   4.671   2.504  0.7317  1.8059  1.3950
   25MOL   H14615554   2.225   4.861   2.628  0.3355  0.6114  0.2425
   25MOL   H14715555   2.070   4.787   2.640  0.8527  2.0751  1.6784
   25MOL   H14815556   2.299   4.615   2.733 -1.4832 -0.6519 -1.6945
   25MOL   H14915557   2.133   4.627   2.785 -1.4870  1.2485  0.1651
   25MOL   H15015558   2.250   4.749   2.965  0.3110  0.5185  0.2623
   25MOL   H15115559   2.206   4.881   2.854 -2.1829 -1.7694 -2.1404
   25MOL   H15215560   2.379   4.992   2.976  3.1358  1.1486  1.8352
   25MOL   H15315561   2.539   5.084   2.808 -2.4612  0.1286  1.2685
   25MOL   H15415562   2.637   4.957   2.832 -3.0812 -0.3964 -2.4789
   25MOL   H15515563   2.520   5.176   3.017 -0.8104 -1.7909 -0.6628
   25MOL   H15615564   2.629   5.066   3.086  0.2828 -0.2707  0.0353
   25MOL   H15715565   2.679   5.292   2.887  1.0377  1.0450  0.0809
   25MOL   H15815566   2.789   5.145   2.899 -2.3664 -0.5234 -3.4310
   25MOL   H15915567   2.858   5.220   3.112  0.3275 -0.5563  1.0089
   25MOL   H16015568   2.726   5.337   3.129 -0.2020 -1.4954  0.3585
   25MOL   H16115569   2.904   5.368   2.901 -0.2481  1.3998 -0.1100
   25MOL   C16215570   2.978   5.466   3.056 -0.4327 -0.2624 -0.1790
   25MOL   O16315571   2.976   5.497   3.177  0.4015 -0.3950 -0.1020
   25MOL   C16415572   3.081   5.533   2.968 -0.6787  0.3587 -0.7519
   25MOL   C16515573   3.152   5.666   3.016  0.1133 -0.5542  0.0407
   25MOL   C16615574   3.252   5.629   3.129 -0.7036 -0.3463 -0.0185
   25MOL   C16715575   3.330   5.749   3.177 -0.5922  0.1723  0.1151
   25MOL   C16815576   3.454   5.726   3.253 -0.0874  0.3095 -0.5811
   25MOL   O16915577   3.450   5.653   3.353 -0.0085 -0.3230 -0.3418
   25MOL   N17015578   3.568   5.769   3.194 -0.6078 -0.4962 -0.2337
   25MOL   C17115579   3.699   5.727   3.238 -0.4732  0.4119 -0.1126
   25MOL   C17215580   3.720   5.578   3.192 -0.1543 -0.1500  0.2135
   25MOL   C17315581   3.711   5.553   3.038 -0.2870 -0.6629 -0.2347
   25MOL   C17415582   3.845   5.594   2.972  0.1555 -0.3185 -0.4119
   25MOL   N17515583   3.821   5.632   2.834  0.0556 -0.0806  0.1033
   25MOL   H17615584   3.165   5.465   2.952 -1.4364 -0.7967  0.0895
   25MOL   H17715585   3.037   5.557   2.871 -1.4788  2.7739  0.1739
   25MOL   H17815586   3.215   5.704   2.935  1.2999  1.7532  2.0063
   25MOL   H17915587   3.090   5.743   3.062  0.7460 -0.5821  0.9532
   25MOL   H18015588   3.335   5.571   3.088  0.5990  1.3842  0.0901
   25MOL   H18115589   3.210   5.583   3.217  0.1056  0.7062  0.9415
   25MOL   H18215590   3.277   5.802   3.257  0.9584 -1.9547  2.6142
   25MOL   H18315591   3.349   5.817   3.094 -0.2222 -1.4025 -1.1047
   25MOL   H18415592   3.564   5.813   3.103  2.1721 -0.4018 -0.3650
   25MOL   H18515593   3.704   5.732   3.347 -2.6412  3.1252 -0.0762
   25MOL   H18615594   3.779   5.789   3.198 -0.0912 -0.9880 -1.5699
   25MOL   H18715595   3.818   5.544   3.225 -0.0004 -1.4364 -1.4897
   25MOL   H18815596   3.640   5.518   3.235 -1.6499  1.6826  0.0479
   25MOL   H18915597   3.630   5.615   2.998 -0.6440 -0.2737  1.0608
   25MOL   H19015598   3.688   5.447   3.033 -0.6973 -0.5552 -0.6686
   25MOL   H19115599   3.918   5.513   2.984 -0.1878 -0.3626  1.5358
   25MOL   H19215600   3.895   5.675   3.026  0.3687 -1.0243  0.4629
   25MOL   H19315601   3.803   5.731   2.830 -0.0059 -0.0736  0.5475
   25MOL   C19415602   3.820   5.553   2.727 -0.0911 -1.1076 -0.5244
   25MOL   O19515603   3.804   5.608   2.621  0.2125  0.2724 -0.4601
   25MOL   C19615604   3.840   5.402   2.727 -0.0534 -0.4272  0.4098
   25MOL   C19715605   3.759   5.328   2.620 -0.3433 -0.8754  0.0813
   25MOL   C19815606   3.799   5.176   2.602 -0.3342 -0.1153 -0.6163
   25MOL   C19915607   3.742   5.091   2.718 -0.3719  0.4460  1.0153
   25MOL   C20015608   3.785   4.953   2.724 -0.6300  1.0360  0.6621
   25MOL   O20115609   3.888   4.910   2.669  0.6571 -0.1112 -0.5306
   25MOL   N20215610   3.700   4.869   2.795 -0.1705  0.2322 -0.0238
   25MOL   C20315611   3.710   4.730   2.805 -0.4683  0.1014 -0.2567
   25MOL   C20415612   3.574   4.656   2.776 -0.3233  0.5533 -0.2584
   25MOL   C20515613   3.518   4.696   2.638  0.3021  0.2369 -0.2896
   25MOL   C20615614   3.375   4.649   2.610 -0.1040 -0.3089 -0.7183
   25MOL   N20715615   3.319   4.720   2.495 -0.5824  0.8353  0.0196
   25MOL   H20815616   3.945   5.388   2.701  0.0134  1.4719 -0.4278
   25MOL   H20915617   3.825   5.356   2.825  0.6319 -1.6651 -0.0680
   25MOL   H21015618   3.654   5.338   2.646 -0.2419 -1.2974  0.6677
   25MOL   H21115619   3.771   5.370   2.520  0.3304  0.2944  0.6373
   25MOL   H21215620   3.907   5.161   2.601  0.3352  4.1666 -0.9716
   25MOL   H21315621   3.751   5.135   2.513  1.1524 -2.3554 -0.4407
   25MOL   H21415622   3.636   5.103   2.739 -0.0923 -0.2864  2.9242
   25MOL   H21515623   3.805   5.131   2.798  1.9388  0.4003 -0.7227
   25MOL   H21615624   3.625   4.913   2.847  1.2307  1.0404  1.3468
   25MOL   H21715625   3.733   4.711   2.910 -1.0877 -3.1367 -0.6563
   25MOL   H21815626   3.792   4.695   2.743 -0.9106 -0.8826 -0.2909
   25MOL   H21915627   3.584   4.548   2.789  0.2161  0.3438 -2.1829
   25MOL   H22015628   3.501   4.682   2.853 -1.9816 -1.9612 -0.9386
   25MOL   H22115629   3.584   4.668   2.556  2.4232  0.6327  1.2483
   25MOL   H22215630   3.510   4.805   2.633  0.2794  0.1413 -2.7575
   25MOL   H22315631   3.307   4.653   2.695  1.0175 -0.1395  0.1832
   25MOL   H22415632   3.378   4.546   2.576  3.1304 -0.4445 -0.1800
   25MOL   H22515633   3.315   4.669   2.408 -2.9566  0.6716  0.2060
   25MOL   C22615634   3.260   4.840   2.510  0.3511 -0.0030 -0.1716
   25MOL   O22715635   3.236   4.876   2.622 -0.3942  0.1559  0.5535
   25MOL   C22815636   3.215   4.926   2.389 -0.4567 -0.7853  0.3798
   25MOL   C22915637   3.242   5.075   2.412 -0.4669  0.6063 -0.0307
   25MOL   C23015638   3.388   5.117   2.395 -0.0327  0.3747 -0.2190
   25MOL   C23115639   3.427   5.142   2.254  0.0403 -0.4817 -0.0068
   25MOL   C23215640   3.421   5.289   2.216  0.0803  0.5551 -0.3621
   25MOL   O23315641   3.317   5.352   2.229 -0.2673  0.0346 -0.1594
   25MOL   N23415642   3.531   5.349   2.171 -0.3326 -0.1023  0.0570
   25MOL   C23515643   3.556   5.501   2.178 -0.1096 -0.1683  0.5813
   25MOL   C23615644   3.629   5.555   2.056  0.3197  0.0374 -0.1737
   25MOL   C23715645   3.674   5.696   2.069  0.0997 -0.2913 -0.4261
   25MOL   C23815646   3.777   5.748   1.966  0.2106 -0.7488 -0.4308
   25MOL   N23915647   3.712   5.772   1.845  0.7364  0.3226 -0.1438
   25MOL   H24015648   3.254   4.899   2.291 -1.9615  1.7696 -0.9814
   25MOL   H24115649   3.107   4.916   2.384 -0.5714  0.9502 -0.9596
   25MOL   H24215650   3.195   5.120   2.324  0.4031 -0.4038 -1.0321
   25MOL   H24315651   3.189   5.120   2.495 -0.9869  0.6049 -0.3584
   25MOL   H24415652   3.450   5.045   2.447 -0.3813 -0.8014 -1.3840
   25MOL   H24515653   3.398   5.204   2.459  0.6808  1.0351 -1.2184
   25MOL   H24615654   3.375   5.072   2.190  0.6875 -0.9208 -0.0618
   25MOL   H24715655   3.533   5.117   2.250  0.5368  1.7126 -1.1880
   25MOL   H24815656   3.609   5.287   2.158  1.5967  2.3423 -0.4996
   25MOL   H24915657   3.612   5.523   2.269 -0.8845  1.8515  0.5948
   25MOL   H25015658   3.473   5.569   2.198  0.1165  0.3000 -0.0514
   25MOL   H25115659   3.711   5.491   2.024  1.2507 -0.4358  2.9107
   25MOL   H25215660   3.555   5.544   1.977  1.5278 -1.5641 -1.1127
   25MOL   H25315661   3.720   5.714   2.166  1.3093 -1.1295 -0.8293
   25MOL   H25415662   3.580   5.750   2.058 -1.2839 -2.5601 -0.2092
   25MOL   H25515663   3.858   5.677   1.951  0.2301 -0.6198 -0.9390
   25MOL   H25615664   3.816   5.846   1.992 -1.7663 -0.0600  0.0302
   25MOL   H25715665   3.616   5.744   1.828  0.6144  0.1179  0.8959
   25MOL   C25815666   3.782   5.827   1.750  0.6819 -0.2755 -0.3493
   25MOL   O25915667   3.907   5.842   1.754 -0.1364  0.5779  0.0565
   25MOL   C26015668   3.702   5.876   1.629 -0.0013 -0.0922 -0.5007
   25MOL   C26115669   3.788   5.863   1.500 -0.1711  0.3530  0.1552
   25MOL   C26215670   3.728   5.931   1.366  0.1132  0.0698 -0.2922
   25MOL   C26315671   3.726   6.085   1.379  0.6510 -0.0270  0.1995
   25MOL   C26415672   3.652   6.155   1.262 -0.9583  0.0725  0.4626
   25MOL   O26515673   3.607   6.097   1.160  0.3555  0.2429  0.3427
   25MOL   N26615674   3.626   6.285   1.271 -0.1850  0.0984  0.8105
   25MOL   C26715675   3.555   6.372   1.177 -0.4434  0.1423 -0.1586
   25MOL   C26815676   3.543   6.513   1.228 -0.1947 -0.3024  0.0768
   25MOL   C26915677   3.451   6.588   1.130  0.0201  0.3370  0.5490
   25MOL   C27015678   3.445   6.740   1.154  0.0202 -0.4389  0.0545
   25MOL   N27115679   3.391   6.779   1.288 -0.1487 -0.0828 -0.9376
   25MOL   H27215680   3.609   5.821   1.620 -0.6848  1.0314 -0.3218
   25MOL   H27315681   3.674   5.980   1.643 -1.6197 -0.3870 -1.4356
   25MOL   H27415682   3.887   5.907   1.511  0.0088 -0.2060  0.7423
   25MOL   H27515683   3.814   5.760   1.478  0.1203  0.1918  1.2053
   25MOL   H27615684   3.623   5.905   1.359  0.0955 -0.9110  3.0434
   25MOL   H27715685   3.789   5.902   1.280 -0.4594  1.3968 -1.1651
   25MOL   H27815686   3.831   6.115   1.379  0.4938  0.5737 -1.0636
   25MOL   H27915687   3.678   6.106   1.474 -0.9441 -4.4092  0.4887
   25MOL   H28015688   3.674   6.348   1.333 -0.5173  1.3003 -0.1440
   25MOL   H28115689   3.462   6.331   1.139  0.6344 -1.6037 -1.0149
   25MOL   H28215690   3.612   6.385   1.085  3.5668 -0.5958  2.0744
   25MOL   H28315691   3.515   6.522   1.333  1.1736 -0.6572  0.4859
   25MOL   H28415692   3.643   6.556   1.225 -0.3504  0.4257  3.2188
   25MOL   H28515693   3.355   6.537   1.120  0.5243 -0.0193 -3.3236
   25MOL   H28615694   3.495   6.570   1.032 -2.0459  1.6257 -0.6573
   25MOL   H28715695   3.379   6.794   1.085 -0.3956 -1.3714 -0.2903
   25MOL   H28815696   3.549   6.773   1.158  0.5799 -1.9338 -1.6866
   25MOL   H28915697   3.408   6.721   1.368 -1.1682  1.2124  0.2445
   25MOL   C29015698   3.343   6.897   1.316 -0.1039 -0.8321 -0.1772
   25MOL   O29115699   3.350   6.992   1.236  0.2601 -0.2319  0.2706
   25MOL   C29215700   3.289   6.927   1.457 -0.6261  0.1751  0.2363
   25MOL   C29315701   3.137   6.930   1.461 -0.1401 -0.1856 -0.3685
   25MOL   C29415702   3.085   6.969   1.601 -0.0215 -0.2507 -0.3746
   25MOL   C29515703   2.935   6.978   1.614  0.4524  0.0135  0.1972
   25MOL   C29615704   2.858   6.850   1.575 -0.4317  0.3334  0.8992
   25MOL   O29715705   2.876   6.743   1.629  0.2045 -0.3530 -0.2867
   25MOL   N29815706   2.783   6.867   1.471 -0.9647  0.7895  0.0619
   25MOL   C29915707   2.730   6.754   1.388 -0.3749  0.6208  0.4114
   25MOL   C30015708   2.698   6.809   1.246  0.1828 -0.5285 -0.1120
   25MOL   C30115709   2.820   6.820   1.157 -0.4290 -0.4082 -0.5752
   25MOL   C30215710   2.803   6.864   1.007  0.3983 -0.0776 -0.4303
   25MOL   N30315711   2.715   6.768   0.931  0.0332  0.0146  0.4861
   25MOL   H30415712   3.320   6.849   1.527  0.8971 -0.8886 -1.5779
   25MOL   H30515713   3.340   7.018   1.487  1.6856 -1.0217  0.0543
   25MOL   H30615714   3.092   6.999   1.390 -3.3369 -0.5976  1.1635
   25MOL   H30715715   3.099   6.832   1.434  0.0669 -0.0234 -1.2585
   25MOL   H30815716   3.126   7.066   1.630 -0.0479 -0.7494  1.3735
   25MOL   H30915717   3.123   6.898   1.674 -1.5235 -0.0958  0.5921
   25MOL   H31015718   2.889   7.061   1.560  1.5272 -0.1833 -1.0172
   25MOL   H31115719   2.920   6.997   1.721  1.5032  0.7439  0.2236
   25MOL   H31215720   2.790   6.956   1.424  0.7634 -0.6462 -2.5283
   25MOL   H31315721   2.640   6.717   1.436  0.7487 -1.1004  1.2252
   25MOL   H31415722   2.802   6.672   1.388  0.1282  1.0252 -1.4233
   25MOL   H31515723   2.630   6.739   1.199 -1.2580  0.4873  0.4147
   25MOL   H31615724   2.627   6.892   1.242  0.0829 -0.6086 -0.0168
   25MOL   H31715725   2.856   6.717   1.155  0.4364 -0.0939 -1.5189
   25MOL   H31815726   2.890   6.887   1.207 -1.2662 -0.2132  0.3491
   25MOL   H31915727   2.898   6.880   0.957  0.4743  0.7430 -0.0397
   25MOL   H32015728   2.760   6.963   0.991  0.3987  0.4891  2.7820
   25MOL   H32115729   2.682   6.687   0.981  0.1110  1.2462  2.5794
   25MOL   C32215730   2.705   6.767   0.799 -0.8413  0.2957 -0.7498
   25MOL   O32315731   2.760   6.854   0.728 -0.5025 -0.3753  0.1974
   25MOL   C32415732   2.613   6.663   0.742 -0.1765  0.0549  0.8393
   25MOL   C32515733   2.550   6.715   0.609 -0.0911 -0.0370  0.1205
   25MOL   C32615734   2.433   6.630   0.558 -0.1096  0.5231 -0.7775
   25MOL   C32715735   2.388   6.675   0.418 -0.7399  0.4870  0.1389
   25MOL   C32815736   2.460   6.608   0.296 -0.4027 -0.4103  0.0415
   25MOL   O32915737   2.581   6.584   0.309  0.5516 -0.6393 -0.1554
   25MOL   N33015738   2.387   6.594   0.186 -0.6670 -0.4954  0.0072
   25MOL   C33115739   2.452   6.553   0.063 -0.0661  0.2466 -0.5417
   25MOL   C33215740   2.348   6.548   7.643 -0.0179  0.1411  0.2896
   25MOL   C33315741   2.401   6.468   7.518 -0.3856  0.6850  0.2058
   25MOL   C33415742   2.433   6.324   7.537 -0.1328 -0.7448  0.2364
   25MOL   N33515743   2.319   6.236   7.557  0.8480 -0.6165 -0.7589
   25MOL   H33615744   2.680   6.578   0.733 -0.9090 -0.5120  0.6883
   25MOL   H33715745   2.534   6.645   0.815 -0.0049 -1.0716  0.7498
   25MOL   H33815746   2.521   6.819   0.621  1.7719  0.5578 -0.3318
   25MOL   H33915747   2.631   6.708   0.537 -1.2252  0.4277 -1.2217
   25MOL   H34015748   2.349   6.644   0.626  2.8001 -0.8969  3.3137
   25MOL   H34115749   2.461   6.525   0.563  1.6736  1.0802  1.8157
   25MOL   H34215750   2.410   6.781   0.400  0.9095  0.3455  1.2144
   25MOL   H34315751   2.281   6.662   0.406 -0.4263 -0.5293 -1.6473
   25MOL   H34415752   2.293   6.630   0.188  0.0922  1.5628  2.5514
   25MOL   H34515753   2.491   6.454   0.090  0.3309  0.6015  0.1873
   25MOL   H34615754   2.533   6.622   0.040 -1.2865  1.7009 -0.5025
   25MOL   H34715755   2.256   6.499   7.676 -1.3198  1.0956 -1.8526
   25MOL   H34815756   2.315   6.649   7.621  0.9984  0.5317  0.5145
   25MOL   H34915757   2.492   6.519   7.486 -0.5321  0.9676  0.2439
   25MOL   H35015758   2.322   6.469   7.443  0.8759  2.1016 -1.1604
   25MOL   H35115759   2.487   6.317   7.631 -1.2700 -0.0017  0.9461
   25MOL   H35215760   2.492   6.280   7.455 -1.4484 -0.2289 -1.0056
   25MOL   H35315761   2.296   6.216   7.653  1.0255 -2.0923 -1.0136
   25MOL   C35415762   2.234   6.195   7.469 -0.4105  0.1509  0.7466
   25MOL   O35515763   2.252   6.206   7.349  0.3833  0.5070  0.5040
   25MOL   C35615764   2.107   6.126   7.515  0.2592 -0.6413 -0.4632
   25MOL   C35715765   2.081   5.990   7.449  0.0779 -0.0091  0.4536
   25MOL   C35815766   1.949   5.926   7.492 -0.4469  0.8493 -0.0786
   25MOL   C35915767   1.899   5.803   7.422  0.1657  0.1646 -0.3711
   25MOL   C36015768   1.824   5.704   7.503  0.7006  0.7959  0.1002
   25MOL   O36115769   1.697   5.725   7.525 -0.0831 -0.3649  0.2327
   25MOL   N36215770   1.895   5.602   7.553  0.7209 -0.6111 -1.0812
   25MOL   C36315771   1.843   5.495   7.636 -0.6429  0.2747  0.4597
   25MOL   C36415772   1.851   5.541   0.088 -0.8604 -0.3160  0.3227
   25MOL   C36515773   1.767   5.469   0.190  0.8445  0.0051  0.2351
   25MOL   C36615774   1.620   5.493   0.170  0.1775 -0.0636 -0.4948
   25MOL   N36715775   1.539   5.406   0.250  0.5360  0.5013  0.2659
   25MOL   H36815776   2.103   6.114   7.623  1.1969 -0.4648 -0.4055
   25MOL   H36915777   2.028   6.200   7.497  1.9021  0.8691 -1.5879
   25MOL   H37015778   2.085   6.012   7.342  1.9097 -0.9653  0.3050
   25MOL   H37115779   2.167   5.925   7.466  0.7976  0.0926 -2.4682
   25MOL   H37215780   1.875   6.005   7.502  0.4475  1.5967  0.6129
   25MOL   H37315781   1.970   5.897   7.595 -0.6334  2.3973  0.3952
   25MOL   H37415782   1.996   5.760   7.395  0.0245  0.0098 -0.6297
   25MOL   H37515783   1.854   5.833   7.328 -0.1710  0.5371 -0.0917
   25MOL   H37615784   1.995   5.590   7.542  0.8819  1.0663 -1.4671
   25MOL   H37715785   1.905   5.406   7.630 -0.8649  0.2096 -1.0906
   25MOL   H37815786   1.744   5.470   7.598  0.2076 -0.4184 -1.3127
   25MOL   H37915787   1.955   5.535   0.121 -1.3892  0.9993  2.3153
   25MOL   H38015788   1.820   5.646   0.095  0.5342  0.3041 -2.2865
   25MOL   H38115789   1.797   5.494   0.292 -0.4935  0.8178  0.4283
   25MOL   H38215790   1.794   5.365   0.171 -0.1136 -0.7071  2.6636
   25MOL   H38315791   1.589   5.500   0.066  0.6014  1.4766 -0.5316
   25MOL   H38415792   1.614   5.587   0.225  1.8119  0.7728 -1.6870
   25MOL   H38515793   1.480   5.449   0.320 -0.8644 -3.1313  1.4043
   25MOL   C38615794   1.537   5.270   0.254  0.9204  0.5383  0.0566
   25MOL   O38715795   1.609   5.204   0.178 -0.0268  0.2122 -0.1108
   25MOL   C38815796   1.445   5.196   0.353  0.3613 -0.2552 -0.2889
   25MOL   C38915797   1.533   5.102   0.438 -0.1703  0.7323  0.2547
   25MOL   C39015798   1.455   5.001   0.521  0.1346  0.5217  0.3817
   25MOL   C39115799   1.371   5.062   0.635 -0.0664 -0.6370 -0.4622
   25MOL   C39215800   1.265   4.967   0.690  0.1448  0.5710  0.2965
   25MOL   O39315801   1.293   4.866   0.749 -0.3312 -0.3134 -0.5310
   25MOL   N39415802   1.132   5.002   0.687 -0.6697 -0.2419  0.4636
   25MOL   C39515803   1.025   4.945   0.765  0.4245 -0.2126 -0.6218
   25MOL   C39615804   0.915   5.054   0.806 -0.7105 -0.1852 -0.0433
   25MOL   C39715805   0.955   5.142   0.923 -0.5886 -0.0668 -0.1085
   25MOL   C39815806   0.868   5.266   0.937 -0.1492 -0.3957  0.0112
   25MOL   N39915807   0.873   5.328   1.066  0.5536  0.1951 -0.3621
   25MOL   H40015808   1.392   5.275   0.406 -0.0571 -2.2207  2.3479
   25MOL   H40115809   1.367   5.140   0.301 -0.3410  0.9587 -0.5584
   25MOL   H40215810   1.589   5.037   0.371 -1.5362 -1.0790  0.8256
   25MOL   H40315811   1.610   5.149   0.499  0.0073  1.1783 -0.3151
   25MOL   H40415812   1.533   4.937   0.562 -0.3286  0.4495  1.1689
   25MOL   H40515813   1.400   4.934   0.456  0.5753 -1.4780  2.0140
   25MOL   H40615814   1.318   5.149   0.598 -0.5187 -0.5378  0.4086
   25MOL   H40715815   1.438   5.101   0.713 -0.2873  0.6006 -0.8840
   25MOL   H40815816   1.107   5.079   0.627  2.1653 -0.9592 -1.7646
   25MOL   H40915817   1.050   4.869   0.839 -2.0942 -0.8255 -0.3441
   25MOL   H41015818   0.978   4.891   0.683  0.7564 -1.1936 -0.1792
   25MOL   H41115819   0.899   5.113   0.716  0.4498 -1.9380 -1.4392
   25MOL   H41215820   0.818   5.008   0.827 -0.5469  0.4718  2.1926
   25MOL   H41315821   1.063   5.160   0.920 -0.2153 -1.5032  2.8733
   25MOL   H41415822   0.936   5.083   1.012 -2.4606  4.1930  2.4582
   25MOL   H41515823   0.762   5.250   0.919 -0.3474 -0.3210  1.0609
   25MOL   H41615824   0.893   5.346   0.867 -0.8624  0.2722  0.5025
   25MOL   H41715825   0.947   5.299   1.129  0.7324 -0.3057 -0.8020
   25MOL   C41815826   0.778   5.405   1.123  0.2125  0.5566 -0.0131
   25MOL   O41915827   0.678   5.438   1.059  0.2147 -0.3599 -0.2432
   25MOL   C42015828   0.784   5.414   1.279 -0.1985 -0.3513 -0.5219
   25MOL   C42115829   0.681   5.322   1.340  0.0423 -0.1190 -0.3032
   25MOL   C42215830   0.534   5.360   1.330 -0.0474 -0.3042 -0.3441
   25MOL   C42315831   0.445   5.270   1.416 -0.3619 -0.0361 -0.3917
   25MOL   C42415832   0.298   5.311   1.393  0.4459  0.1002 -0.3602
   25MOL   O42515833   0.256   5.353   1.279 -0.1270 -0.0101  0.2655
   25MOL   N42615834   0.228   5.305   1.508  0.2552  0.3679  0.9676
   25MOL   C42715835   0.081   5.332   1.515  0.3603  0.6154 -0.2882
   25MOL   C42815836   0.018   5.218   1.599  0.6412 -0.1211  0.2647
   25MOL   C42915837   0.046   5.073   1.554 -0.1975  0.3294  0.5150
   25MOL   C43015838   0.035   4.962   1.665 -0.7752  0.0198  0.4187
   25MOL   N43115839   0.142   4.867   1.645  0.2667  0.5812  0.8441
   25MOL   H43215840   0.883   5.386   1.314 -0.4364 -1.7215 -0.9110
   25MOL   H43315841   0.760   5.517   1.304  0.3203 -0.5934  1.0054
   25MOL   H43415842   0.687   5.225   1.292 -1.4963  1.0568 -2.9955
   25MOL   H43515843   0.687   5.305   1.447 -0.8532  0.0018 -0.2315
   25MOL   H43615844   0.492   5.366   1.230 -1.6646 -2.4055  0.1718
   25MOL   H43715845   0.520   5.462   1.369 -0.2803 -0.2680 -0.5210
   25MOL   H43815846   0.464   5.279   1.523  0.8690 -0.9342 -0.5244
   25MOL   H43915847   0.454   5.166   1.383  0.7138 -0.8232  2.2488
   25MOL   H44015848   0.267   5.257   1.588  2.3058 -1.2801 -0.9787
   25MOL   H44115849   0.026   5.347   1.422 -0.4641 -1.8076 -0.2450
   25MOL   H44215850   0.079   5.423   1.574  2.8425 -0.0341  0.8825
   25MOL   H44315851   0.055   5.224   1.701  0.4145 -2.0576  0.4745
   25MOL   H44415852   7.612   5.234   1.606  0.5391  0.4926 -2.2158
   25MOL   H44515853   0.149   5.081   1.521 -0.6324  2.7610 -0.3149
   25MOL   H44615854   7.686   5.064   1.464  1.3354  0.8271 -0.5963
   25MOL   H44715855   7.638   4.915   1.666 -2.1055  2.7130  3.8684
   25MOL   H44815856   0.047   5.001   1.766  1.4710 -1.1111  0.6237
   25MOL   H44915857   0.211   4.883   1.574 -0.4884  0.0834 -0.0121
   25MOL   C45015858   0.152   4.761   1.726 -0.0188  0.5109  0.2718
   25MOL   O45115859   0.080   4.734   1.824  0.0797 -0.3186 -0.4766
   25MOL   C45215860   0.261   4.666   1.680  0.1772 -0.1916 -1.0685
   25MOL   C45315861   0.221   4.517   1.689  0.5762  0.5559 -0.0499
   25MOL   C45415862   0.124   4.474   1.581  0.6418  0.3429 -0.5396
   25MOL   C45515863   0.189   4.448   1.446 -0.4217 -0.6549 -0.6583
   25MOL   C45615864   0.089   4.396   1.341  0.0251  0.3660  0.1474
   25MOL   O45715865   7.695   4.329   1.382 -0.0493  0.3705  0.5479
   25MOL   N45815866   0.104   4.436   1.212  0.0660 -0.6476  0.3428
   25MOL   C45915867   0.003   4.410   1.113 -0.4350  0.4637  0.3608
   25MOL   C46015868   0.036   4.465   0.978  0.2092 -0.0994  0.5712
   25MOL   C46115869   7.628   4.438   0.876 -0.1527  0.2520 -0.2882
   25MOL   C46215870   7.658   4.518   0.741  0.5518 -0.5804  0.1332
   25MOL   N46315871   7.590   4.459   0.633 -0.3971  0.2941  0.3711
   25MOL   H46415872   0.289   4.687   1.577  1.8807 -1.7502 -0.9480
   25MOL   H46515873   0.354   4.682   1.736 -1.0629 -0.8362  1.2528
   25MOL   H46615874   0.303   4.445   1.690  0.4539  0.4171  0.5384
   25MOL   H46715875   0.173   4.500   1.786 -1.8676  0.5563 -1.2316
   25MOL   H46815876   0.050   4.552   1.567 -0.9057 -0.8042  1.0205
   25MOL   H46915877   0.061   4.393   1.619  1.6401  0.4580  1.4355
   25MOL   H47015878   0.269   4.375   1.449 -0.8504 -1.0772  0.9545
   25MOL   H47115879   0.234   4.544   1.422 -3.7228  1.4652  1.1672
   25MOL   H47215880   0.186   4.493   1.193  0.0365 -0.8626 -0.4433
   25MOL   H47315881   7.610   4.451   1.149  0.5607  2.0237  1.2925
   25MOL   H47415882   7.691   4.302   1.107 -0.4331  0.5083 -0.4824
   25MOL   H47515883   0.060   4.571   0.986  0.1537 -0.1687  1.7851
   25MOL   H47615884   0.123   4.423   0.928 -0.3908  0.9072 -1.3710
   25MOL   H47715885   7.533   4.483   0.906 -0.0823  0.7981 -0.8880
   25MOL   H47815886   7.630   4.330   0.859 -2.7447  0.3994 -1.8579
   25MOL   H47915887   0.063   4.523   0.716  0.0797 -0.2776 -1.8375
   25MOL   H48015888   7.636   4.624   0.752  2.8703  0.0002 -0.4722
   25MOL   H48115889   7.648   4.426   0.557  0.5936  0.2343  1.1437
   25MOL   C48215890   7.457   4.445   0.623  0.6215 -0.4143 -0.5193
   25MOL   O48315891   7.377   4.506   0.695 -0.7845  0.2833 -0.0820
   25MOL   C48415892   7.413   4.354   0.508 -0.1605  0.7901 -0.0020
   25MOL   C48515893   7.268   4.289   0.524  0.3888 -0.0987 -0.2187
   25MOL   C48615894   7.246   4.205   0.656  0.3026 -0.2522  0.6340
   25MOL   C48715895   7.107   4.128   0.657  0.1519 -0.1806  0.4374
   25MOL   C48815896   7.086   4.020   0.556  0.0722 -1.0078  0.3425
   25MOL   O48915897   7.172   4.001   0.472  0.0574  0.2891  0.0487
   25MOL   N49015898   6.971   3.949   0.561 -0.3882 -0.9666 -0.1661
   25MOL   C49115899   6.935   3.828   0.491  1.0629  0.5638 -0.3012
   25MOL   C49215900   6.791   3.786   0.527 -0.2310  0.3821  0.4281
   25MOL   C49315901   6.737   3.691   0.416 -0.7329 -1.0187  0.1149
   25MOL   C49415902   6.796   3.549   0.417  0.6502  0.2754  0.4432
   25MOL   N49515903   6.760   3.484   0.549 -0.3144 -0.6027  0.7893
   25MOL   H49615904   7.414   4.423   0.423 -0.7054  0.5415 -0.2107
   25MOL   H49715905   7.491   4.281   0.488  0.0038  0.7332  0.8197
   25MOL   H49815906   7.189   4.364   0.513  1.6671  0.9176 -2.9694
   25MOL   H49915907   7.254   4.229   0.435 -0.4028  2.1801 -1.6812
   25MOL   H50015908   7.248   4.273   0.740 -2.4379 -1.1526  1.4812
   25MOL   H50115909   7.318   4.124   0.667 -0.7734 -1.0328  2.0752
   25MOL   H50215910   7.019   4.191   0.658  0.3310  0.0632  0.7029
   25MOL   H50315911   7.086   4.074   0.749  2.5379 -0.6732  0.7330
   25MOL   H50415912   6.912   3.961   0.641 -2.5311 -1.8490 -1.5747
   25MOL   H50515913   7.007   3.749   0.511 -0.6868 -0.8757  0.5132
   25MOL   H50615914   6.936   3.852   0.385  2.4889 -0.2462 -0.4750
   25MOL   H50715915   6.795   3.730   0.620 -1.5992  1.1372  0.9621
   25MOL   H50815916   6.719   3.869   0.534 -1.2540 -0.4186 -0.4421
   25MOL   H50915917   6.748   3.735   0.317  0.2665 -0.4820  0.4607
   25MOL   H51015918   6.630   3.684   0.436 -0.7763  0.9539  0.6918
   25MOL   H51115919   6.905   3.559   0.410  0.7887  0.3946  2.4024
   25MOL   H51215920   6.756   3.500   0.329  0.5026 -0.3005  0.8320
   25MOL   H51315921   6.660   3.484   0.566 -0.7804  0.2459 -1.6265
   25MOL   C51415922   6.838   3.441   0.645  0.0344 -0.8887 -0.1769
   25MOL   O51515923   6.961   3.446   0.635  0.1827 -0.3076 -0.9244
   25MOL   C51615924   6.779   3.381   0.764  0.5204 -0.5058 -0.2045
   25MOL   C51715925   6.808   3.449   0.902 -0.9517  0.8804  0.4964
   25MOL   C51815926   6.930   3.384   0.971  0.2355  0.0373  0.6984
   25MOL   C51915927   6.955   3.436   1.110 -0.2836 -0.1401 -0.3646
   25MOL   C52015928   6.845   3.409   1.210 -0.5040  0.3314  1.1163
   25MOL   O52115929   6.813   3.297   1.238 -0.1913 -0.2880 -0.1567
   25MOL   N52215930   6.778   3.519   1.246  0.4350  0.3329  0.0459
   25MOL   C52315931   6.648   3.522   1.314 -0.3494 -0.1187  0.4551
   25MOL   C52415932   6.651   3.632   1.423  0.6558 -0.0708 -0.3464
   25MOL   C52515933   6.522   3.638   1.513  0.2355  0.6181  0.3126
   25MOL   C52615934   6.560   3.674   1.652  0.0273  0.3638  0.2791
   25MOL   N52715935   6.441   3.689   1.730 -0.1324 -0.3059 -0.5838
   25MOL   H52815936   6.671   3.374   0.748  0.5972 -2.2922  0.0065
   25MOL   H52915937   6.824   3.282   0.769  1.2155 -0.1453  0.6763
   25MOL   H53015938   6.828   3.555   0.892 -0.8510  0.7533 -0.7782
   25MOL   H53115939   6.722   3.436   0.968 -0.8262 -1.7693  0.2170
   25MOL   H53215940   7.026   3.397   0.921  2.1322 -4.2300  2.9584
   25MOL   H53315941   6.909   3.277   0.970  0.2000  0.0297 -1.9562
   25MOL   H53415942   6.980   3.541   1.094  1.2343 -0.4078  0.1225
   25MOL   H53515943   7.043   3.390   1.155 -1.1805  0.4634  2.0937
   25MOL   H53615944   6.809   3.613   1.226  1.1045 -0.1389 -1.1560
   25MOL   H53715945   6.616   3.426   1.356 -0.1332 -0.5301 -0.3003
   25MOL   H53815946   6.572   3.539   1.237 -0.2332 -1.6207 -0.0055
   25MOL   H53915947   6.735   3.617   1.490  2.4111  2.4751 -1.8878
   25MOL   H54015948   6.674   3.731   1.384  0.1126  0.0494 -0.3731
   25MOL   H54115949   6.477   3.539   1.520  1.8906 -0.0445  1.6890
   25MOL   H54215950   6.442   3.699   1.470 -1.3996 -0.2997  1.9608
   25MOL   H54315951   6.620   3.765   1.657  3.0494 -1.4646 -0.9583
   25MOL   H54415952   6.607   3.586   1.697  1.2260 -0.0394 -1.6664
   25MOL   H54515953   6.358   3.726   1.688 -0.9509 -0.6859  0.6626
   25MOL   C54615954   6.414   3.655   1.856 -0.1894  0.1316 -0.8630
   25MOL   O54715955   6.490   3.594   1.933 -0.4097  0.1095 -0.2354
   25MOL   C54815956   6.278   3.703   1.912  0.1663  0.7663  0.0825
   25MOL   C54915957   6.287   3.769   2.048 -0.1599 -0.0693  0.2466
   25MOL   C55015958   6.363   3.901   2.040 -0.1252  0.3104 -0.4431
   25MOL   C55115959   6.277   4.015   1.970  0.7400  0.5467 -0.5592
   25MOL   C55215960   6.340   4.155   1.984  0.5302  0.6257  0.2061
   25MOL   O55315961   6.375   4.209   2.089 -0.5361  0.0639 -0.8591
   25MOL   N55415962   6.350   4.228   1.870  0.1046 -0.1993 -0.2341
   25MOL   C55515963   6.387   4.368   1.853  0.8284 -0.5975 -0.1643
   25MOL   C55615964   6.322   4.433   1.729 -0.4693 -0.1235  0.4684
   25MOL   C55715965   6.372   4.581   1.722 -0.0832  0.0550  0.1352
   25MOL   C55815966   6.286   4.662   1.621 -0.0451 -0.6391  0.3755
   25MOL   N55915967   6.153   4.682   1.679  0.0852 -0.5624 -0.0499
   25MOL   H56015968   6.217   3.765   1.847 -1.0427 -1.8745 -1.3930
   25MOL   H56115969   6.218   3.614   1.933 -1.6118  0.8537 -4.2434
   25MOL   H56215970   6.189   3.800   2.083 -0.1706 -0.9876  1.0585
   25MOL   H56315971   6.329   3.705   2.126 -0.6881  1.8187  2.1138
   25MOL   H56415972   6.462   3.900   1.993  0.7615 -0.1507  1.3876
   25MOL   H56515973   6.372   3.926   2.146 -0.7567 -0.1824 -0.2729
   25MOL   H56615974   6.173   4.018   1.999 -0.3723 -0.5269 -4.1592
   25MOL   H56715975   6.273   3.989   1.864  0.9509  0.3444 -0.5178
   25MOL   H56815976   6.303   4.180   1.795  0.7997 -1.8765  0.3883
   25MOL   H56915977   6.495   4.364   1.837  0.8278 -0.2997 -0.2527
   25MOL   H57015978   6.354   4.423   1.941 -0.3794  1.5950 -1.9382
   25MOL   H57115979   6.352   4.392   1.633 -1.5188 -1.5172  0.7146
   25MOL   H57215980   6.215   4.426   1.749 -0.4198  0.0136  0.7868
   25MOL   H57315981   6.472   4.559   1.684 -0.0218  0.9922 -0.2533
   25MOL   H57415982   6.372   4.628   1.821  4.5792  0.0324  0.2360
   25MOL   H57515983   6.269   4.606   1.529 -0.6759 -3.4748  2.1749
   25MOL   H57615984   6.340   4.754   1.596 -0.7213  0.3615  2.4956
   25MOL   H57715985   6.155   4.756   1.748 -1.7538 -1.6341  1.2081
   25MOL   C57815986   6.042   4.631   1.645  0.0886  0.6856  0.2894
   25MOL   O57915987   6.028   4.562   1.542  0.2020 -0.4378 -0.2003
   25MOL   C58015988   5.916   4.678   1.723  0.1749  0.4197 -0.0814
   25MOL   C58115989   5.780   4.692   1.650 -0.1814 -0.0553 -0.0497
   25MOL   C58215990   5.691   4.765   1.747  0.7565  0.0387 -0.6786
   25MOL   C58315991   5.559   4.803   1.677  0.1019  0.0505  0.3762
   25MOL   C58415992   5.578   4.924   1.577 -0.4252  0.0968  0.4511
   25MOL   O58515993   5.641   5.020   1.620 -0.0993 -0.2688  0.1287
   25MOL   N58615994   5.529   4.920   1.452 -0.0108  0.3972  0.4847
   25MOL   C58715995   5.547   5.020   1.349  0.1525 -0.3275  0.2610
   25MOL   C58815996   5.694   5.046   1.317 -0.0052 -0.2272  0.0185
   25MOL   C58915997   5.705   5.143   1.196  0.3483 -0.0067 -0.1517
   25MOL   C59015998   5.853   5.174   1.166  0.9049  0.1712  0.6696
   25MOL   N59115999   5.861   5.259   1.055  0.2179  0.5338  0.2508
   25MOL   H59216000   5.899   4.622   1.815  0.8850 -0.3936 -0.4352
   25MOL   H59316001   5.932   4.780   1.758 -0.3544  1.0020 -1.5150
   25MOL   H59416002   5.807   4.752   1.563  1.3088  0.4564  0.7500
   25MOL   H59516003   5.743   4.591   1.629 -0.8116  0.1121  0.2452
   25MOL   H59616004   5.737   4.855   1.787 -1.1202  0.4008  0.7088
   25MOL   H59716005   5.670   4.706   1.836 -0.3077 -1.2352 -1.7402
   25MOL   H59816006   5.490   4.842   1.752 -0.5090  1.5509 -0.9512
   25MOL   H59916007   5.508   4.719   1.629  1.0265 -0.3171  0.0234
   25MOL   H60016008   5.461   4.851   1.422 -0.7304  1.0577  0.5593
   25MOL   H60116009   5.488   5.108   1.372 -0.6536 -0.9444  0.5503
   25MOL   H60216010   5.509   4.971   1.260  1.3001  0.4704 -0.6852
   25MOL   H60316011   5.738   5.094   1.405 -3.3972  2.2978  0.4583
   25MOL   H60416012   5.751   4.954   1.305 -0.9067 -0.7995  0.0918
   25MOL   H60516013   5.643   5.232   1.212  1.5887  0.5349  1.7831
   25MOL   H60616014   5.651   5.105   1.109  1.3132 -1.3073 -0.1953
   25MOL   H60716015   5.903   5.081   1.140 -0.9559 -0.6104 -0.2029
   25MOL   H60816016   5.895   5.222   1.254  1.0669  0.6467  0.3336
   25MOL   H60916017   5.773   5.281   1.011  1.1663  1.2676 -1.3213
   25MOL   C61016018   5.972   5.317   1.015 -0.7137 -1.3288  0.1604
   25MOL   O61116019   6.073   5.301   1.081  0.2567  0.4297 -0.1912
   25MOL   C61216020   5.965   5.407   0.880 -0.2265  0.5935  0.0150
   25MOL   C61316021   6.099   5.406   0.799  0.1383 -0.3037  0.3531
   25MOL   C61416022   6.155   5.271   0.737  0.9308  0.3899  0.1502
   25MOL   C61516023   6.081   5.238   0.607  0.0854 -0.6102 -0.4451
   25MOL   C61616024   6.112   5.099   0.558 -0.0465  0.4699 -1.6076
   25MOL   O61716025   6.185   5.024   0.618  0.1155 -0.1384  0.0746
   25MOL   N61816026   6.036   5.054   0.458  0.3565  0.1829 -0.2249
   25MOL   C61916027   6.058   4.920   0.406  0.7782 -0.2288  0.4415
   25MOL   C62016028   5.968   4.886   0.287 -1.2174 -0.1306  0.2414
   25MOL   C62116029   5.997   4.749   0.229  0.3116  0.5032 -0.2344
   25MOL   C62216030   5.930   4.725   0.094  0.1176  0.3249 -0.6334
   25MOL   N62316031   5.985   4.600   0.042  0.5970 -0.2214  0.3099
   25MOL   H62416032   5.872   5.388   0.827 -2.0219 -1.7140  3.7379
   25MOL   H62516033   5.950   5.509   0.917 -0.3116  0.9316 -0.9489
   25MOL   H62616034   6.087   5.473   0.714  0.2936 -0.4835  0.1876
   25MOL   H62716035   6.178   5.440   0.866  1.2868 -1.1014 -0.5756
   25MOL   H62816036   6.153   5.191   0.811  0.9221 -0.7363 -1.0535
   25MOL   H62916037   6.260   5.273   0.707  0.7392  1.4616 -0.4886
   25MOL   H63016038   6.108   5.305   0.525 -1.0367  0.4118 -0.0077
   25MOL   H63116039   5.975   5.260   0.625  0.1842 -0.4748 -0.0190
   25MOL   H63216040   5.983   5.120   0.402 -0.6597 -0.2103  0.2683
   25MOL   H63316041   6.039   4.837   0.473  0.4708 -1.3951 -1.0516
   25MOL   H63416042   6.163   4.910   0.381  0.9648 -0.8066  1.4730
   25MOL   H63516043   5.861   4.884   0.309 -1.0348 -0.8192  1.0941
   25MOL   H63616044   5.985   4.959   0.208 -0.1795 -0.5425  0.0862
   25MOL   H63716045   5.983   4.663   0.295 -0.1054 -0.5767 -1.6992
   25MOL   H63816046   6.102   4.756   0.203  0.8003  0.0916  1.5498
   25MOL   H63916047   5.925   4.818   0.037 -2.2579  0.9579  0.5009
   25MOL   H64016048   5.823   4.706   0.105  0.1397 -0.0831 -1.0968
   25MOL   H64116049   5.951   4.591   7.649 -0.7473  0.4047  0.7183
   25MOL   H64216050   5.939   4.524   0.090  1.5726 -0.8689  0.2394
   26MOL     C116051   1.654   2.755   0.900  0.3704  0.3469 -0.6451
   26MOL     O216052   1.747   2.795   0.830  0.1019  0.3925  0.6031
   26MOL     C316053   1.517   2.722   0.843 -0.4854 -0.5707 -0.2786
   26MOL     C416054   1.464   2.827   0.738 -0.8667 -0.6216 -0.3607
   26MOL     C516055   1.452   2.976   0.788 -0.4395 -0.1828 -0.0630
   26MOL     C616056   1.394   3.065   0.674 -0.2200  0.2129 -0.4315
   26MOL     C716057   1.355   3.210   0.708  0.3555 -0.0401 -0.2581
   26MOL     O816058   1.438   3.286   0.762  0.0103 -0.4401 -0.0923
   26MOL     N916059   1.229   3.248   0.672  0.2405  0.5551 -0.5803
   26MOL    C1016060   1.166   3.376   0.700 -0.2286  0.5811 -0.2101
   26MOL    C1116061   1.037   3.351   0.780  0.8126 -0.0628  0.6429
   26MOL    C1216062   0.982   3.475   0.842 -0.4736 -0.1008  0.1498
   26MOL    C1316063   0.853   3.456   0.909  0.0000 -0.0528  0.7098
   26MOL    N1416064   0.791   3.579   0.958 -0.1456 -0.0223 -1.1130
   26MOL    H1516065   1.526   2.622   0.799 -1.0119 -0.5497 -0.4460
   26MOL    H1616066   1.456   2.726   0.933 -0.3561  1.6668 -0.2727
   26MOL    H1716067   1.522   2.823   0.646 -0.4003  0.4522 -0.1204
   26MOL    H1816068   1.367   2.788   0.710 -0.2108 -1.6877 -1.1632
   26MOL    H1916069   1.552   3.019   0.799 -0.1085 -0.7358 -0.8573
   26MOL    H2016070   1.407   2.978   0.887 -3.4593  0.1841 -1.4036
   26MOL    H2116071   1.297   3.027   0.641 -0.6201  0.0119  0.9701
   26MOL    H2216072   1.459   3.062   0.586 -2.1081 -1.7576 -1.8324
   26MOL    H2316073   1.169   3.168   0.656 -0.9162  0.9069  1.6271
   26MOL    H2416074   1.148   3.424   0.604 -0.1622  2.3456  0.6506
   26MOL    H2516075   1.235   3.436   0.759 -1.3161  1.4520  0.1975
   26MOL    H2616076   0.960   3.305   0.718 -1.6412  0.8691  2.9230
   26MOL    H2716077   1.041   3.279   0.862 -1.6195 -0.8377  0.1258
   26MOL    H2816078   0.973   3.552   0.766 -4.8364 -0.3690  0.2997
   26MOL    H2916079   1.057   3.516   0.910 -2.1454  1.6507  0.9731
   26MOL    H3016080   0.864   3.382   0.988  1.6348  1.4015  1.8905
   26MOL    H3116081   0.783   3.405   0.843  1.1417 -0.7026 -0.0107
   26MOL    H3216082   0.700   3.597   0.919 -0.2814 -0.4456 -0.9847
   26MOL    H3316083   1.665   2.729   1.005 -0.3486 -0.6759 -0.8100
   26MOL    C3416084   0.833   3.645   1.067  0.8702 -0.7486 -0.0986
   26MOL    O3516085   0.940   3.620   1.117 -0.6278 -0.2468  0.0539
   26MOL    C3616086   0.739   3.753   1.120  0.5237  0.3846 -0.7951
   26MOL    C3716087   0.705   3.729   1.275 -0.4899  0.2988  0.0843
   26MOL    C3816088   0.617   3.609   1.294 -0.5714 -0.2821 -0.0943
   26MOL    C3916089   0.520   3.595   1.417  0.1685 -0.1598 -0.3443
   26MOL    C4016090   0.575   3.600   1.555 -0.8236  0.0628 -0.6912
   26MOL    O4116091   0.697   3.613   1.574 -0.3935  0.1442 -0.5861
   26MOL    N4216092   0.487   3.598   1.652 -0.2949  0.1486 -0.1199
   26MOL    C4316093   0.515   3.620   1.792 -0.9885 -0.4041 -0.3087
   26MOL    C4416094   0.526   3.769   1.840 -0.0635  0.3654 -0.2646
   26MOL    C4516095   0.541   3.792   1.993 -0.3444 -0.4073 -0.7824
   26MOL    C4616096   0.501   3.938   2.038 -0.3136 -0.6550 -0.1844
   26MOL    N4716097   0.487   3.946   2.185 -0.0449 -0.2469  0.0577
   26MOL    H4816098   0.781   3.847   1.084 -2.0462  1.6757 -0.5908
   26MOL    H4916099   0.643   3.748   1.068 -0.2235  0.5721  0.5245
   26MOL    H5016100   0.801   3.711   1.323 -0.7634 -1.1357  0.1064
   26MOL    H5116101   0.653   3.815   1.317  1.6299  1.0848  1.1817
   26MOL    H5216102   0.693   3.531   1.302 -1.2714 -0.7833  1.8860
   26MOL    H5316103   0.561   3.601   1.201 -3.0034  1.9211  1.1360
   26MOL    H5416104   0.469   3.498   1.414 -1.9231  0.9272 -0.8454
   26MOL    H5516105   0.443   3.672   1.421 -0.5923 -0.9476  0.4338
   26MOL    H5616106   0.388   3.589   1.634 -0.4205 -0.5447  0.8872
   26MOL    H5716107   0.596   3.556   1.827 -1.7092 -1.4035 -0.4205
   26MOL    H5816108   0.427   3.578   1.840  0.6387 -2.1236  1.2486
   26MOL    H5916109   0.620   3.809   1.801  0.8853 -0.4673  1.0850
   26MOL    H6016110   0.452   3.841   1.808  1.7415  1.4263 -2.1852
   26MOL    H6116111   0.642   3.756   2.013 -0.2846  0.4417  0.4449
   26MOL    H6216112   0.471   3.722   2.038  0.6407 -0.0932  1.2714
   26MOL    H6316113   0.406   3.968   1.992  0.2474  0.0470 -0.9013
   26MOL    H6416114   0.573   4.008   1.995 -1.5097  0.4589 -0.4040
   26MOL    H6516115   0.575   3.972   2.227  0.2005 -0.0498 -0.5725
   26MOL    C6616116   0.387   3.928   2.265  0.0177 -0.2558 -0.2329
   26MOL    O6716117   0.277   3.908   2.227 -0.1214 -0.7491  0.4177
   26MOL    C6816118   0.414   3.940   2.415  0.4739  0.5362 -0.4001
   26MOL    C6916119   0.436   3.797   2.476  0.2940  0.4179  0.2419
   26MOL    C7016120   0.573   3.741   2.481 -0.4513  0.2283  0.3209
   26MOL    C7116121   0.623   3.669   2.354 -0.1837  0.7456 -0.3906
   26MOL    C7216122   0.762   3.617   2.361 -0.8324 -0.0752 -0.4165
   26MOL    O7316123   0.854   3.687   2.399  0.0704 -0.1598  0.0241
   26MOL    N7416124   0.782   3.487   2.341  0.4041 -0.1990 -0.5498
   26MOL    C7516125   0.914   3.419   2.337  0.4838 -0.0731 -0.1207
   26MOL    C7616126   1.005   3.451   2.209 -0.4313  0.3163 -0.5242
   26MOL    C7716127   1.144   3.372   2.209  0.1053 -0.2647  0.2074
   26MOL    C7816128   1.243   3.424   2.096  0.4465 -0.1795  0.1846
   26MOL    N7916129   1.359   3.335   2.078 -0.0497  0.2473 -0.0382
   26MOL    H8016130   0.504   3.998   2.432  1.0635 -0.7114  0.8332
   26MOL    H8116131   0.320   3.977   2.456  0.5854  0.4976 -0.1071
   26MOL    H8216132   0.399   3.801   2.578 -0.1647 -3.3286  0.2889
   26MOL    H8316133   0.365   3.733   2.424 -1.7502  2.3519  0.5486
   26MOL    H8416134   0.570   3.682   2.572 -1.1379 -1.3261 -0.6900
   26MOL    H8516135   0.639   3.825   2.502 -0.3207  0.5737 -1.3709
   26MOL    H8616136   0.643   3.752   2.286  0.6935  1.4981  0.7613
   26MOL    H8716137   0.551   3.599   2.312 -1.6550  1.2668  1.2112
   26MOL    H8816138   0.705   3.425   2.359  0.1830 -0.5824 -2.6564
   26MOL    H8916139   0.885   3.314   2.333 -0.3857  0.1706 -0.3692
   26MOL    H9016140   0.970   3.437   2.428  0.0837 -0.7157  0.2590
   26MOL    H9116141   0.956   3.434   2.114 -2.5506 -1.0989  0.7795
   26MOL    H9216142   1.032   3.557   2.214  0.6745  0.0641 -1.0219
   26MOL    H9316143   1.124   3.266   2.194 -2.6955  0.3432 -0.7432
   26MOL    H9416144   1.192   3.379   2.307  1.4945 -0.6259 -0.4382
   26MOL    H9516145   1.272   3.524   2.128 -1.6797  0.2958  0.6681
   26MOL    H9616146   1.188   3.439   2.004 -0.6801  1.3362  1.0784
   26MOL    H9716147   1.364   3.282   1.992 -1.3843  1.7696 -1.0750
   26MOL    C9816148   1.468   3.331   2.157 -0.6854 -0.1008  0.0523
   26MOL    O9916149   1.490   3.389   2.261  0.0969  0.5705 -0.2822
   26MOL   C10016150   1.586   3.252   2.111 -0.0548 -0.2494 -0.2592
   26MOL   C10116151   1.723   3.264   2.184 -0.1384 -0.8300 -0.0137
   26MOL   C10216152   1.825   3.164   2.157 -0.2476  0.1517  0.3729
   26MOL   C10316153   1.881   3.147   2.012 -0.4826 -0.3115 -0.0718
   26MOL   C10416154   1.779   3.065   1.925 -0.8380  0.1964 -0.3201
   26MOL   O10516155   1.731   2.962   1.979 -0.6691  0.4321  0.1705
   26MOL   N10616156   1.770   3.104   1.801  0.1149  0.2240 -0.3033
   26MOL   C10716157   1.655   3.059   1.716 -0.4555 -0.3409  0.5198
   26MOL   C10816158   1.596   3.174   1.634  0.3468  0.3943  0.5404
   26MOL   C10916159   1.538   3.296   1.719 -0.7704  0.1334 -0.0613
   26MOL   C11016160   1.448   3.394   1.641  0.6949 -0.0793  0.0406
   26MOL   N11116161   1.405   3.504   1.729 -0.0957  0.3495  0.0955
   26MOL   H11216162   1.550   3.149   2.119 -1.0493  0.0285 -0.9859
   26MOL   H11316163   1.605   3.272   2.006  1.1015  0.1288  0.0163
   26MOL   H11416164   1.764   3.363   2.160  0.5288 -1.4462 -1.4580
   26MOL   H11516165   1.719   3.268   2.293  1.2552  0.3913  0.0241
   26MOL   H11616166   1.771   3.079   2.199  0.3623 -0.5895 -0.3488
   26MOL   H11716167   1.900   3.192   2.231  1.0509  0.7053 -1.1310
   26MOL   H11816168   1.971   3.086   2.022  1.2741  2.0675 -0.9600
   26MOL   H11916169   1.917   3.238   1.966  1.0781 -2.1959 -2.7062
   26MOL   H12016170   1.833   3.175   1.768 -0.0172  1.7013  2.4694
   26MOL   H12116171   1.577   3.019   1.780 -0.1055  0.5110  1.4834
   26MOL   H12216172   1.696   2.989   1.643  3.9346  3.0490 -0.5225
   26MOL   H12316173   1.671   3.217   1.567  0.3161  1.2564  1.0551
   26MOL   H12416174   1.527   3.128   1.564  0.6203  1.5973 -0.5429
   26MOL   H12516175   1.625   3.349   1.757 -0.7236  0.0464 -0.0475
   26MOL   H12616176   1.478   3.258   1.802 -0.8207  0.4888  0.0639
   26MOL   H12716177   1.366   3.344   1.591  0.6086  0.5858 -0.4898
   26MOL   H12816178   1.504   3.441   1.560  2.0600 -1.2343  0.2845
   26MOL   H12916179   1.310   3.494   1.762  0.3949 -0.7727  1.1817
   26MOL   C13016180   1.469   3.618   1.758 -0.1724  0.5582 -0.2202
   26MOL   O13116181   1.570   3.655   1.704 -0.2683  0.0292 -0.0479
   26MOL   C13216182   1.396   3.712   1.853  0.0337 -0.1117 -0.4422
   26MOL   C13316183   1.469   3.830   1.923  0.4324 -0.0388 -0.4315
   26MOL   C13416184   1.600   3.785   2.002  0.4352 -0.1527  1.0029
   26MOL   C13516185   1.574   3.701   2.126 -0.0264 -0.4156  0.0546
   26MOL   C13616186   1.492   3.766   2.241 -0.1289  0.5973  0.0636
   26MOL   O13716187   1.505   3.887   2.267  0.2216 -0.3098  0.0810
   26MOL   N13816188   1.399   3.695   2.308 -0.3692 -0.0525 -0.0523
   26MOL   C13916189   1.331   3.731   2.431 -0.1840 -0.3666  0.0628
   26MOL   C14016190   1.223   3.829   2.393  0.6789  0.0595 -0.8691
   26MOL   C14116191   1.140   3.863   2.519 -0.0170  0.5603 -0.3624
   26MOL   C14216192   1.051   3.988   2.513  0.1044  0.0289  0.0501
   26MOL   N14316193   0.924   3.954   2.443 -0.1141  0.2890  0.4002
   26MOL   H14416194   1.311   3.753   1.799  0.3884  0.7741 -0.3284
   26MOL   H14516195   1.359   3.645   1.932 -0.4658  1.2199  0.4737
   26MOL   H14616196   1.513   3.890   1.843  2.5140  0.4790  1.0842
   26MOL   H14716197   1.411   3.900   1.982  1.3665  0.8920 -0.6102
   26MOL   H14816198   1.662   3.870   2.028  0.0571  0.7414 -0.9019
   26MOL   H14916199   1.662   3.735   1.927 -0.6038 -1.3636  0.9381
   26MOL   H15016200   1.671   3.666   2.162  0.6213  1.1898 -0.0873
   26MOL   H15116201   1.517   3.617   2.087 -0.4846 -0.2045  0.2733
   26MOL   H15216202   1.379   3.599   2.283  1.2791 -0.5065  0.3508
   26MOL   H15316203   1.401   3.777   2.500 -0.5564  0.5423 -0.1593
   26MOL   H15416204   1.273   3.646   2.466 -0.2076  0.5272  2.2646
   26MOL   H15516205   1.259   3.924   2.353 -2.3557  0.3569 -3.0571
   26MOL   H15616206   1.157   3.792   2.315  2.4972  0.6429 -2.7480
   26MOL   H15716207   1.207   3.874   2.604 -0.2991 -2.5594  0.3397
   26MOL   H15816208   1.069   3.781   2.534 -0.6182  1.0787 -0.3306
   26MOL   H15916209   1.100   4.059   2.447  1.2250  0.0144  0.8630
   26MOL   H16016210   1.040   4.036   2.609 -1.8355 -2.7964  1.3202
   26MOL   H16116211   0.901   3.859   2.416  0.0990  0.4308 -0.2654
   26MOL   C16216212   0.828   4.038   2.400  0.5123  0.0428  0.2867
   26MOL   O16316213   0.732   4.008   2.338  0.3644  0.1446 -0.9044
   26MOL   C16416214   0.837   4.187   2.439  0.6766 -0.3343 -0.2122
   26MOL   C16516215   0.810   4.217   2.585 -0.4348 -0.3121  0.0094
   26MOL   C16616216   0.674   4.165   2.635 -0.4750 -0.0077 -0.3723
   26MOL   C16716217   0.652   4.206   2.779 -0.6458  0.0312  0.2582
   26MOL   C16816218   0.731   4.129   2.887  0.1531 -0.2070 -0.2874
   26MOL   O16916219   0.773   4.017   2.867  0.1415 -0.4306  0.2001
   26MOL   N17016220   0.748   4.180   3.010 -0.0202  0.1362 -0.2335
   26MOL   C17116221   0.816   4.115   3.127  0.7204 -0.2444  0.5243
   26MOL   C17216222   0.719   4.105   3.253 -0.1527  0.0900 -0.5968
   26MOL   C17316223   0.600   4.012   3.215 -0.2084  0.1861  0.0103
   26MOL   C17416224   0.516   3.973   3.334  0.0150  0.2336  0.0291
   26MOL   N17516225   0.422   3.857   3.306  0.5040  0.4108 -0.7915
   26MOL   H17616226   0.942   4.212   2.428  0.2895  0.7093 -1.6693
   26MOL   H17716227   0.767   4.246   2.379 -0.0400  1.3956  2.2561
   26MOL   H17816228   0.901   4.196   2.641  1.0767 -1.5676 -2.7847
   26MOL   H17916229   0.805   4.325   2.594 -1.5811 -0.4235  0.8496
   26MOL   H18016230   0.679   4.057   2.632  0.1557  0.0260 -0.7402
   26MOL   H18116231   0.591   4.194   2.571 -1.1052  2.0041  1.2890
   26MOL   H18216232   0.547   4.186   2.798 -0.9946  0.8993 -0.6770
   26MOL   H18316233   0.660   4.314   2.792  0.3414  0.3128 -2.3015
   26MOL   H18416234   0.710   4.273   3.022 -0.8110 -0.3070  0.7309
   26MOL   H18516235   0.909   4.161   3.159  0.5316  0.0374  0.6705
   26MOL   H18616236   0.850   4.014   3.104  0.9245  0.3239 -1.8129
   26MOL   H18716237   0.778   4.066   3.335 -2.1221  0.8449  1.2166
   26MOL   H18816238   0.682   4.205   3.274  1.1793  0.1834  1.3793
   26MOL   H18916239   0.646   3.928   3.164 -1.1039 -0.0868 -0.3484
   26MOL   H19016240   0.539   4.067   3.143 -1.1415  2.1068  2.1973
   26MOL   H19116241   0.475   4.058   3.388  0.3743 -0.5433  1.5689
   26MOL   H19216242   0.582   3.930   3.409 -0.4718  0.5387  0.6322
   26MOL   H19316243   0.451   3.781   3.246  0.6018 -0.6643  0.5961
   26MOL   C19416244   0.300   3.841   3.356 -0.3691 -0.3542 -0.1306
   26MOL   O19516245   0.242   3.919   3.421  0.7936  0.1785  0.5876
   26MOL   C19616246   0.229   3.708   3.334 -0.6575 -0.6046 -0.1041
   26MOL   C19716247   0.179   3.647   3.463 -0.0707  0.3352 -0.2478
   26MOL   C19816248   0.025   3.636   3.488 -0.3855 -0.1294  0.6368
   26MOL   C19916249   7.693   3.544   3.611  0.2686 -0.0924  0.2874
   26MOL   C20016250   7.543   3.528   3.622 -0.4450  0.6727  0.1088
   26MOL   O20116251   7.477   3.472   3.535  0.1731 -0.3446 -0.2502
   26MOL   N20216252   7.481   3.569   3.735  0.4232  0.3779 -0.5910
   26MOL   C20316253   7.354   3.517   3.794  0.2451 -0.0792  0.6983
   26MOL   C20416254   7.226   3.567   3.729  0.3418 -1.0950 -0.3871
   26MOL   C20516255   7.096   3.521   3.797  0.5891  0.8666  1.0390
   26MOL   C20616256   6.983   3.590   3.727  1.3452 -0.2473 -0.1680
   26MOL   N20716257   6.974   3.736   3.753  0.3609  0.0455 -0.8393
   26MOL   H20816258   0.141   3.721   3.271 -1.1576 -4.2353 -0.2457
   26MOL   H20916259   0.294   3.640   3.279 -0.1048 -2.1983  2.4135
   26MOL   H21016260   0.220   3.546   3.460  1.7254  1.0468 -0.5330
   26MOL   H21116261   0.234   3.693   3.544  1.9042 -1.2055 -0.6705
   26MOL   H21216262   7.678   3.593   3.400 -0.7281  0.8906  0.3171
   26MOL   H21316263   7.682   3.733   3.509  0.6303  0.1486  1.5542
   26MOL   H21416264   0.025   3.580   3.709 -1.6446  4.1748 -0.4793
   26MOL   H21516265   0.037   3.451   3.580 -1.7659 -0.8499 -0.4915
   26MOL   H21616266   7.540   3.617   3.801  1.2262 -1.2290 -0.0979
   26MOL   H21716267   7.360   3.539   3.901  2.3660  0.0995  0.5517
   26MOL   H21816268   7.359   3.408   3.789 -0.2157 -0.0182 -1.3074
   26MOL   H21916269   7.224   3.676   3.739  0.7161 -0.9498 -1.8763
   26MOL   H22016270   7.234   3.531   3.627  0.6003  0.4593 -0.9384
   26MOL   H22116271   7.096   3.531   3.905 -0.8931 -4.0909  1.5738
   26MOL   H22216272   7.085   3.413   3.793 -0.9797  1.0657 -0.6287
   26MOL   H22316273   6.891   3.537   3.750  0.1467 -0.5136 -4.8914
   26MOL   H22416274   6.989   3.571   3.619 -0.2775  2.8139 -0.8509
   26MOL   H22516275   7.049   3.791   3.791 -0.4173  0.8061 -0.3816
   26MOL   C22616276   6.860   3.804   3.748  0.1239 -0.4850  0.0552
   26MOL   O22716277   6.756   3.747   3.708 -0.0118  0.2963  0.0804
   26MOL   C22816278   6.864   3.952   3.787 -0.1736  1.1321 -0.2191
   26MOL   C22916279   6.729   4.016   3.822  0.0241  0.1880  0.0284
   26MOL   C23016280   6.732   4.106   3.945  0.3803  0.2322 -0.2637
   26MOL   C23116281   6.617   4.198   3.989  0.6204  0.0399  0.6619
   26MOL   C23216282   6.607   4.318   3.896  0.0530 -0.2498  0.3521
   26MOL   O23316283   6.673   4.410   3.923  0.3998 -0.2995 -0.2576
   26MOL   N23416284   6.527   4.304   3.788 -0.6892  0.1998 -0.0711
   26MOL   C23516285   6.486   4.403   3.694  0.4995 -0.0180  0.2874
   26MOL   C23616286   6.418   4.332   3.571  0.8541  0.1690 -0.4375
   26MOL   C23716287   6.355   4.430   3.474 -0.0393  0.0670 -0.1197
   26MOL   C23816288   6.338   4.397   3.323 -0.2894 -0.2797 -0.8958
   26MOL   N23916289   6.337   4.510   3.243 -0.6620 -0.5544  0.4333
   26MOL   H24016290   6.934   3.952   3.871 -1.4008  0.8248  0.8220
   26MOL   H24116291   6.920   4.008   3.712  0.3870  0.2343 -0.4842
   26MOL   H24216292   6.697   4.080   3.739  0.5628  0.4892  0.0561
   26MOL   H24316293   6.652   3.941   3.839  0.6408 -0.0739  1.7526
   26MOL   H24416294   6.823   4.165   3.946  0.0358  0.8346  3.5092
   26MOL   H24516295   6.738   4.045   4.035  0.9096  0.2528 -0.2862
   26MOL   H24616296   6.632   4.241   4.087 -0.2496  0.1724  0.7389
   26MOL   H24716297   6.524   4.143   4.006 -0.1409  0.5586 -1.6364
   26MOL   H24816298   6.480   4.215   3.794  0.3096 -0.3926 -1.0153
   26MOL   H24916299   6.580   4.450   3.662  0.3243  1.2301  1.5616
   26MOL   H25016300   6.425   4.477   3.745  0.7966  0.5443 -0.1699
   26MOL   H25116301   6.492   4.267   3.524 -1.0359 -1.5441 -1.0820
   26MOL   H25216302   6.343   4.265   3.612  1.0686  1.3638  2.0353
   26MOL   H25316303   6.409   4.524   3.483 -0.3246 -0.0015  2.7292
   26MOL   H25416304   6.250   4.446   3.502  0.7030  0.3465  2.6445
   26MOL   H25516305   6.264   4.319   3.309 -0.4114  0.0300 -2.0869
   26MOL   H25616306   6.431   4.360   3.281 -0.4790 -2.3935  0.5010
   26MOL   H25716307   6.399   4.514   3.163 -1.9232 -2.3313 -0.6612
   26MOL   C25816308   6.263   4.619   3.255 -0.6574  0.0893 -0.1594
   26MOL   O25916309   6.181   4.627   3.347  0.1048  0.0973  0.0568
   26MOL   C26016310   6.257   4.713   3.131  0.2842 -0.2737  0.5557
   26MOL   C26116311   6.115   4.766   3.091 -0.3428  0.0381 -0.5922
   26MOL   C26216312   6.075   4.898   3.163 -0.1438  0.1274 -0.3618
   26MOL   C26316313   5.953   4.975   3.111  0.1316  0.5094  0.4156
   26MOL   C26416314   5.828   4.953   3.192 -0.1473  0.2459  0.0095
   26MOL   O26516315   5.805   5.031   3.287 -0.1034 -0.1910  0.6322
   26MOL   N26616316   5.759   4.841   3.160  0.5973  0.2451  0.3856
   26MOL   C26716317   5.633   4.807   3.232 -0.2284 -0.1698 -0.0389
   26MOL   C26816318   5.594   4.662   3.204  0.0711  0.5921  0.0105
   26MOL   C26916319   5.504   4.614   3.318 -0.1571 -0.5408  0.0850
   26MOL   C27016320   5.416   4.502   3.264 -0.5181 -0.1203  0.0207
   26MOL   N27116321   5.329   4.431   3.356 -0.4694 -0.2039  0.1753
   26MOL   H27216322   6.319   4.797   3.161  0.5594  0.5752 -2.2416
   26MOL   H27316323   6.310   4.665   3.048 -1.2770  2.5549 -2.1816
   26MOL   H27416324   6.100   4.781   2.984  0.4481  0.6895 -0.6165
   26MOL   H27516325   6.040   4.696   3.128 -1.0844  1.8117  1.4053
   26MOL   H27616326   6.161   4.964   3.162 -0.2988  0.3406  0.0983
   26MOL   H27716327   6.060   4.873   3.268 -0.9414  0.9347 -0.2762
   26MOL   H27816328   5.931   4.937   3.011 -1.1060 -1.3299  1.3621
   26MOL   H27916329   5.971   5.081   3.094 -0.1060  0.4984  0.0915
   26MOL   H28016330   5.803   4.789   3.086 -1.1204  0.5516 -0.8786
   26MOL   H28116331   5.548   4.873   3.215  0.0195  0.3543  0.7438
   26MOL   H28216332   5.657   4.811   3.338 -1.9349  0.8756  0.3400
   26MOL   H28316333   5.543   4.660   3.107 -1.5491  1.0161  0.8387
   26MOL   H28416334   5.679   4.594   3.205 -0.5015 -0.1249 -0.0178
   26MOL   H28516335   5.431   4.688   3.348 -1.6196 -2.2603  0.9085
   26MOL   H28616336   5.561   4.595   3.409  1.6414 -0.8648 -1.0833
   26MOL   H28716337   5.471   4.425   3.210 -0.9857 -1.2634  1.1353
   26MOL   H28816338   5.353   4.549   3.189 -0.7207 -1.3599 -0.6079
   26MOL   H28916339   5.342   4.331   3.345  1.8753 -0.0955  1.7790
   26MOL   C29016340   5.258   4.469   3.466 -0.0649  0.1133  0.8507
   26MOL   O29116341   5.243   4.589   3.486  0.9443  0.8533 -0.1413
   26MOL   C29216342   5.204   4.358   3.554  0.2775  0.2905  0.7334
   26MOL   C29316343   5.163   4.394   3.698 -0.0498  0.1228 -1.1667
   26MOL   C29416344   5.104   4.283   3.779  0.0223 -0.2142 -0.2105
   26MOL   C29516345   4.957   4.248   3.741 -0.3347  0.3869  0.4803
   26MOL   C29616346   4.944   4.138   3.634 -0.2125  0.2010  0.1071
   26MOL   O29716347   5.044   4.073   3.604 -0.5908  0.3972  0.6726
   26MOL   N29816348   4.818   4.114   3.587 -0.3703 -0.7253  0.4896
   26MOL   C29916349   4.756   4.012   3.511 -0.4298 -0.4491  0.2226
   26MOL   C30016350   4.730   4.055   3.363  0.7433  1.1338  0.2845
   26MOL   C30116351   4.673   3.951   3.267 -0.4901  0.7172  0.1055
   26MOL   C30216352   4.645   4.008   3.125  0.6213 -0.1673 -0.6670
   26MOL   N30316353   4.537   4.105   3.119  0.1678  0.0693  0.6964
   26MOL   H30416354   5.111   4.324   3.509  1.7035 -1.2416 -1.1477
   26MOL   H30516355   5.260   4.265   3.565 -2.0125 -0.9728  2.0418
   26MOL   H30616356   5.248   4.434   3.753 -0.0089  0.4663 -1.4752
   26MOL   H30716357   5.103   4.484   3.711  2.8632  1.9530  0.0333
   26MOL   H30816358   5.101   4.322   3.881  3.4400 -0.9589  0.2365
   26MOL   H30916359   5.177   4.205   3.799  0.4207  0.5313  1.2486
   26MOL   H31016360   4.898   4.335   3.711  0.6795  1.3089  1.1283
   26MOL   H31116361   4.915   4.226   3.839 -3.1002 -1.4310 -1.0321
   26MOL   H31216362   4.757   4.193   3.603 -0.8634 -0.4018 -2.5736
   26MOL   H31316363   4.662   3.990   3.563 -0.3986 -2.5314 -0.5708
   26MOL   H31416364   4.807   3.916   3.522 -1.9054 -1.4503 -1.4846
   26MOL   H31516365   4.667   4.143   3.373 -0.5361  0.3268 -0.5287
   26MOL   H31616366   4.819   4.101   3.319  1.2984  0.6256  0.8619
   26MOL   H31716367   4.584   3.907   3.311  0.2513 -0.3164  0.6077
   26MOL   H31816368   4.750   3.874   3.264 -2.3008 -1.2525  2.3604
   26MOL   H31916369   4.591   3.932   3.069  2.2718 -1.5356 -0.4195
   26MOL   H32016370   4.740   4.032   3.077  0.8476  0.1599 -0.0616
   26MOL   H32116371   4.455   4.091   3.176 -1.7188  0.3333 -1.8596
   26MOL   C32216372   4.542   4.225   3.057  0.0304  0.5348  0.0014
   26MOL   O32316373   4.633   4.259   2.985  0.1234 -0.0237 -0.0803
   26MOL   C32416374   4.431   4.320   3.090 -0.0373 -0.6327 -0.0680
   26MOL   C32516375   4.486   4.447   3.171 -0.9324  0.2627  0.5192
   26MOL   C32616376   4.456   4.438   3.320 -0.6258  0.6453  0.0539
   26MOL   C32716377   4.508   4.547   3.418  0.9282  0.5582 -0.0905
   26MOL   C32816378   4.454   4.683   3.369 -0.0076 -0.3433  0.5989
   26MOL   O32916379   4.336   4.707   3.390 -0.1045 -0.2870  0.0297
   26MOL   N33016380   4.525   4.764   3.294  0.2048 -0.2368  0.3133
   26MOL   C33116381   4.481   4.860   3.199 -0.1491  0.5057  0.2405
   26MOL   C33216382   4.554   4.993   3.220  0.3886 -0.0372 -0.5273
   26MOL   C33316383   4.521   5.104   3.123 -0.5272 -0.1735  0.3578
   26MOL   C33416384   4.639   5.206   3.095  0.0315 -0.8947  0.2349
   26MOL   N33516385   4.679   5.260   3.222  0.2508  0.3889 -0.5625
   26MOL   H33616386   4.394   4.351   2.992 -1.1077 -0.1992  0.4600
   26MOL   H33716387   4.354   4.269   3.148 -0.7644  0.1192 -0.3650
   26MOL   H33816388   4.588   4.477   3.148 -0.4817 -1.4995  0.1791
   26MOL   H33916389   4.422   4.531   3.142 -0.8201 -0.1377 -0.9401
   26MOL   H34016390   4.509   4.347   3.351  0.0259  0.7935 -0.6128
   26MOL   H34116391   4.349   4.422   3.334 -0.4471 -1.1020 -0.4723
   26MOL   H34216392   4.616   4.553   3.425  1.1308 -1.8819 -0.6535
   26MOL   H34316393   4.469   4.529   3.518  0.3631  2.2181  0.0049
   26MOL   H34416394   4.623   4.740   3.293  0.2264 -0.1873 -2.1609
   26MOL   H34516395   4.373   4.870   3.206 -0.2158 -0.7319  1.1474
   26MOL   H34616396   4.506   4.824   3.099 -0.3031 -1.0557  0.7579
   26MOL   H34716397   4.542   5.024   3.324  2.6322 -1.5379  0.2199
   26MOL   H34816398   4.660   4.973   3.203  0.2765  0.5688 -2.0300
   26MOL   H34916399   4.429   5.154   3.154 -0.2319  2.2621 -2.5338
   26MOL   H35016400   4.491   5.077   3.022  0.3550  1.1305 -0.2676
   26MOL   H35116401   4.600   5.285   3.031 -0.1392 -1.2765 -0.1377
   26MOL   H35216402   4.718   5.152   3.043  0.0478 -0.0254 -0.6497
   26MOL   H35316403   4.616   5.238   3.297  1.1271  1.2762  0.4507
   26MOL   C35416404   4.793   5.331   3.241 -0.6525  0.0189  0.4679
   26MOL   O35516405   4.876   5.348   3.153 -0.7306 -0.5203  0.6107
   26MOL   C35616406   4.805   5.407   3.376 -0.2044  0.2888 -0.8766
   26MOL   C35716407   4.941   5.476   3.395 -0.3221  0.6351 -0.4395
   26MOL   C35816408   5.049   5.376   3.440  0.0116 -0.8271 -0.2601
   26MOL   C35916409   5.193   5.435   3.449  0.7236 -0.1449  0.4027
   26MOL   C36016410   5.225   5.542   3.552  0.0332  1.2083 -0.2766
   26MOL   O36116411   5.134   5.604   3.618 -0.2335  0.0352  0.3456
   26MOL   N36216412   5.355   5.566   3.566 -0.3247  0.2414 -0.3561
   26MOL   C36316413   5.421   5.651   3.667 -0.6138 -0.4941 -0.5075
   26MOL   C36416414   5.540   5.727   3.607  0.3514 -0.0438 -0.2729
   26MOL   C36516415   5.487   5.843   3.520 -0.3251 -0.0015 -0.6676
   26MOL   C36616416   5.588   5.942   3.464 -0.3671  0.1791  0.2969
   26MOL   N36716417   5.648   6.028   3.561  0.0383  0.6646 -0.5959
   26MOL   H36816418   4.727   5.483   3.381  0.6266  1.2166 -1.7972
   26MOL   H36916419   4.784   5.332   3.453 -0.2272  0.3764 -0.7971
   26MOL   H37016420   4.969   5.542   3.313  1.4854 -1.6106 -1.6980
   26MOL   H37116421   4.928   5.532   3.488 -0.0596 -1.2860  0.7955
   26MOL   H37216422   5.039   5.293   3.370 -2.2572  0.8948 -2.0518
   26MOL   H37316423   5.021   5.335   3.537  3.7318 -0.6314  0.9719
   26MOL   H37416424   5.221   5.466   3.349 -1.3580  1.5728  0.3122
   26MOL   H37516425   5.249   5.342   3.460  0.1727 -0.5476 -0.1586
   26MOL   H37616426   5.405   5.506   3.502 -1.7745 -0.8038 -0.5333
   26MOL   H37716427   5.456   5.583   3.745 -2.3886  0.7854  1.4753
   26MOL   H37816428   5.357   5.726   3.714 -0.7205 -0.7803 -0.1969
   26MOL   H37916429   5.603   5.776   3.681 -0.8738  0.9594  0.1236
   26MOL   H38016430   5.603   5.665   3.543  0.8572 -0.1450  0.3237
   26MOL   H38116431   5.414   5.900   3.578 -0.7589  0.3062 -1.4983
   26MOL   H38216432   5.431   5.795   3.439  0.2390 -0.8998 -0.5259
   26MOL   H38316433   5.541   5.998   3.383  2.8109  2.3492 -0.1636
   26MOL   H38416434   5.673   5.889   3.422 -1.1439  0.0824 -1.1649
   26MOL   H38516435   5.721   5.989   3.619 -0.1733 -0.0781 -0.8249
   26MOL   C38616436   5.604   6.147   3.602  0.3389  0.7395 -0.3096
   26MOL   O38716437   5.514   6.212   3.550 -0.4407  0.0913 -0.3257
   26MOL   C38816438   5.678   6.204   3.721  0.3617 -0.3407 -0.0440
   26MOL   C38916439   5.596   6.218   3.854  0.0133  0.1426 -0.0921
   26MOL   C39016440   5.673   6.301   3.958  0.1273 -0.0813  0.0663
   26MOL   C39116441   5.576   6.356   4.064 -0.4872 -0.0559 -0.1863
   26MOL   C39216442   5.520   6.240   4.153  0.2924  0.0454  0.1297
   26MOL   O39316443   5.596   6.149   4.185 -0.0289  0.2204  0.8261
   26MOL   N39416444   5.390   6.247   4.179 -0.3814  0.9766  0.0791
   26MOL   C39516445   5.307   6.139   4.237 -0.7103 -0.4562  0.5245
   26MOL   C39616446   5.198   6.210   4.314 -1.3009  0.2748  0.0190
   26MOL   C39716447   5.071   6.133   4.330 -0.0882 -0.0804  0.0802
   26MOL   C39816448   5.076   6.040   4.452 -0.1474  0.2767  0.7891
   26MOL   N39916449   4.950   5.984   4.488  0.1569  0.3070 -0.6087
   26MOL   H40016450   5.770   6.145   3.732  0.0957 -0.7387  0.0516
   26MOL   H40116451   5.698   6.303   3.681 -0.3972 -0.0206  0.3569
   26MOL   H40216452   5.499   6.262   3.831  0.0763 -0.4500 -1.5284
   26MOL   H40316453   5.568   6.123   3.898 -1.3521  1.3692  1.7730
   26MOL   H40416454   5.721   6.385   3.908 -1.7125  1.1703  0.3595
   26MOL   H40516455   5.750   6.244   4.011 -0.4000 -1.6448 -0.8263
   26MOL   H40616456   5.492   6.410   4.021  0.6445  1.4184 -0.5705
   26MOL   H40716457   5.635   6.420   4.130  1.0347 -1.7432  0.1451
   26MOL   H40816458   5.344   6.335   4.164  1.3629  2.4067  2.6213
   26MOL   H40916459   5.367   6.074   4.302  3.0839  0.5805 -1.7914
   26MOL   H41016460   5.260   6.078   4.160 -0.5476 -1.8446  1.4906
   26MOL   H41116461   5.248   6.235   4.407  0.2814  1.2460 -1.0591
   26MOL   H41216462   5.177   6.303   4.262  1.6569 -1.1298 -3.9793
   26MOL   H41316463   5.056   6.086   4.233 -2.4512  0.4001  0.1880
   26MOL   H41416464   4.983   6.190   4.360 -0.3267 -0.5756  0.3232
   26MOL   H41516465   5.109   6.093   4.541  1.0764 -2.9653  2.3519
   26MOL   H41616466   5.145   5.959   4.428  1.2852  1.6172  0.2935
   26MOL   H41716467   4.915   5.938   4.406 -0.8892  0.9229 -0.5157
   26MOL   C41816468   4.873   6.010   4.593  0.0510  0.3573 -0.0886
   26MOL   O41916469   4.907   6.088   4.684  0.0802  0.4329  0.3486
   26MOL   C42016470   4.741   5.940   4.608 -0.4230 -0.6912 -0.3347
   26MOL   C42116471   4.642   5.997   4.716  0.1886  0.3192 -0.7527
   26MOL   C42216472   4.560   6.120   4.676 -0.2997  0.6415  0.4284
   26MOL   C42316473   4.624   6.245   4.617  0.1543 -0.2662  0.0719
   26MOL   C42416474   4.629   6.255   4.467 -0.0257 -0.6245  0.0515
   26MOL   O42516475   4.562   6.179   4.395 -0.0048 -0.1682  0.0433
   26MOL   N42616476   4.695   6.357   4.408 -0.2638  0.9355  0.0218
   26MOL   C42716477   4.699   6.383   4.264 -0.9817 -0.5158 -0.1869
   26MOL   C42816478   4.662   6.531   4.253 -0.1167  0.2990  0.1192
   26MOL   C42916479   4.644   6.579   4.109  0.2234 -0.1463  0.4497
   26MOL   C43016480   4.653   6.729   4.087 -1.0327  0.3849  0.1087
   26MOL   N43116481   4.626   6.768   3.953 -0.2349  0.5499  0.2662
   26MOL   H43216482   4.699   5.920   4.510 -1.8730 -1.1737  0.3625
   26MOL   H43316483   4.775   5.842   4.641 -0.8270 -1.3484 -1.8508
   26MOL   H43416484   4.578   5.916   4.751  0.7514  0.3697  0.4280
   26MOL   H43516485   4.687   6.031   4.810  2.3671  0.8308 -1.9406
   26MOL   H43616486   4.524   6.150   4.775 -1.7648 -0.5300  0.2803
   26MOL   H43716487   4.469   6.101   4.619 -0.3654  1.1140  0.3726
   26MOL   H43816488   4.723   6.269   4.655 -0.0088  0.7221 -0.1041
   26MOL   H43916489   4.569   6.334   4.646  0.0441 -0.5273  0.6821
   26MOL   H44016490   4.758   6.413   4.464 -0.4543 -0.0606  1.2604
   26MOL   H44116491   4.619   6.323   4.220 -0.1668 -0.9093 -1.1171
   26MOL   H44216492   4.796   6.358   4.222 -0.5448  0.9458 -0.0606
   26MOL   H44316493   4.580   6.552   4.322  1.6558 -0.2958  2.4606
   26MOL   H44416494   4.740   6.597   4.291 -0.4745  0.9428 -0.2543
   26MOL   H44516495   4.547   6.543   4.073  0.3881 -1.2791  1.0967
   26MOL   H44616496   4.713   6.525   4.043  0.2858  0.9667 -0.4047
   26MOL   H44716497   4.748   6.768   4.123 -1.0174 -0.6950  1.2829
   26MOL   H44816498   4.587   6.775   4.161 -0.6955  1.0047  0.0196
   26MOL   H44916499   4.681   6.733   3.876 -1.0691 -1.4822  0.5659
   26MOL   C45016500   4.520   6.839   3.914  0.1334 -0.2939  0.0480
   26MOL   O45116501   4.438   6.896   3.985 -0.2745 -0.1962  0.2266
   26MOL   C45216502   4.509   6.855   3.759  0.3384  0.6826  0.0216
   26MOL   C45316503   4.509   7.007   3.712  0.7529 -0.3336  0.6447
   26MOL   C45416504   4.438   7.031   3.577  0.7252 -0.5446  0.3290
   26MOL   C45516505   4.437   7.186   3.551  0.4361  0.5208 -0.9387
   26MOL   C45616506   4.317   7.235   3.467 -0.0522 -0.3760 -0.8316
   26MOL   O45716507   4.224   7.164   3.433  0.5649 -0.2722  0.7549
   26MOL   N45816508   4.311   7.368   3.442 -0.4943  0.0769 -0.0713
   26MOL   C45916509   4.214   7.439   3.361 -0.5273  0.8349  0.0631
   26MOL   C46016510   4.239   7.588   3.376 -0.0952 -0.7902 -0.3757
   26MOL   C46116511   4.138   7.678   3.296  0.3685  0.8748 -0.5533
   26MOL   C46216512   4.160   0.119   3.345 -0.5117 -0.4535 -0.6659
   26MOL   N46316513   4.105   0.137   3.478 -0.1267  0.0605  0.2228
   26MOL   H46416514   4.577   6.788   3.707 -0.5929 -0.7797  0.6490
   26MOL   H46516515   4.409   6.817   3.741 -0.9272  3.0477  1.7353
   26MOL   H46616516   4.472   7.071   3.792 -1.3373  0.3306 -0.8271
   26MOL   H46716517   4.615   7.028   3.694  0.3672 -0.1537 -1.5759
   26MOL   H46816518   4.342   6.983   3.596  0.1668  0.0430 -0.9543
   26MOL   H46916519   4.489   6.986   3.491  0.5515 -0.0725 -0.0214
   26MOL   H47016520   4.533   7.218   3.510  2.7804 -1.7023  2.5821
   26MOL   H47116521   4.427   7.248   3.640  2.6384  2.2230 -1.8299
   26MOL   H47216522   4.398   7.412   3.469 -1.0218 -0.2074  2.2128
   26MOL   H47316523   4.111   7.421   3.394 -0.2747 -1.9506 -0.5319
   26MOL   H47416524   4.227   7.398   3.261 -1.3690  3.1280 -1.0232
   26MOL   H47516525   4.224   7.611   3.481 -1.4575 -1.7280 -0.3612
   26MOL   H47616526   4.343   7.613   3.355 -0.0161 -0.1156  0.8112
   26MOL   H47716527   4.035   7.646   3.308  0.8731 -0.9302 -0.8888
   26MOL   H47816528   4.165   7.668   3.191 -1.3444  0.2165 -0.9367
   26MOL   H47916529   4.107   0.196   3.290  1.0115  2.1215  1.3849
   26MOL   H48016530   4.267   0.136   3.345 -0.3174 -1.4361  1.3022
   26MOL   H48116531   4.010   0.104   3.491 -0.2220 -0.9963 -2.7545
   26MOL   C48216532   4.167   0.203   3.579  0.4315  0.0171  0.5594
   26MOL   O48316533   4.279   0.249   3.561 -0.0533  0.3349  0.3716
   26MOL   C48416534   4.096   0.217   3.714 -0.0920 -0.6088  0.0227
   26MOL   C48516535   4.025   0.360   3.736  0.8386 -0.3752 -0.1628
   26MOL   C48616536   3.924   0.395   3.628  0.5271  0.2312 -0.0686
   26MOL   C48716537   3.866   0.535   3.643  0.0468 -0.0210  0.6203
   26MOL   C48816538   3.767   0.549   3.763  0.1590  0.3935  0.3466
   26MOL   O48916539   3.714   0.447   3.809 -0.3209 -0.4280  0.3558
   26MOL   N49016540   3.738   0.672   3.806  0.1892  0.0163  0.0661
   26MOL   C49116541   3.671   0.706   3.931 -0.0697 -0.3918  0.1003
   26MOL   C49216542   3.760   0.786   4.022 -0.9778  0.2040  0.3161
   26MOL   C49316543   3.688   0.828   4.149 -0.3727  0.0216  0.1640
   26MOL   C49416544   3.785   0.888   4.255  1.0052 -0.2751 -0.1491
   26MOL   N49516545   3.717   0.950   4.365 -0.0672 -0.3735  0.0592
   26MOL   H49616546   4.019   0.142   3.729  0.1168 -0.7942  0.1748
   26MOL   H49716547   4.164   0.204   3.799 -1.8239 -0.7091  1.4245
   26MOL   H49816548   3.977   0.372   3.833 -2.0866 -1.7490 -1.4016
   26MOL   H49916549   4.103   0.436   3.738  0.5391 -0.0935  1.0433
   26MOL   H50016550   3.844   0.321   3.635  0.7530 -0.1079 -1.0208
   26MOL   H50116551   3.962   0.387   3.527 -0.5199 -1.0597 -0.3787
   26MOL   H50216552   3.824   0.569   3.549  1.0834 -2.7384 -0.8999
   26MOL   H50316553   3.941   0.610   3.668  2.9506 -1.6950 -2.5118
   26MOL   H50416554   3.789   0.746   3.759 -2.9547  2.1027 -0.2291
   26MOL   H50516555   3.648   0.612   3.982 -1.0939  0.2463  0.8254
   26MOL   H50616556   3.573   0.748   3.913  0.0234 -0.5964 -0.9056
   26MOL   H50716557   3.850   0.731   4.048 -1.3490 -0.3429  0.4730
   26MOL   H50816558   3.788   0.872   3.962 -2.8070 -0.3532 -1.4023
   26MOL   H50916559   3.639   0.746   4.202 -1.6489  0.3493 -0.4825
   26MOL   H51016560   3.618   0.906   4.119 -0.9332 -1.5665 -2.8048
   26MOL   H51116561   3.847   0.967   4.211 -0.2027  0.6643 -0.2024
   26MOL   H51216562   3.848   0.808   4.293 -1.0163 -2.0877 -0.4946
   26MOL   H51316563   3.636   0.897   4.393 -0.8496  1.1931  0.8837
   26MOL   C51416564   3.747   1.067   4.423 -0.4766 -0.1258  0.7370
   26MOL   O51516565   3.842   1.134   4.384  0.1423 -0.6829  0.3665
   26MOL   C51616566   3.660   1.115   4.536 -0.4835 -0.2653 -0.0575
   26MOL   C51716567   3.757   1.186   4.645  0.8211  0.2033 -0.4036
   26MOL   C51816568   3.684   1.214   4.783  0.1628  0.1620  0.2211
   26MOL   C51916569   3.558   1.306   4.779 -0.9303  0.9542  0.1719
   26MOL   C52016570   3.523   1.340   4.919 -0.4158 -0.1192  0.2103
   26MOL   O52116571   3.469   1.257   4.987 -0.0183  0.4283 -0.1171
   26MOL   N52216572   3.547   1.468   4.958  0.0893  0.6029 -0.2775
   26MOL   C52316573   3.521   1.513   5.101 -0.0009 -0.2647 -0.0518
   26MOL   C52416574   3.656   1.515   5.175  0.0182  0.4357  0.3493
   26MOL   C52516575   3.721   1.372   5.172 -0.3925 -0.6780 -0.7483
   26MOL   C52616576   3.824   1.337   5.278 -0.0952 -0.3164  0.5127
   26MOL   N52716577   3.852   1.191   5.257  0.2856  0.2413  0.7571
   26MOL   H52816578   3.586   1.184   4.496  0.6845  0.5633 -0.8444
   26MOL   H52916579   3.624   1.027   4.589  1.9375 -1.4634 -0.3156
   26MOL   H53016580   3.842   1.123   4.671  0.4204  0.3376  1.2515
   26MOL   H53116581   3.803   1.273   4.597  1.1206 -1.0186 -2.4036
   26MOL   H53216582   3.765   1.251   4.847  1.4695 -1.8572 -0.2168
   26MOL   H53316583   3.667   1.116   4.828  0.7561  0.5713  1.3809
   26MOL   H53416584   3.473   1.267   4.723 -1.5631  2.9118 -0.2545
   26MOL   H53516585   3.575   1.407   4.741 -1.0629  0.3389 -1.5908
   26MOL   H53616586   3.577   1.533   4.886  2.0400 -0.4731 -0.4715
   26MOL   H53716587   3.452   1.450   5.156 -2.8791  1.7187 -1.2935
   26MOL   H53816588   3.489   1.618   5.104  0.3665 -0.1723  0.7311
   26MOL   H53916589   3.735   1.579   5.135 -0.9456  0.9665 -0.7240
   26MOL   H54016590   3.638   1.551   5.277  0.1219 -0.1232  0.5676
   26MOL   H54116591   3.758   1.349   5.072  1.3097 -1.1157 -0.0456
   26MOL   H54216592   3.640   1.301   5.185 -3.3214  2.8684  1.0872
   26MOL   H54316593   3.789   1.347   5.381 -0.5504 -2.1154  0.5445
   26MOL   H54416594   3.910   1.403   5.262  1.3598 -2.4558 -0.7341
   26MOL   H54516595   3.799   1.139   5.189 -0.3664  0.9101  0.7489
   26MOL   C54616596   3.954   1.128   5.318  0.0479  0.7577  0.9218
   26MOL   O54716597   4.035   1.186   5.390 -0.1732  0.1950 -0.2662
   26MOL   C54816598   3.976   0.983   5.267  0.0140 -0.5661 -0.1748
   26MOL   C54916599   4.022   0.877   5.369 -0.3639 -0.3362 -0.1820
   26MOL   C55016600   3.916   0.862   5.480  0.5471 -0.1587 -0.1318
   26MOL   C55116601   3.964   0.767   5.593 -0.8947 -0.2115  1.2107
   26MOL   C55216602   3.862   0.760   5.707  0.5581  0.2422 -0.3075
   26MOL   O55316603   3.754   0.815   5.705  0.1311  0.4735 -0.1774
   26MOL   N55416604   3.894   0.688   5.820  0.0288 -0.6571  0.1998
   26MOL   C55516605   3.824   0.682   5.951  0.0882  0.5913  0.0354
   26MOL   C55616606   3.918   0.622   6.047  0.2055 -0.1338 -0.4159
   26MOL   C55716607   3.863   0.622   6.196 -0.1873  0.7899  0.3704
   26MOL   C55816608   3.966   0.560   6.294 -0.0003 -0.1760 -0.0236
   26MOL   N55916609   4.080   0.651   6.326 -0.2362 -0.2032  0.1487
   26MOL   H56016610   3.886   0.945   5.219  0.0359 -2.0570  0.9542
   26MOL   H56116611   4.054   0.989   5.191  1.5350  1.7328  1.4676
   26MOL   H56216612   4.047   0.778   5.332  2.0027  0.7838 -1.6988
   26MOL   H56316613   4.112   0.911   5.420  0.0820 -2.8993  0.7894
   26MOL   H56416614   3.831   0.811   5.435 -1.2518  1.3528  1.4286
   26MOL   H56516615   3.875   0.955   5.521 -2.0060 -1.4982  0.5005
   26MOL   H56616616   4.063   0.798   5.626  1.1077 -1.1330 -3.4315
   26MOL   H56716617   3.969   0.664   5.557  1.6365  0.0972  0.5374
   26MOL   H56816618   3.984   0.643   5.819  0.6465  0.5334  0.4554
   26MOL   H56916619   3.723   0.641   5.961  0.8597 -0.9977  1.4719
   26MOL   H57016620   3.823   0.784   5.990 -0.1409  0.5115  0.2352
   26MOL   H57116621   3.956   0.525   6.016  2.7364  0.7485 -0.1748
   26MOL   H57216622   4.006   0.685   6.034 -0.9758  1.8589  0.9420
   26MOL   H57316623   3.773   0.562   6.202  0.0375  0.2903 -1.0531
   26MOL   H57416624   3.848   0.722   6.236 -2.3377  0.7381 -0.2875
   26MOL   H57516625   4.010   0.465   6.263  2.4052  0.1301  2.3034
   26MOL   H57616626   3.914   0.538   6.387  1.1973 -1.5213  0.3492
   26MOL   H57716627   4.100   0.731   6.268 -1.0112  0.2480  0.4892
   26MOL   C57816628   4.162   0.629   6.424  0.4716 -0.1750  0.2143
   26MOL   O57916629   4.148   0.537   6.502  0.7276  0.2800 -0.0063
   26MOL   C58016630   4.289   0.720   6.424  0.2476 -0.2762 -0.2930
   26MOL   C58116631   4.342   0.760   6.561 -0.0064  0.4466  0.4821
   26MOL   C58216632   4.238   0.842   6.639  0.3636  0.0265 -0.8143
   26MOL   C58316633   4.291   0.857   6.790 -0.0386  0.1589 -0.4310
   26MOL   C58416634   4.176   0.891   6.893  0.5937  0.1231  0.3197
   26MOL   O58516635   4.069   0.942   6.857 -0.5327  0.0780  0.3949
   26MOL   N58616636   4.203   0.861   7.020 -0.3181  1.1411  0.0897
   26MOL   C58716637   4.113   0.891   7.126  0.3602 -0.1484  0.1208
   26MOL   C58816638   4.132   0.824   7.259 -0.1847  0.1343  0.1530
   26MOL   C58916639   4.273   0.850   7.310 -0.1406  0.0489  0.2109
   26MOL   C59016640   4.289   0.838   7.460  0.5447 -0.6342 -0.0426
   26MOL   N59116641   4.426   0.852   7.501  0.4681  0.1017 -0.1376
   26MOL   H59216642   4.367   0.672   6.366  0.5478  0.3640 -0.4153
   26MOL   H59316643   4.252   0.806   6.370 -2.9615 -1.6797 -0.4569
   26MOL   H59416644   4.368   0.668   6.615 -1.3257  0.1934  0.7065
   26MOL   H59516645   4.433   0.817   6.547  0.2483 -0.5120 -1.9178
   26MOL   H59616646   4.140   0.794   6.649  0.1087  0.8260  0.5858
   26MOL   H59716647   4.231   0.944   6.602 -0.8933  0.9127  1.7614
   26MOL   H59816648   4.357   0.943   6.805 -0.1882  0.3254 -0.7175
   26MOL   H59916649   4.333   0.766   6.831  1.7485  1.6322  1.1003
   26MOL   H60016650   4.299   0.842   7.043 -0.8504 -1.9429  0.0179
   26MOL   H60116651   4.019   0.854   7.085 -0.4084  0.2750  1.4783
   26MOL   H60216652   4.113   0.999   7.136  0.3262 -0.3753  2.7678
   26MOL   H60316653   4.053   0.851   7.328  1.3857 -0.3049  2.1795
   26MOL   H60416654   4.121   0.717   7.241 -2.6755  0.6780 -1.7994
   26MOL   H60516655   4.311   0.948   7.280 -0.2675 -0.3264 -1.1970
   26MOL   H60616656   4.342   0.777   7.266 -0.1061 -0.6640  1.4313
   26MOL   H60716657   4.261   0.740   7.499 -2.0479  0.0876 -0.0611
   26MOL   H60816658   4.230   0.912   7.512  0.7715  1.0126 -2.0550
   26MOL   H60916659   4.471   0.770   7.541  0.6724  0.7601  1.0252
   26MOL   C61016660   4.484   0.971   7.503 -0.1247  0.4159 -0.1335
   26MOL   O61116661   4.434   1.077   7.461  0.0695 -0.1131  0.0129
   26MOL   C61216662   4.632   0.981   7.556  0.5325 -0.1502  0.0324
   26MOL   C61316663   4.732   1.017   7.447  0.1705 -0.3266  0.1263
   26MOL   C61416664   4.725   0.925   7.318  0.5811 -0.0671  0.0434
   26MOL   C61516665   4.719   1.013   7.189  0.5220 -0.2831  0.1054
   26MOL   C61616666   4.576   1.038   7.136 -0.7926 -0.5802  0.3849
   26MOL   O61716667   4.509   0.938   7.107 -0.2291  0.1290  0.5821
   26MOL   N61816668   4.531   1.165   7.136 -0.4982 -0.4611 -0.1442
   26MOL   C61916669   4.400   1.215   7.100 -0.3879 -0.1883  0.0605
   26MOL   C62016670   4.384   1.250   6.959  0.5309 -0.0763  0.8571
   26MOL   C62116671   4.248   1.318   6.935 -0.7328 -0.5515  0.3752
   26MOL   C62216672   4.224   1.367   6.787 -0.3122  0.0309  0.7112
   26MOL   N62316673   4.203   1.257   6.691 -0.1879 -0.0507 -1.0886
   26MOL   H62416674   4.643   1.062   7.629  0.5616 -1.2058  1.2104
   26MOL   H62516675   4.654   0.884   7.601  0.5863 -0.9330 -1.6573
   26MOL   H62616676   4.715   1.119   7.414  2.2833  0.4785  1.4628
   26MOL   H62716677   4.833   1.018   7.488  0.2954  0.9390 -0.1991
   26MOL   H62816678   4.633   0.867   7.319  0.6420 -0.1534  0.5245
   26MOL   H62916679   4.809   0.856   7.305  0.0889 -0.5111 -0.8638
   26MOL   H63016680   4.777   0.953   7.119  0.9986  0.3168 -0.0249
   26MOL   H63116681   4.772   1.108   7.201 -0.6135  0.4692 -0.7878
   26MOL   H63216682   4.597   1.232   7.173 -0.0294 -1.0132  0.0259
   26MOL   H63316683   4.384   1.309   7.152  1.9652 -1.7679  3.8335
   26MOL   H63416684   4.322   1.145   7.129 -0.9312  1.3105  2.3095
   26MOL   H63516685   4.472   1.305   6.924 -0.5641  1.1533 -0.0372
   26MOL   H63616686   4.362   1.154   6.913  3.7761 -1.8307  2.7881
   26MOL   H63716687   4.248   1.413   6.990 -0.6180 -1.1760  1.4733
   26MOL   H63816688   4.160   1.271   6.979  0.1414 -0.9933  1.6904
   26MOL   H63916689   4.315   1.419   6.757  0.4368 -0.6053  1.8468
   26MOL   H64016690   4.153   1.450   6.782  0.1014  0.2743 -2.0930
   26MOL   H64116691   4.132   1.195   6.727  0.3530  0.5694  1.1354
   26MOL   H64216692   4.165   1.296   6.605  1.7984  0.5424 -1.7376
   27MOL     C116693   2.865   0.712   1.236  0.2967  0.1100 -0.1382
   27MOL     O216694   2.891   0.598   1.277 -0.1076  0.0216 -0.5283
   27MOL     C316695   2.719   0.750   1.207  0.0386 -0.1483 -0.2167
   27MOL     C416696   2.626   0.670   1.294 -0.0988 -0.4931  0.2434
   27MOL     C516697   2.559   0.773   1.385 -0.0146  0.1748 -0.3980
   27MOL     C616698   2.437   0.715   1.458 -0.0965 -0.4482  0.5602
   27MOL     C716699   2.488   0.627   1.579  0.2298 -0.0234  0.6939
   27MOL     O816700   2.569   0.667   1.659 -0.6986 -0.0272 -0.1449
   27MOL     N916701   2.445   0.498   1.587 -0.2461  0.2482  0.0031
   27MOL    C1016702   2.511   0.399   1.671  0.1201 -0.3519 -0.4074
   27MOL    C1116703   2.574   0.293   1.583 -0.0860 -0.0936 -0.0050
   27MOL    C1216704   2.711   0.340   1.536  0.3462  0.1087 -0.4059
   27MOL    C1316705   2.770   0.256   1.420 -0.3055  0.6157 -0.9095
   27MOL    N1416706   2.790   0.118   1.462 -0.7591 -0.1336 -0.3938
   27MOL    H1516707   2.709   0.857   1.226  2.8320  0.0945  0.0039
   27MOL    H1616708   2.690   0.741   1.102 -2.0940 -0.0541  0.3358
   27MOL    H1716709   2.549   0.621   1.234 -0.4499  2.0529 -1.4745
   27MOL    H1816710   2.662   0.596   1.365  0.1722 -0.1054  0.5128
   27MOL    H1916711   2.520   0.855   1.325  0.6020  0.5248 -0.3235
   27MOL    H2016712   2.625   0.826   1.454 -0.3568 -0.2636  0.2784
   27MOL    H2116713   2.373   0.648   1.399 -1.6967  0.3592  1.3492
   27MOL    H2216714   2.388   0.801   1.504 -0.1549 -0.6712  0.9174
   27MOL    H2316715   2.396   0.453   1.511  0.7444 -1.2020  0.1842
   27MOL    H2416716   2.434   0.337   1.717 -0.7869  1.3311  0.4075
   27MOL    H2516717   2.581   0.442   1.741 -1.2172  1.6930 -0.2659
   27MOL    H2616718   2.587   0.208   1.650  1.4511  1.3918  1.6313
   27MOL    H2716719   2.513   0.267   1.496 -0.5033  1.7927 -0.2858
   27MOL    H2816720   2.780   0.346   1.619 -1.9828  1.2639  1.5141
   27MOL    H2916721   2.703   0.443   1.500  0.7068 -0.0555 -0.9645
   27MOL    H3016722   2.864   0.297   1.382 -0.3697 -1.2300 -3.1670
   27MOL    H3116723   2.694   0.251   1.342 -1.2131  1.3407 -0.0676
   27MOL    H3216724   2.715   0.052   1.470  1.0019 -2.0926  0.7344
   27MOL    H3316725   2.931   0.798   1.225 -0.7399  0.6156 -2.7048
   27MOL    C3416726   2.902   0.051   1.484  0.0208  0.2315 -0.7887
   27MOL    O3516727   3.007   0.113   1.508 -0.6934 -0.6745 -0.4436
   27MOL    C3616728   2.898   7.600   1.496  0.4630  0.0065  0.6543
   27MOL    C3716729   3.000   7.537   1.394  0.0017  0.3671  0.2314
   27MOL    C3816730   2.990   7.385   1.414  0.3101  0.2729  0.1275
   27MOL    C3916731   3.119   7.308   1.353  0.0745 -0.7279 -0.2038
   27MOL    C4016732   3.250   7.310   1.443  0.2979  0.1531  0.1147
   27MOL    O4116733   3.252   7.344   1.562  0.6204 -0.0571  0.1928
   27MOL    N4216734   3.362   7.268   1.377  0.2930  0.3129 -0.1509
   27MOL    C4316735   3.495   7.286   1.427 -0.4215 -0.0092 -0.3131
   27MOL    C4416736   3.603   7.284   1.323  0.1281  1.4226  0.4420
   27MOL    C4516737   3.618   7.148   1.259  0.2239 -0.4546 -0.0758
   27MOL    C4616738   3.753   7.131   1.196  0.4657 -1.5247  0.0633
   27MOL    N4716739   3.771   6.994   1.173  0.1455 -0.1833  0.4755
   27MOL    H4816740   2.924   7.558   1.593  0.9475 -2.2865 -0.4332
   27MOL    H4916741   2.798   7.571   1.462 -0.7303  2.5557  1.8156
   27MOL    H5016742   2.966   7.556   1.292  0.4700 -2.4464 -0.4963
   27MOL    H5116743   3.098   7.582   1.406 -0.2480  1.0438 -0.2574
   27MOL    H5216744   2.903   7.349   1.359  0.4856  0.1932 -0.1008
   27MOL    H5316745   2.965   7.347   1.513  0.5377  0.7793  0.3794
   27MOL    H5416746   3.159   7.352   1.261 -0.1691 -0.7037 -0.2988
   27MOL    H5516747   3.099   7.204   1.329 -0.8445 -0.8336  0.9653
   27MOL    H5616748   3.347   7.252   1.279 -0.2577 -1.0749  0.1558
   27MOL    H5716749   3.517   7.207   1.498 -0.4140 -0.0747 -0.3885
   27MOL    H5816750   3.505   7.380   1.481  0.8871 -0.6941  0.6578
   27MOL    H5916751   3.570   7.366   1.258  0.0337 -0.0647 -1.4478
   27MOL    H6016752   3.696   7.314   1.369  0.8717  1.4062 -1.0032
   27MOL    H6116753   3.541   7.130   1.183  0.5003  0.7083 -0.6484
   27MOL    H6216754   3.603   7.072   1.335  3.5865 -1.0778  0.0592
   27MOL    H6316755   3.834   7.164   1.262 -1.8031  1.0364  1.6476
   27MOL    H6416756   3.761   7.196   1.109  1.6406 -0.4172  0.9776
   27MOL    H6516757   3.761   6.932   1.252 -0.4271  0.7474  1.1420
   27MOL    C6616758   3.833   6.936   1.073  0.5092 -0.3124  0.6058
   27MOL    O6716759   3.860   6.992   0.966  0.1054 -0.3951 -0.5205
   27MOL    C6816760   3.865   6.784   1.103  0.0349 -0.0009  0.4246
   27MOL    C6916761   4.002   6.776   1.175  0.5092  0.2690  0.1963
   27MOL    C7016762   4.047   6.636   1.221  0.1606 -0.0622  0.0672
   27MOL    C7116763   3.940   6.545   1.288 -0.1323 -0.2670  0.4669
   27MOL    C7216764   3.998   6.411   1.335  0.0734 -0.5698  0.4497
   27MOL    O7316765   4.091   6.354   1.272 -0.4495  0.3476 -0.1079
   27MOL    N7416766   3.951   6.366   1.451 -0.2490 -0.0802  0.0120
   27MOL    C7516767   4.013   6.264   1.528 -0.6625 -0.3316  0.5840
   27MOL    C7616768   3.924   6.220   1.644 -0.1462  0.0104 -0.0437
   27MOL    C7716769   3.961   6.289   1.775 -0.2156 -0.0014 -0.5707
   27MOL    C7816770   3.882   6.224   1.888  0.6797 -0.4221 -0.4164
   27MOL    N7916771   3.911   6.297   2.013  0.0319 -0.1629 -0.4671
   27MOL    H8016772   3.790   6.743   1.170 -0.1500  0.6818  0.6441
   27MOL    H8116773   3.865   6.728   1.010  0.2129  0.6537  0.0195
   27MOL    H8216774   4.076   6.832   1.118  1.3927 -2.1003 -1.0593
   27MOL    H8316775   3.993   6.839   1.263 -0.6764 -1.3833  1.2944
   27MOL    H8416776   4.128   6.652   1.291  0.8249  0.2023 -0.7639
   27MOL    H8516777   4.096   6.583   1.139  1.0660 -1.3645  1.4229
   27MOL    H8616778   3.859   6.519   1.221  0.3904  1.2588 -0.8083
   27MOL    H8716779   3.900   6.604   1.371  0.1448 -0.4630  0.7408
   27MOL    H8816780   3.875   6.417   1.491  0.4093  1.1599 -0.2891
   27MOL    H8916781   4.111   6.302   1.557  1.1805 -2.5658 -2.3841
   27MOL    H9016782   4.032   6.183   1.458 -0.4450 -0.1710  0.4521
   27MOL    H9116783   3.821   6.250   1.626  0.2919  0.9802 -0.9708
   27MOL    H9216784   3.928   6.113   1.663 -0.7799 -0.0371 -0.1721
   27MOL    H9316785   3.941   6.396   1.772  1.3214  0.4832  3.5198
   27MOL    H9416786   4.067   6.279   1.798 -0.6722 -0.0871  1.6091
   27MOL    H9516787   3.901   6.118   1.902 -1.4701 -0.8253 -0.3312
   27MOL    H9616788   3.775   6.227   1.868  0.8523  1.6543 -1.1646
   27MOL    H9716789   3.930   6.396   2.001  2.7450 -0.4657  0.7559
   27MOL    C9816790   3.920   6.247   2.135 -0.2996  0.0801 -0.5961
   27MOL    O9916791   3.880   6.134   2.163 -0.1506 -0.1406 -0.3066
   27MOL   C10016792   3.985   6.333   2.250  0.7166 -1.0329  0.2750
   27MOL   C10116793   4.130   6.296   2.268  0.4173  0.5266 -0.1320
   27MOL   C10216794   4.230   6.318   2.153  0.0021  0.7396 -0.5787
   27MOL   C10316795   4.376   6.311   2.207  0.2032  0.1880 -0.3027
   27MOL   C10416796   4.477   6.301   2.098  0.6942  0.0025 -1.1419
   27MOL   O10516797   4.498   6.399   2.032  0.4875 -0.1582  0.9885
   27MOL   N10616798   4.539   6.185   2.081 -0.8641  0.0658 -0.5848
   27MOL   C10716799   4.643   6.164   1.970 -0.3574  0.0398  0.2791
   27MOL   C10816800   4.786   6.138   2.027  0.9744 -0.4038 -0.7476
   27MOL   C10916801   4.788   6.013   2.115 -0.4872  0.3856  0.3031
   27MOL   C11016802   4.937   5.955   2.148 -0.1078 -0.1541  0.3673
   27MOL   N11116803   5.027   6.061   2.195  0.1639  0.5429  0.2200
   27MOL   H11216804   3.971   6.439   2.234  1.3904 -1.3345 -2.5367
   27MOL   H11316805   3.931   6.328   2.345 -1.6915  1.0964 -0.9244
   27MOL   H11416806   4.149   6.356   2.357  1.8718 -0.8782  0.5187
   27MOL   H11516807   4.133   6.191   2.297 -1.8816  0.9390  1.7136
   27MOL   H11616808   4.221   6.419   2.113  0.7717  0.5432 -1.2619
   27MOL   H11716809   4.220   6.258   2.063  0.6168  0.8614 -0.7240
   27MOL   H11816810   4.390   6.222   2.268  1.0549  0.7966  0.4006
   27MOL   H11916811   4.397   6.396   2.272  1.9903 -0.1867 -0.3869
   27MOL   H12016812   4.512   6.100   2.130 -2.3435  0.4682 -0.6800
   27MOL   H12116813   4.648   6.246   1.898 -1.2440 -1.4048 -1.4379
   27MOL   H12216814   4.613   6.074   1.917 -1.9565  0.3255  0.6650
   27MOL   H12316815   4.839   6.135   1.932  1.2755  2.7167 -0.7373
   27MOL   H12416816   4.814   6.226   2.084 -3.1694  0.1145  0.6406
   27MOL   H12516817   4.735   5.931   2.067 -0.9504  0.7024  0.2712
   27MOL   H12616818   4.730   6.032   2.206 -1.1828  1.5567 -0.3818
   27MOL   H12716819   4.967   5.912   2.052 -0.7282 -1.5631  0.7955
   27MOL   H12816820   4.934   5.873   2.220  0.2028 -0.3894  0.1137
   27MOL   H12916821   4.980   6.149   2.209 -0.6780  0.0026  0.8636
   27MOL   C13016822   5.152   6.040   2.239  0.0684 -0.2419 -0.2717
   27MOL   O13116823   5.197   5.927   2.248 -0.2689 -0.0648  0.3813
   27MOL   C13216824   5.240   6.160   2.268 -0.1037  0.7286 -0.8964
   27MOL   C13316825   5.366   6.168   2.188 -0.4238 -0.1657 -0.7959
   27MOL   C13416826   5.345   6.180   2.036  0.4745  0.1881  0.0824
   27MOL   C13516827   5.459   6.222   1.949  0.0854 -0.1508 -0.1459
   27MOL   C13616828   5.536   6.345   1.996 -0.4647  0.4116  0.0966
   27MOL   O13716829   5.662   6.345   2.005 -0.3535  0.0514  0.9400
   27MOL   N13816830   5.466   6.456   2.018  0.0436  0.1656 -0.4965
   27MOL   C13916831   5.516   6.584   2.083 -0.3719  0.1675  0.2056
   27MOL   C14016832   5.537   6.573   2.227 -0.4346 -0.3350  0.1756
   27MOL   C14116833   5.546   6.717   2.280  0.2019  0.0307 -0.1179
   27MOL   C14216834   5.593   6.729   2.425  0.0577  1.0689 -0.2530
   27MOL   N14316835   5.618   6.867   2.471 -0.8880  0.1251 -0.3874
   27MOL   H14416836   5.184   6.249   2.240 -0.2759  1.2868  1.1352
   27MOL   H14516837   5.247   6.164   2.376  0.6326  0.0863 -0.9197
   27MOL   H14616838   5.422   6.252   2.227 -1.7240 -0.3388  1.5615
   27MOL   H14716839   5.423   6.078   2.209  1.8081  1.4704  0.2491
   27MOL   H14816840   5.278   6.266   2.030  1.2670  0.8709  0.7959
   27MOL   H14916841   5.287   6.094   2.000  0.6885  0.2405 -0.3796
   27MOL   H15016842   5.432   6.238   1.844  1.4980  0.1627 -0.4754
   27MOL   H15116843   5.537   6.146   1.948 -0.4642 -0.7227 -1.3790
   27MOL   H15216844   5.367   6.449   1.999 -0.4262  0.6185  1.6122
   27MOL   H15316845   5.441   6.656   2.050  0.4872  0.7905 -0.4298
   27MOL   H15416846   5.605   6.608   2.023 -1.0230 -2.2536 -1.8583
   27MOL   H15516847   5.451   6.517   2.263 -0.4300  0.2589  1.1184
   27MOL   H15616848   5.631   6.520   2.242 -0.1453  0.1422  0.0730
   27MOL   H15716849   5.446   6.760   2.279 -0.1639 -0.7148  1.5308
   27MOL   H15816850   5.618   6.773   2.221  0.1792  1.0360  0.7793
   27MOL   H15916851   5.678   6.664   2.443 -0.4997  0.7522  1.3418
   27MOL   H16016852   5.518   6.686   2.491 -0.2483  1.2570 -0.4726
   27MOL   H16116853   5.716   6.878   2.488 -0.4513 -0.2292 -2.4846
   27MOL   C16216854   5.515   6.950   2.503  0.2418 -0.2734  0.3036
   27MOL   O16316855   5.402   6.916   2.487 -0.4584  0.3671  0.2798
   27MOL   C16416856   5.548   7.086   2.557 -0.3971 -0.3728  0.0522
   27MOL   C16516857   5.483   7.201   2.473 -0.4080 -0.7551  0.8217
   27MOL   C16616858   5.591   7.271   2.385 -0.4426 -0.2813 -0.4746
   27MOL   C16716859   5.634   7.189   2.261 -0.4641 -0.7529 -0.1958
   27MOL   C16816860   5.705   7.269   2.158 -0.3097  0.1253  0.2106
   27MOL   O16916861   5.804   7.337   2.197  0.4798  0.0615 -0.0420
   27MOL   N17016862   5.644   7.283   2.034  0.0082 -0.0506  0.0585
   27MOL   C17116863   5.533   7.203   1.983 -0.7370 -0.0518 -0.2224
   27MOL   C17216864   5.396   7.252   2.033  0.0537  0.1255  0.2543
   27MOL   C17316865   5.283   7.142   2.004 -0.1784 -1.1115  0.7490
   27MOL   C17416866   5.289   7.017   2.090 -0.5904  0.6390  0.0569
   27MOL   N17516867   5.158   6.954   2.072  0.1716  0.0145 -0.2608
   27MOL   H17616868   5.505   7.094   2.657  0.8485  1.5802  0.4797
   27MOL   H17716869   5.656   7.098   2.562 -0.4804 -0.3493  2.6679
   27MOL   H17816870   5.393   7.168   2.421 -0.3763 -1.0752  0.9742
   27MOL   H17916871   5.455   7.278   2.545  2.2735 -1.4739  2.6733
   27MOL   H18016872   5.675   7.316   2.438 -0.5240 -1.7945  0.9786
   27MOL   H18116873   5.535   7.359   2.353  1.5152  1.0108 -0.3930
   27MOL   H18216874   5.554   7.127   2.221 -0.8781  1.3857 -2.8229
   27MOL   H18316875   5.696   7.107   2.298 -0.6653 -1.2483 -0.9650
   27MOL   H18416876   5.688   7.350   1.973  1.2498 -1.5264 -0.6624
   27MOL   H18516877   5.545   7.100   2.016 -0.0368 -0.3037 -1.2334
   27MOL   H18616878   5.528   7.220   1.875  0.5400 -0.6680 -0.3893
   27MOL   H18716879   5.386   7.277   2.138  1.2634 -1.0271  0.6597
   27MOL   H18816880   5.367   7.338   1.972 -1.8546 -0.9484 -0.3951
   27MOL   H18916881   5.288   7.112   1.900  0.6420  0.1059  0.4230
   27MOL   H19016882   5.193   7.198   2.029  1.0713  0.7508  1.2434
   27MOL   H19116883   5.294   7.034   2.198  2.0902 -0.0632  0.0775
   27MOL   H19216884   5.373   6.952   2.067 -0.0791  0.2511  2.7530
   27MOL   H19316885   5.084   7.010   2.032  0.6907  0.1068 -1.0830
   27MOL   C19416886   5.141   6.822   2.080  0.5449 -0.2416  0.5943
   27MOL   O19516887   5.235   6.744   2.097 -0.4167 -0.2779  0.5486
   27MOL   C19616888   4.998   6.774   2.047  0.2269  0.0228 -0.1276
   27MOL   C19716889   4.995   6.684   1.917 -0.0190  0.1720 -0.3583
   27MOL   C19816890   5.019   6.537   1.945 -0.0998 -0.0022 -0.5997
   27MOL   C19916891   5.021   6.444   1.821 -0.0075 -0.7672 -0.5050
   27MOL   C20016892   5.154   6.457   1.755 -0.3390 -0.7230  0.0210
   27MOL   O20116893   5.251   6.405   1.813  0.1158  0.5172 -0.3761
   27MOL   N20216894   5.170   6.526   1.645 -0.3687 -0.1939  0.7531
   27MOL   C20316895   5.304   6.551   1.587 -0.6738 -0.2717 -0.0289
   27MOL   C20416896   5.307   6.684   1.496 -0.3161  0.3562  0.3668
   27MOL   C20516897   5.230   6.805   1.555 -0.5315  0.7945 -0.0205
   27MOL   C20616898   5.273   6.939   1.506 -0.2706 -0.7858 -0.1819
   27MOL   N20716899   5.417   6.950   1.520 -0.8854  0.2215 -0.7800
   27MOL   H20816900   4.956   6.718   2.131  0.2430 -0.7282 -0.6113
   27MOL   H20916901   4.932   6.856   2.019 -0.8132 -1.4606 -2.1498
   27MOL   H21016902   4.902   6.697   1.861  0.8774  2.6573 -1.3497
   27MOL   H21116903   5.070   6.726   1.851  1.4192  2.0121  2.3844
   27MOL   H21216904   4.939   6.504   2.011 -0.4392 -2.5384 -2.1912
   27MOL   H21316905   5.107   6.531   2.009  1.0766 -0.3419 -2.2089
   27MOL   H21416906   4.934   6.472   1.761 -1.0983  0.3963  1.5699
   27MOL   H21516907   5.003   6.340   1.848  1.9493 -0.5402  1.8374
   27MOL   H21616908   5.085   6.547   1.594  0.9822  2.2242 -0.6408
   27MOL   H21716909   5.328   6.462   1.529  0.1548  0.5103 -0.9148
   27MOL   H21816910   5.386   6.554   1.658  0.1973 -0.1682 -1.0258
   27MOL   H21916911   5.414   6.701   1.484 -0.3682  0.4905  0.1043
   27MOL   H22016912   5.281   6.653   1.395  1.4027  0.8719 -0.2518
   27MOL   H22116913   5.243   6.811   1.663  0.7126 -2.5894  0.0782
   27MOL   H22216914   5.121   6.800   1.548 -0.4860 -0.1337 -0.0428
   27MOL   H22316915   5.239   7.027   1.560 -0.0769 -1.4478  1.0413
   27MOL   H22416916   5.237   6.943   1.403  0.3140 -0.8546 -0.3938
   27MOL   H22516917   5.469   6.935   1.434 -0.1091 -0.1886 -0.2459
   27MOL   C22616918   5.484   6.964   1.634 -0.0980 -0.4184  0.3823
   27MOL   O22716919   5.428   6.992   1.740  0.6725 -0.0290  0.2478
   27MOL   C22816920   5.638   6.940   1.630 -0.3094 -0.6237  0.0439
   27MOL   C22916921   5.687   6.794   1.606  0.0121  0.5764 -0.0703
   27MOL   C23016922   5.652   6.702   1.728 -0.3393 -0.5034 -0.6539
   27MOL   C23116923   5.715   6.566   1.723 -0.0406  0.2748 -0.0390
   27MOL   C23216924   5.854   6.563   1.668  0.3882  0.5114  0.1907
   27MOL   O23316925   5.946   6.614   1.731 -0.3936 -0.4217 -0.1148
   27MOL   N23416926   5.868   6.491   1.555  0.0286 -0.8573  0.2294
   27MOL   C23516927   5.994   6.471   1.485  0.0252 -1.0482  0.1858
   27MOL   C23616928   6.028   6.329   1.503  0.1979 -0.5270  0.0552
   27MOL   C23716929   6.172   6.302   1.458 -0.0291 -0.7656  0.0593
   27MOL   C23816930   6.264   6.315   1.576 -0.1557 -0.8498  0.5404
   27MOL   N23916931   6.303   6.450   1.593 -0.0480  0.1229 -0.2804
   27MOL   H24016932   5.679   7.012   1.558 -2.5703 -1.7261 -2.4077
   27MOL   H24116933   5.673   6.967   1.730  1.0128  0.5920 -0.7169
   27MOL   H24216934   5.648   6.751   1.513 -1.3357  0.1864  0.6546
   27MOL   H24316935   5.795   6.795   1.592 -0.2486  1.9503 -2.2280
   27MOL   H24416936   5.547   6.694   1.755 -0.3524 -0.3544 -0.6606
   27MOL   H24516937   5.690   6.741   1.823  1.7854  1.2611 -2.1690
   27MOL   H24616938   5.652   6.502   1.661  0.7134 -0.3101 -0.2021
   27MOL   H24716939   5.702   6.522   1.822  0.0387 -0.0348 -0.1664
   27MOL   H24816940   5.788   6.443   1.516 -0.8131  0.4572  0.3000
   27MOL   H24916941   6.069   6.539   1.526 -0.2628  0.3699 -1.5703
   27MOL   H25016942   5.986   6.501   1.380 -3.7766 -1.4375  0.2891
   27MOL   H25116943   6.010   6.285   1.601 -0.9826  1.4917  0.7882
   27MOL   H25216944   5.963   6.271   1.437  1.8072 -2.3583  0.0699
   27MOL   H25316945   6.197   6.370   1.377 -1.4126 -0.0468  0.2085
   27MOL   H25416946   6.176   6.201   1.418  0.6292  0.7985 -4.0164
   27MOL   H25516947   6.356   6.257   1.562  0.6007  0.0502  1.6431
   27MOL   H25616948   6.221   6.265   1.663  0.4520 -1.2868  0.5974
   27MOL   H25716949   6.235   6.521   1.570  0.4141  0.6058 -0.1412
   27MOL   C25816950   6.401   6.509   1.664  0.1702 -0.0095  0.3148
   27MOL   O25916951   6.483   6.447   1.731  0.1573 -0.1301 -0.0708
   27MOL   C26016952   6.377   6.660   1.680  0.3875  0.2639 -0.4685
   27MOL   C26116953   6.343   6.688   1.830  0.5363 -0.2161 -0.0273
   27MOL   C26216954   6.337   6.840   1.857  0.6417 -0.8530 -0.0739
   27MOL   C26316955   6.458   6.931   1.811 -0.1728  0.3878  0.3959
   27MOL   C26416956   6.583   6.887   1.887  0.4911  0.1099  0.0597
   27MOL   O26516957   6.578   6.873   2.007  0.7553 -0.0302 -0.5635
   27MOL   N26616958   6.695   6.871   1.810  0.5150 -0.2229  0.4726
   27MOL   C26716959   6.830   6.833   1.862  0.0129 -0.5742 -0.3040
   27MOL   C26816960   6.903   6.748   1.767  0.1012 -0.5444 -0.1915
   27MOL   C26916961   6.819   6.619   1.746  0.8477 -0.5875 -0.0381
   27MOL   C27016962   6.887   6.518   1.647  0.1504  0.5204 -0.5415
   27MOL   N27116963   6.784   6.415   1.620  0.2307 -0.7003 -0.3912
   27MOL   H27216964   6.476   6.703   1.664 -0.3499  2.3632  0.5082
   27MOL   H27316965   6.305   6.703   1.612 -2.5908 -3.1916  0.3565
   27MOL   H27416966   6.243   6.649   1.850  0.2032  0.6269 -0.0136
   27MOL   H27516967   6.408   6.644   1.905  2.4849 -1.2871 -2.2988
   27MOL   H27616968   6.324   6.857   1.964  0.6514  0.6940 -0.2989
   27MOL   H27716969   6.253   6.888   1.806  1.6565  0.0402 -0.9378
   27MOL   H27816970   6.425   7.030   1.843  0.9017  0.4286  1.4445
   27MOL   H27916971   6.467   6.927   1.703 -0.4735 -0.3323  0.3902
   27MOL   H28016972   6.693   6.878   1.709  1.0049 -0.9364  0.4127
   27MOL   H28116973   6.827   6.781   1.957 -0.2427 -0.4713 -0.2535
   27MOL   H28216974   6.890   6.920   1.889 -1.5229 -0.4237  2.7717
   27MOL   H28316975   6.915   6.801   1.672 -0.6829 -0.2093 -0.1032
   27MOL   H28416976   7.007   6.741   1.800  0.3167  1.0177 -0.5199
   27MOL   H28516977   6.716   6.633   1.716  0.6936 -0.9007  0.3396
   27MOL   H28616978   6.816   6.569   1.843 -0.2966  1.1027  0.8253
   27MOL   H28716979   6.959   6.458   1.702 -1.6519 -0.8441  0.3863
   27MOL   H28816980   6.924   6.569   1.558 -1.6863 -1.1151 -2.2972
   27MOL   H28916981   6.687   6.444   1.626  0.5028  0.0877  0.1112
   27MOL   C29016982   6.810   6.294   1.569 -0.5987  0.4777  0.2704
   27MOL   O29116983   6.924   6.243   1.568 -0.1037 -0.6235  0.4050
   27MOL   C29216984   6.694   6.211   1.515 -0.2561 -0.7148  0.4791
   27MOL   C29316985   6.671   6.073   1.581 -0.0698 -0.5016  0.0557
   27MOL   C29416986   6.590   6.079   1.711  0.0467  0.9114 -0.6328
   27MOL   C29516987   6.549   5.928   1.761 -0.5665 -0.2748  0.2337
   27MOL   C29616988   6.431   5.923   1.855  0.3536  0.2853  0.1477
   27MOL   O29716989   6.319   5.903   1.807  0.4559  0.0009 -0.1752
   27MOL   N29816990   6.453   5.936   1.990  0.7233  0.2121 -0.4210
   27MOL   C29916991   6.351   5.927   2.092 -1.2889 -1.0065  0.0229
   27MOL   C30016992   6.318   5.779   2.125  0.0546  0.5288 -0.0507
   27MOL   C30116993   6.187   5.765   2.207  0.0636  0.1462 -0.0214
   27MOL   C30216994   6.160   5.629   2.254  0.3222  0.0671 -0.7503
   27MOL   N30316995   6.232   5.616   2.380 -0.3360 -0.1418 -0.8641
   27MOL   H30416996   6.606   6.273   1.500  0.5363  0.5215  0.9102
   27MOL   H30516997   6.723   6.196   1.411 -0.4146 -2.1272  0.6192
   27MOL   H30616998   6.616   6.008   1.513 -0.7759  1.0254 -0.8388
   27MOL   H30716999   6.759   6.013   1.608  0.0526 -0.3478 -0.0011
   27MOL   H30817000   6.497   6.136   1.707 -0.7280 -0.2893  0.1155
   27MOL   H30917001   6.650   6.128   1.788 -1.7395  0.9733  0.7443
   27MOL   H31017002   6.640   5.891   1.809  0.3200  0.0530 -1.1774
   27MOL   H31117003   6.528   5.859   1.680 -1.3928  0.1580  0.0832
   27MOL   H31217004   6.548   5.940   2.022 -0.2401 -1.6480  2.9258
   27MOL   H31317005   6.263   5.970   2.045  0.6409  1.7750 -1.2115
   27MOL   H31417006   6.378   5.976   2.186 -0.6130 -0.2992 -0.5327
   27MOL   H31517007   6.305   5.712   2.040  0.8427 -1.8641  1.6637
   27MOL   H31617008   6.402   5.742   2.184 -0.8922 -1.0294  0.3430
   27MOL   H31717009   6.108   5.794   2.137 -0.3319  0.7335  0.6600
   27MOL   H31817010   6.181   5.843   2.282  0.1827  1.6037 -1.5088
   27MOL   H31917011   6.191   5.558   2.177  1.7933 -0.6409  0.4792
   27MOL   H32017012   6.054   5.620   2.275  0.7538 -2.6667  0.4487
   27MOL   H32117013   6.274   5.701   2.414  1.6329 -1.1019 -0.8257
   27MOL   C32217014   6.290   5.508   2.435 -0.4476 -0.0588  0.0466
   27MOL   O32317015   6.264   5.393   2.398 -0.1759 -0.1182  0.0647
   27MOL   C32417016   6.399   5.537   2.547  0.0950  0.2719 -0.2935
   27MOL   C32517017   6.499   5.415   2.575 -0.1684  0.0186 -0.3863
   27MOL   C32617018   6.596   5.461   2.685  0.4708 -0.2014 -0.2125
   27MOL   C32717019   6.713   5.368   2.734  0.2098  0.2784 -0.0499
   27MOL   C32817020   6.812   5.314   2.626 -0.2211  0.7411 -0.4539
   27MOL   O32917021   6.814   5.354   2.510 -0.8121  0.0456  0.5123
   27MOL   N33017022   6.905   5.232   2.674 -0.6113 -0.3912 -0.0559
   27MOL   C33117023   7.022   5.173   2.608 -0.2356 -0.7036 -1.2103
   27MOL   C33217024   7.141   5.194   2.700 -0.0458 -0.2327 -0.1670
   27MOL   C33317025   7.120   5.145   2.846 -0.4566 -0.7011 -0.0542
   27MOL   C33417026   7.111   4.992   2.865 -0.5428 -0.0066 -0.0050
   27MOL   N33517027   6.997   4.921   2.805  0.3933 -0.5334  0.6071
   27MOL   H33617028   6.444   5.634   2.525 -2.2494  1.4701 -0.0326
   27MOL   H33717029   6.351   5.550   2.644 -0.6592  0.7227 -0.7220
   27MOL   H33817030   6.447   5.331   2.621 -2.3859  2.1740  1.1867
   27MOL   H33917031   6.550   5.383   2.484 -2.2722  2.5115 -2.5454
   27MOL   H34017032   6.542   5.508   2.768  0.9401 -0.4187  0.2225
   27MOL   H34117033   6.657   5.537   2.637 -0.0987  0.4833  0.1298
   27MOL   H34217034   6.666   5.281   2.780  1.0942  0.2554  0.8181
   27MOL   H34317035   6.764   5.431   2.807 -1.9170  2.4575 -0.3518
   27MOL   H34417036   6.902   5.194   2.768  0.9716 -1.4745 -0.4271
   27MOL   H34517037   7.042   5.218   2.510  0.2610  0.3554 -0.6360
   27MOL   H34617038   6.999   5.067   2.604  0.2670 -0.8278 -0.7838
   27MOL   H34717039   7.226   5.143   2.655 -1.2454 -3.1152  0.6789
   27MOL   H34817040   7.163   5.301   2.701  1.3812 -0.5005 -1.3896
   27MOL   H34917041   7.039   5.200   2.894 -1.6456 -2.7392  0.3096
   27MOL   H35017042   7.200   5.182   2.910 -0.9345  0.1699  0.0444
   27MOL   H35117043   7.116   4.957   2.968  2.8414  1.6420  0.4780
   27MOL   H35217044   7.200   4.946   2.820 -1.0904  0.5866 -1.7452
   27MOL   H35317045   7.018   4.846   2.739 -2.8399 -0.6720 -0.3225
   27MOL   C35417046   6.864   4.940   2.821  0.6747  0.1624 -0.6741
   27MOL   O35517047   6.816   5.030   2.888  0.5549  0.2854  0.9784
   27MOL   C35617048   6.760   4.841   2.761  0.2090 -0.9938 -0.6080
   27MOL   C35717049   6.654   4.914   2.671 -0.6480  0.0462 -0.4946
   27MOL   C35817050   6.706   4.936   2.532 -0.3361 -0.3111  0.6193
   27MOL   C35917051   6.638   5.048   2.450 -0.1732 -0.3831 -0.2950
   27MOL   C36017052   6.693   5.058   2.309  0.2608  0.5617  0.4324
   27MOL   O36117053   6.682   4.964   2.238  0.2476 -0.3130 -0.0811
   27MOL   N36217054   6.763   5.164   2.282  0.2045 -0.3162  0.8353
   27MOL   C36317055   6.826   5.187   2.152  0.6011 -0.1972 -0.7138
   27MOL   C36417056   6.880   5.334   2.139  0.4763  0.4233 -0.3355
   27MOL   C36517057   6.919   5.377   1.996  1.0192  0.3569 -0.2572
   27MOL   C36617058   7.042   5.299   1.940  0.7147  0.5388  0.4770
   27MOL   N36717059   7.087   5.349   1.811  1.0172 -0.3551 -0.2744
   27MOL   H36817060   6.822   4.764   2.715  0.3413 -0.5068 -1.2456
   27MOL   H36917061   6.705   4.797   2.844  0.4885  0.4387  0.3503
   27MOL   H37017062   6.564   4.853   2.666 -0.2692 -0.6932  1.6697
   27MOL   H37117063   6.616   4.993   2.736  0.2465  0.9484 -1.0551
   27MOL   H37217064   6.694   4.847   2.470 -2.9720  0.5487 -0.2163
   27MOL   H37317065   6.813   4.958   2.535 -0.3332 -0.2234  0.0953
   27MOL   H37417066   6.651   5.141   2.505 -1.3168 -1.0408  1.1325
   27MOL   H37517067   6.540   5.003   2.432 -0.1096 -1.0603  0.9824
   27MOL   H37617068   6.792   5.223   2.358  1.4772  0.8826 -0.5549
   27MOL   H37717069   6.760   5.151   2.073  0.8709 -2.4417  0.0639
   27MOL   H37817070   6.909   5.118   2.142  1.1031  0.3069 -0.0613
   27MOL   H37917071   6.800   5.398   2.174  1.2132  0.5799  1.1075
   27MOL   H38017072   6.945   5.371   2.218  0.2590  1.2281 -0.5291
   27MOL   H38117073   6.938   5.484   1.984  1.5947  0.4623  1.3708
   27MOL   H38217074   6.844   5.352   1.922  0.9857  0.5586 -0.2918
   27MOL   H38317075   7.010   5.196   1.932  1.1680  0.5136 -1.1484
   27MOL   H38417076   7.122   5.299   2.014  0.4907  1.0256  0.7213
   27MOL   H38517077   7.080   5.448   1.792 -1.2660 -0.4784 -0.2153
   27MOL   C38617078   7.139   5.276   1.720  0.0264  0.0437 -0.3188
   27MOL   O38717079   7.155   5.152   1.728  0.3933  0.5013  0.5930
   27MOL   C38817080   7.186   5.352   1.593  0.2582  0.0171  0.2086
   27MOL   C38917081   7.295   5.273   1.508  0.4220 -0.1971 -0.2679
   27MOL   C39017082   7.238   5.182   1.395  0.1009 -0.4530  0.1834
   27MOL   C39117083   7.344   5.107   1.325 -0.5071 -0.5231 -0.1451
   27MOL   C39217084   7.360   5.150   1.182 -0.6010 -0.2817 -0.3080
   27MOL   O39317085   7.311   5.088   1.088 -0.7185 -0.0625  0.3197
   27MOL   N39417086   7.424   5.264   1.164 -0.2128  0.1681 -0.2541
   27MOL   C39517087   7.456   5.315   1.035 -0.9063  0.0430 -0.5957
   27MOL   C39617088   7.542   5.450   1.034  0.4656 -0.2740  0.2954
   27MOL   C39717089   7.650   5.453   1.137 -0.7166  0.2687  0.4352
   27MOL   C39817090   0.015   5.593   1.125  0.3183  0.2451 -0.4191
   27MOL   N39917091   0.120   5.607   1.215  0.3555 -0.6708  0.3538
   27MOL   H40017092   7.095   5.345   1.534  0.6398  1.0638 -0.5244
   27MOL   H40117093   7.205   5.459   1.607  0.2277  0.2378 -1.3212
   27MOL   H40217094   7.365   5.347   1.466  0.2276 -0.1975 -0.5959
   27MOL   H40317095   7.356   5.220   1.581 -0.4612  1.1583  1.4717
   27MOL   H40417096   7.183   5.244   1.325 -3.0274 -0.2394  2.6829
   27MOL   H40517097   7.163   5.115   1.438 -0.3619 -0.1955 -0.2197
   27MOL   H40617098   7.306   5.005   1.311  1.8179 -1.4045 -0.1829
   27MOL   H40717099   7.436   5.092   1.381 -1.2129  1.1760  1.5617
   27MOL   H40817100   7.464   5.307   1.246  2.6241  0.3664 -1.6548
   27MOL   H40917101   7.363   5.319   0.978 -0.3894 -1.2198 -1.5537
   27MOL   H41017102   7.515   5.242   0.980  1.8745  2.6478 -1.1659
   27MOL   H41117103   7.577   5.465   0.932 -0.5864 -0.3912 -0.0853
   27MOL   H41217104   7.478   5.536   1.053  1.4295  0.6944 -0.8140
   27MOL   H41317105   0.024   5.376   1.124 -1.0536  0.0452 -0.1925
   27MOL   H41417106   7.617   5.429   1.238 -1.0772 -2.4698 -0.2987
   27MOL   H41517107   7.637   5.668   1.135 -0.8221 -0.9037 -0.6269
   27MOL   H41617108   0.058   5.603   1.025 -0.5651  0.5475 -0.7753
   27MOL   H41717109   0.138   5.527   1.274 -0.1676  0.1487  1.6287
   27MOL   C41817110   0.216   5.701   1.216  0.0064 -0.6717  0.5726
   27MOL   O41917111   0.211   5.793   1.129 -0.4145  0.1806  0.0778
   27MOL   C42017112   0.335   5.695   1.305 -0.0421 -0.1451 -0.3237
   27MOL   C42117113   0.475   5.730   1.244  0.1717 -0.1602 -0.2084
   27MOL   C42217114   0.502   5.881   1.253  0.1050  0.3292 -0.0132
   27MOL   C42317115   0.627   5.926   1.169 -0.0419 -0.3065 -0.0967
   27MOL   C42417116   0.757   5.915   1.247 -0.0799 -0.0111  0.4873
   27MOL   O42517117   0.780   5.994   1.334  0.4048 -0.5582  0.1805
   27MOL   N42617118   0.842   5.813   1.217 -0.4123  0.7024  0.1497
   27MOL   C42717119   0.980   5.786   1.265  0.6053 -0.3715 -0.1445
   27MOL   C42817120   1.074   5.813   1.146 -0.1696 -0.5153  0.2893
   27MOL   C42917121   1.088   5.694   1.048 -0.3363 -0.2406 -0.0030
   27MOL   C43017122   1.182   5.730   0.936 -0.0124 -0.5733  0.4327
   27MOL   N43117123   1.121   5.839   0.859 -0.5526 -0.1966  0.3218
   27MOL   H43217124   0.328   5.755   1.395  0.8741  0.8922 -0.9329
   27MOL   H43317125   0.354   5.596   1.346  0.5885  0.6419  1.3237
   27MOL   H43417126   0.554   5.673   1.292  0.2457  2.3845  2.8931
   27MOL   H43517127   0.483   5.716   1.136  0.4391 -1.8665  0.0235
   27MOL   H43617128   0.514   5.914   1.356  1.5642 -1.7261  0.4938
   27MOL   H43717129   0.415   5.932   1.211 -1.1716 -0.4939  1.5837
   27MOL   H43817130   0.608   6.026   1.131  1.6284 -0.3035 -0.9640
   27MOL   H43917131   0.636   5.855   1.087  0.4596 -0.4105  0.0450
   27MOL   H44017132   0.815   5.748   1.144 -0.3464 -1.2762  1.8298
   27MOL   H44117133   0.997   5.686   1.304  0.7715 -0.0868  0.5007
   27MOL   H44217134   1.008   5.852   1.347  0.2133  0.1863 -0.4499
   27MOL   H44317135   1.035   5.903   1.099 -0.3802 -0.6060  0.2952
   27MOL   H44417136   1.175   5.833   1.183 -0.2193  0.3403 -0.0255
   27MOL   H44517137   0.988   5.667   1.012 -0.0046 -1.7118  0.1220
   27MOL   H44617138   1.120   5.604   1.101  1.4494 -0.1958 -0.9610
   27MOL   H44717139   1.197   5.646   0.869  0.3260  0.0512 -0.2869
   27MOL   H44817140   1.274   5.768   0.982  0.2240  1.0898 -1.3230
   27MOL   H44917141   1.115   5.932   0.899 -0.7235  0.1550 -0.5105
   27MOL   C45017142   1.049   5.818   0.748  0.0383 -0.1425 -0.7733
   27MOL   O45117143   1.049   5.711   0.693 -0.6577  0.1424 -0.5237
   27MOL   C45217144   0.971   5.937   0.695 -0.2837  0.0683  0.1100
   27MOL   C45317145   0.815   5.900   0.695  0.0351  0.3717  0.6241
   27MOL   C45417146   0.765   5.875   0.840 -0.3742 -0.6407 -0.0955
   27MOL   C45517147   0.724   5.731   0.863  0.2358  0.5183 -0.3240
   27MOL   C45617148   0.580   5.701   0.830 -0.0304  0.7948 -0.1489
   27MOL   O45717149   0.520   5.757   0.735 -0.0247 -0.2679  0.0291
   27MOL   N45817150   0.521   5.603   0.896 -0.5710  0.0301  0.4213
   27MOL   C45917151   0.377   5.577   0.891 -0.4732  0.2239 -0.3433
   27MOL   C46017152   0.342   5.444   0.965  0.2755 -0.3392 -0.1859
   27MOL   C46117153   0.399   5.321   0.906 -0.2220  0.1266 -0.7405
   27MOL   C46217154   0.348   5.193   0.980  0.1710 -0.4007  0.3458
   27MOL   N46317155   0.424   5.075   0.933  0.1012 -1.1805  0.3291
   27MOL   H46417156   0.984   6.032   0.746 -5.6999 -0.5910  3.1721
   27MOL   H46517157   0.996   5.957   0.591 -2.3576  0.0287 -0.4269
   27MOL   H46617158   0.746   5.974   0.656 -0.5320 -1.6453 -2.4067
   27MOL   H46717159   0.805   5.805   0.642  2.1737  0.3367  0.2178
   27MOL   H46817160   0.683   5.943   0.864 -0.2510 -0.8559  0.9483
   27MOL   H46917161   0.843   5.906   0.909 -1.2168  0.5176  0.3587
   27MOL   H47017162   0.741   5.689   0.962 -2.1941 -3.4310 -1.4459
   27MOL   H47117163   0.788   5.659   0.811  1.8631  1.6961 -0.0142
   27MOL   H47217164   0.574   5.545   0.959  0.3471  1.7080  1.2191
   27MOL   H47317165   0.351   5.570   0.785  2.0509 -0.1783 -0.9826
   27MOL   H47417166   0.334   5.667   0.935  0.3372  0.0335  0.8526
   27MOL   H47517167   0.379   5.464   1.066  0.8007 -2.1377 -0.0017
   27MOL   H47617168   0.238   5.419   0.984  0.5436 -0.8230  0.6797
   27MOL   H47717169   0.507   5.323   0.921 -0.3673 -1.4660  0.6280
   27MOL   H47817170   0.377   5.310   0.799  0.9629  1.6978 -1.1649
   27MOL   H47917171   0.241   5.182   0.965  0.1626 -1.3928  1.0753
   27MOL   H48017172   0.363   5.203   1.088 -0.8034  0.5001  0.4072
   27MOL   H48117173   0.511   5.054   0.981  1.3898 -0.1167 -1.4683
   27MOL   C48217174   0.386   4.993   0.835 -0.4261  0.1434  0.5283
   27MOL   O48317175   0.277   4.998   0.787 -0.0883  0.3219 -0.0498
   27MOL   C48417176   0.487   4.902   0.771  0.2792  0.1415  0.2488
   27MOL   C48517177   0.448   4.752   0.733  0.4136 -0.4474  0.0564
   27MOL   C48617178   0.378   4.687   0.859  0.1047  0.0905  0.2825
   27MOL   C48717179   0.394   4.531   0.870 -0.5389 -0.0217  0.0360
   27MOL   C48817180   0.381   4.490   1.024  0.3138 -0.2608  0.4007
   27MOL   O48917181   0.316   4.556   1.107  0.0829  0.3446 -0.4849
   27MOL   N49017182   0.454   4.383   1.062 -0.1579  0.1419  0.2973
   27MOL   C49117183   0.443   4.309   1.179  0.1037  0.0011 -1.0618
   27MOL   C49217184   0.353   4.182   1.149 -0.6629 -0.1060 -0.0728
   27MOL   C49317185   0.392   4.093   1.029 -0.1685  0.6899  0.1460
   27MOL   C49417186   0.327   4.130   0.891  0.2118  0.1816 -0.6591
   27MOL   N49517187   0.413   4.102   0.777 -0.0853 -0.1538  0.2531
   27MOL   H49617188   0.518   4.952   0.679  0.4398 -1.7669 -0.7666
   27MOL   H49717189   0.583   4.903   0.822 -0.0889 -0.4302  0.9548
   27MOL   H49817190   0.380   4.762   0.649  1.4977 -1.0477 -0.8949
   27MOL   H49917191   0.537   4.695   0.708  0.9035  0.7956 -1.0707
   27MOL   H50017192   0.278   4.726   0.875  0.4878  1.6879 -1.1243
   27MOL   H50117193   0.435   4.719   0.946  0.7801 -0.9555  0.2451
   27MOL   H50217194   0.491   4.498   0.832  0.3931  2.4478  0.1847
   27MOL   H50317195   0.312   4.484   0.815  0.0270  0.5974 -1.3607
   27MOL   H50417196   0.509   4.346   0.986  0.0898  0.9656  0.0673
   27MOL   H50517197   0.399   4.365   1.261 -1.2525 -2.6154  0.0681
   27MOL   H50617198   0.546   4.284   1.208  0.0792  0.1301 -0.8616
   27MOL   H50717199   0.366   4.116   1.235  0.4754 -0.8146 -0.7637
   27MOL   H50817200   0.248   4.207   1.135 -0.7107 -0.5455 -0.5461
   27MOL   H50917201   0.373   3.987   1.043  0.6416  0.2525 -1.8392
   27MOL   H51017202   0.499   4.101   1.012 -0.0727 -1.5284 -0.4758
   27MOL   H51117203   0.264   4.219   0.891 -0.3833 -0.2215  0.4799
   27MOL   H51217204   0.245   4.059   0.879 -0.1277  0.1973  1.3441
   27MOL   H51317205   0.377   4.047   0.699 -1.6926  1.7460 -0.3821
   27MOL   C51417206   0.532   4.155   0.752  0.0570 -0.1376 -0.0611
   27MOL   O51517207   0.576   4.249   0.818  0.3627  0.6243 -0.0694
   27MOL   C51617208   0.604   4.097   0.635 -0.0192  0.7342 -0.1196
   27MOL   C51717209   0.575   4.177   0.507  0.0563 -0.2911 -0.0994
   27MOL   C51817210   0.635   4.125   0.379 -0.2168  0.1245 -0.6358
   27MOL   C51917211   0.571   4.188   0.264  0.2501  0.4270  0.1176
   27MOL   C52017212   0.644   4.129   0.141 -0.4352  0.3773 -0.4282
   27MOL   O52117213   0.613   4.016   0.101 -0.3372  0.2578  0.0972
   27MOL   N52217214   0.725   4.203   0.072 -0.1960  0.0763 -0.2570
   27MOL   C52317215   0.801   4.319   0.121 -1.3490  0.5173  0.1694
   27MOL   C52417216   0.765   4.453   0.065  1.2277 -0.4277  0.1448
   27MOL   C52517217   0.835   4.562   0.139  0.5027 -0.9067  0.6822
   27MOL   C52617218   0.799   4.705   0.085 -0.8528 -0.3140 -0.0891
   27MOL   N52717219   0.886   4.811   0.137  0.4839 -0.4192 -0.5126
   27MOL   H52817220   0.710   4.086   0.658 -0.5565 -2.2963  1.2201
   27MOL   H52917221   0.576   3.993   0.619  1.2379  0.6482 -1.9760
   27MOL   H53017222   0.467   4.190   0.497 -0.4021 -3.4249  0.0275
   27MOL   H53117223   0.610   4.278   0.524 -0.0947 -0.9278  4.7693
   27MOL   H53217224   0.638   4.016   0.381 -2.0419  0.0675 -0.3531
   27MOL   H53317225   0.742   4.146   0.374 -0.2999  1.2944  2.1180
   27MOL   H53417226   0.579   4.296   0.260 -1.2985  0.5530  0.0194
   27MOL   H53517227   0.467   4.153   0.261 -0.5345  2.6737 -0.1070
   27MOL   H53617228   0.748   4.172   7.679 -0.6933  1.4174 -0.8336
   27MOL   H53717229   0.907   4.303   0.106 -0.9674  0.7890  2.3985
   27MOL   H53817230   0.793   4.334   0.229 -1.6738 -1.2249  0.3977
   27MOL   H53917231   0.782   4.458   7.659  1.2345 -2.7422  0.0170
   27MOL   H54017232   0.657   4.463   0.078  1.6414  2.3077  1.8431
   27MOL   H54117233   0.944   4.563   0.134  0.5378 -1.1944  1.2913
   27MOL   H54217234   0.809   4.562   0.245 -1.6375 -0.8476  0.1695
   27MOL   H54317235   0.693   4.718   0.107 -0.8940  1.0569 -1.0410
   27MOL   H54417236   0.800   4.692   7.678 -0.2005 -1.1370  0.0118
   27MOL   H54517237   0.923   4.874   0.068 -1.9041  0.4010 -1.0996
   27MOL   C54617238   0.911   4.834   0.265  0.2647 -0.1785  0.4001
   27MOL   O54717239   0.848   4.775   0.353  0.0952 -0.2253 -0.1235
   27MOL   C54817240   1.027   4.938   0.289  0.7860  0.3247 -0.3246
   27MOL   C54917241   1.154   4.865   0.330 -0.2449  1.1537  0.0634
   27MOL   C55017242   1.198   4.745   0.246 -0.6516 -0.6879 -0.2931
   27MOL   C55117243   1.352   4.723   0.264 -0.0258 -0.0415 -0.1973
   27MOL   C55217244   1.383   4.587   0.208  0.5411  0.4205  0.3936
   27MOL   O55317245   1.328   4.539   0.111  0.4087  0.1266  0.0546
   27MOL   N55417246   1.474   4.515   0.272 -0.7718  0.1300  0.0581
   27MOL   C55517247   1.511   4.380   0.227  0.0977  0.2198  0.8082
   27MOL   C55617248   1.457   4.268   0.323  0.2190 -0.4891  0.7727
   27MOL   C55717249   1.499   4.287   0.466 -0.1723 -0.3813  0.3831
   27MOL   C55817250   1.496   4.156   0.545 -0.5309  0.6050 -0.3101
   27MOL   N55917251   1.495   4.194   0.691 -0.0786  0.5670 -0.4212
   27MOL   H56017252   1.041   5.007   0.206 -1.0867  1.4699  0.2759
   27MOL   H56117253   0.988   4.999   0.371  1.4072 -0.5215  0.6010
   27MOL   H56217254   1.238   4.934   0.318  1.6725 -1.3085 -1.0435
   27MOL   H56317255   1.144   4.842   0.436 -0.4234  0.1406 -0.1646
   27MOL   H56417256   1.172   4.769   0.143 -2.1108  1.2378  0.4928
   27MOL   H56517257   1.141   4.654   0.264 -0.2127 -0.9626 -0.2769
   27MOL   H56617258   1.360   4.719   0.372 -1.2501  0.3786 -0.0908
   27MOL   H56717259   1.408   4.802   0.213  1.1147 -0.4293  0.4216
   27MOL   H56817260   1.521   4.549   0.355  0.1088  1.4058 -0.9313
   27MOL   H56917261   1.619   4.389   0.233  0.2220 -0.5294 -0.2289
   27MOL   H57017262   1.496   4.347   0.125  0.2218 -1.2254  1.2398
   27MOL   H57117263   1.350   4.259   0.307 -0.3941  1.8231  3.1834
   27MOL   H57217264   1.503   4.180   0.277  0.2311  0.6733 -1.4862
   27MOL   H57317265   1.415   4.340   0.510  0.0779 -1.0317  1.6733
   27MOL   H57417266   1.580   4.359   0.480 -0.9682  1.1713 -2.6007
   27MOL   H57517267   1.584   4.093   0.534 -0.2022  0.5952  2.2292
   27MOL   H57617268   1.404   4.099   0.531  1.1131 -1.8892 -1.5003
   27MOL   H57717269   1.450   4.277   0.726  3.3478  2.1479  0.4097
   27MOL   C57817270   1.535   4.097   0.785 -0.1789 -0.2858 -0.4683
   27MOL   O57917271   1.564   3.977   0.756  0.2970  0.5559 -0.1761
   27MOL   C58017272   1.521   4.140   0.933 -0.1569  0.5723  0.0949
   27MOL   C58117273   1.612   4.056   1.025 -0.4273 -0.6553 -0.0985
   27MOL   C58217274   1.591   4.098   1.167 -0.1102 -0.4025  0.2904
   27MOL   C58317275   1.697   4.030   1.256 -0.0525 -0.7588  0.1645
   27MOL   C58417276   1.670   4.047   1.410  0.2014 -1.0179 -0.1400
   27MOL   O58517277   1.555   4.062   1.451 -0.3026  0.0286 -0.3757
   27MOL   N58617278   1.780   4.026   1.487 -0.1252  0.4135  0.7594
   27MOL   C58717279   1.793   3.998   1.627 -0.2374  0.6021  0.0648
   27MOL   C58817280   1.941   3.970   1.664  0.6384 -0.2480  0.6495
   27MOL   C58917281   1.963   3.976   1.817  0.5954 -0.1984 -0.8927
   27MOL   C59017282   2.118   3.951   1.858  0.1947 -0.0233  0.1819
   27MOL   N59117283   2.140   3.977   2.005 -0.3417 -0.3590  0.1430
   27MOL   H59217284   1.529   4.249   0.938  0.0520  0.6155 -1.0430
   27MOL   H59317285   1.421   4.114   0.970 -0.2759 -1.6561 -1.6730
   27MOL   H59417286   1.585   3.951   1.018 -2.7782 -0.1422  0.8802
   27MOL   H59517287   1.716   4.066   0.993 -0.5535 -0.6303 -0.4945
   27MOL   H59617288   1.494   4.068   1.205 -0.2023 -2.0364 -1.1605
   27MOL   H59717289   1.601   4.206   1.179 -1.5733 -0.1027 -1.0922
   27MOL   H59817290   1.795   4.069   1.230 -0.1930  0.3414  1.2481
   27MOL   H59917291   1.715   3.925   1.234 -0.0831 -1.0546  1.4800
   27MOL   H60017292   1.860   4.007   1.430 -0.7551 -2.7743  0.8558
   27MOL   H60117293   1.725   3.918   1.655 -1.0588  1.8638  1.7460
   27MOL   H60217294   1.768   4.093   1.674  0.2813  0.1464  1.2583
   27MOL   H60317295   1.976   3.875   1.623 -2.1691  0.1472 -2.9490
   27MOL   H60417296   2.001   4.045   1.613 -1.2851 -0.5328 -2.1120
   27MOL   H60517297   1.893   3.906   1.861  0.1707 -0.3214 -1.7446
   27MOL   H60617298   1.924   4.070   1.858 -0.3679 -2.0722  2.6420
   27MOL   H60717299   2.188   4.018   1.807 -0.7413  3.0490  2.7441
   27MOL   H60817300   2.148   3.848   1.839  0.1239 -0.2492  1.2335
   27MOL   H60917301   2.079   3.929   2.069  0.3535  1.8884  2.5413
   27MOL   C61017302   2.235   4.055   2.059  0.4177 -0.4981 -0.3527
   27MOL   O61117303   2.329   4.111   1.994 -0.3274 -0.1646  0.2353
   27MOL   C61217304   2.228   4.075   2.210  0.6153 -0.5850  0.4095
   27MOL   C61317305   2.350   4.002   2.277 -0.1910  0.3206 -0.6515
   27MOL   C61417306   2.319   3.979   2.427 -0.1963 -0.0053 -0.1438
   27MOL   C61517307   2.228   3.856   2.447 -0.1397  0.6045 -0.5600
   27MOL   C61617308   2.312   3.735   2.475 -0.0548  0.5874  0.4782
   27MOL   O61717309   2.372   3.684   2.379  0.2489  0.0999  0.4834
   27MOL   N61817310   2.296   3.666   2.595  0.3467 -0.2554 -0.4800
   27MOL   C61917311   2.339   3.525   2.604 -0.4259  0.2631  0.1002
   27MOL   C62017312   2.292   3.456   2.733  0.7573  0.3497  0.4722
   27MOL   C62117313   2.351   3.313   2.744  0.8159 -0.2872 -0.5371
   27MOL   C62217314   2.305   3.216   2.853  0.1658 -0.5196 -0.2356
   27MOL   N62317315   2.376   3.093   2.831 -0.6745  0.2178 -0.5188
   27MOL   H62417316   2.212   4.179   2.241 -0.2262 -1.0241  1.4556
   27MOL   H62517317   2.133   4.041   2.250 -0.8706  1.3424 -1.4241
   27MOL   H62617318   2.362   3.904   2.231 -0.6138 -0.0320 -0.0035
   27MOL   H62717319   2.436   4.070   2.268 -0.9115  1.2311 -0.7425
   27MOL   H62817320   2.274   4.071   2.466  2.6511  0.8200  1.3080
   27MOL   H62917321   2.411   3.951   2.478  0.4679  0.4645 -1.0812
   27MOL   H63017322   2.164   3.836   2.362  1.4288 -0.4333 -1.5233
   27MOL   H63117323   2.165   3.866   2.535 -0.6509  0.4276 -0.9061
   27MOL   H63217324   2.244   3.702   2.674  1.7727  0.4378  0.1647
   27MOL   H63317325   2.448   3.525   2.606 -0.4044 -1.9932  2.0033
   27MOL   H63417326   2.315   3.466   2.515  2.4937 -0.1794 -0.4497
   27MOL   H63517327   2.332   3.513   2.817  1.6175  1.5357 -0.7172
   27MOL   H63617328   2.185   3.442   2.743 -0.3230  4.5136 -3.5445
   27MOL   H63717329   2.458   3.335   2.743  0.7211  0.1546 -1.0423
   27MOL   H63817330   2.309   3.264   2.657 -1.0133 -0.0308  0.1922
   27MOL   H63917331   2.198   3.199   2.857  0.2227 -0.5254  2.1610
   27MOL   H64017332   2.318   3.252   2.955 -1.1362  1.7359 -0.8389
   27MOL   H64117333   2.471   3.098   2.864 -0.8277 -0.9823  0.1013
   27MOL   H64217334   2.369   3.055   2.738 -0.0861 -1.3511  0.0615
   28MOL     C117335   0.910   0.171   0.801 -0.2601 -0.1082 -0.0670
   28MOL     O217336   0.992   0.141   0.716 -0.4771  0.1244  0.3102
   28MOL     C317337   0.778   0.088   0.818  0.4065 -0.4882  0.4830
   28MOL     C417338   0.797   7.638   0.802  0.1896  0.3955 -0.0082
   28MOL     C517339   0.875   7.561   0.919 -0.2693 -0.2719  0.4614
   28MOL     C617340   0.915   7.414   0.913  0.1660  0.5378  0.4698
   28MOL     C717341   1.003   7.369   0.796  0.2016 -0.1151 -0.4195
   28MOL     O817342   1.076   7.445   0.736 -0.2479  0.0438 -0.0671
   28MOL     N917343   0.997   7.235   0.772  0.2032 -0.4880  0.4755
   28MOL    C1017344   1.100   7.162   0.693 -0.5272 -0.0055 -1.0008
   28MOL    C1117345   1.079   7.160   0.544  0.1504 -0.6340  0.1486
   28MOL    C1217346   1.214   7.115   0.488 -0.1123 -0.2786  0.2495
   28MOL    C1317347   1.217   7.102   0.339  0.0622  0.0871  0.1124
   28MOL    N1417348   1.352   7.091   0.291 -0.0202 -0.9644  0.3890
   28MOL    H1517349   0.745   0.111   0.920 -0.5165  2.8307 -0.5103
   28MOL    H1617350   0.700   0.122   0.751  1.6827  0.1351 -0.7026
   28MOL    H1717351   0.698   7.595   0.787  0.5608 -1.2757  2.0238
   28MOL    H1817352   0.852   7.620   0.710 -0.4082 -0.8986 -0.1270
   28MOL    H1917353   0.820   7.579   1.011 -1.8859 -2.5889 -0.0214
   28MOL    H2017354   0.972   7.613   0.923 -0.4813  0.1326  0.4022
   28MOL    H2117355   0.827   7.351   0.924  0.7737 -0.5032 -0.5495
   28MOL    H2217356   0.982   7.391   0.996 -0.6632 -0.8714  0.7733
   28MOL    H2317357   0.930   7.171   0.811 -0.8944  0.1157 -0.3664
   28MOL    H2417358   1.095   7.060   0.730 -2.2769  0.3035 -0.3264
   28MOL    H2517359   1.198   7.202   0.719  0.0059 -0.0173 -2.9165
   28MOL    H2617360   1.008   7.079   0.523  0.2078 -0.5916 -0.1999
   28MOL    H2717361   1.043   7.256   0.506  0.9931 -0.1160  0.6437
   28MOL    H2817362   1.244   7.021   0.533 -3.0932 -1.9505 -1.1198
   28MOL    H2917363   1.285   7.193   0.519  0.1950 -1.0092  1.3989
   28MOL    H3017364   1.174   7.192   0.295 -0.2513  0.2725  0.7906
   28MOL    H3117365   1.155   7.024   0.296 -1.7847  0.5631  1.8613
   28MOL    H3217366   1.391   6.998   0.303  1.5326 -0.1681  1.6833
   28MOL    H3317367   0.925   0.257   0.866 -0.1456 -0.8116  0.8422
   28MOL    C3417368   1.429   7.200   0.267 -0.4501  0.0910  0.7219
   28MOL    O3517369   1.378   7.308   0.254 -0.7470  0.3221 -0.3309
   28MOL    C3617370   1.583   7.184   0.255 -0.4301  0.5599 -0.5245
   28MOL    C3717371   1.656   7.305   0.194 -0.7123 -0.1705 -0.1356
   28MOL    C3817372   1.802   7.260   0.149 -0.0417 -0.6506  0.3278
   28MOL    C3917373   1.901   7.369   0.098 -0.6638 -0.4113 -0.3164
   28MOL    C4017374   2.039   7.321   0.058 -0.0446  0.0518  0.2551
   28MOL    O4117375   2.078   7.210   0.094 -0.1015  0.5081 -0.1378
   28MOL    N4217376   2.110   7.410   7.684  0.5587  0.7894  0.0176
   28MOL    C4317377   2.241   7.383   7.607  0.2096 -0.0132 -0.2124
   28MOL    C4417378   2.207   7.380   7.457  0.1840  0.0395  0.2821
   28MOL    C4517379   2.330   7.341   7.369 -0.0775 -0.3982  0.0986
   28MOL    C4617380   2.452   7.431   7.354  0.2351  0.3679 -0.8643
   28MOL    N4717381   2.411   7.554   7.301 -0.0845 -0.4415  0.3653
   28MOL    H4817382   1.628   7.159   0.351 -1.6059 -2.4273 -0.7103
   28MOL    H4917383   1.591   7.096   0.193  0.1201  0.6337 -0.5566
   28MOL    H5017384   1.589   7.347   0.120 -0.2159 -3.0894 -2.3534
   28MOL    H5117385   1.669   7.378   0.274 -0.3260  0.4143 -0.7210
   28MOL    H5217386   1.794   7.181   0.075  1.6603  0.5572 -1.1858
   28MOL    H5317387   1.854   7.218   0.235 -0.6842  3.1986  2.7176
   28MOL    H5417388   1.917   7.440   0.179  2.3090 -0.9099 -0.4063
   28MOL    H5517389   1.856   7.429   0.020  2.5306 -1.3645 -3.0102
   28MOL    H5617390   2.061   7.496   7.666 -1.6137 -0.9305 -2.7518
   28MOL    H5717391   2.276   7.288   7.647  1.4318  0.5629  0.1125
   28MOL    H5817392   2.304   7.470   7.629  0.6635 -0.4778  0.3204
   28MOL    H5917393   2.140   7.295   7.445  0.9039 -0.2152 -2.3134
   28MOL    H6017394   2.158   7.471   7.423  1.4818  0.2315 -1.1403
   28MOL    H6117395   2.293   7.322   7.269  2.4663 -1.7253 -0.6404
   28MOL    H6217396   2.368   7.242   7.395  2.7709  0.6259  0.0120
   28MOL    H6317397   2.510   7.380   7.277 -0.9718 -1.1535 -0.8010
   28MOL    H6417398   2.515   7.428   7.442  0.0767 -1.2814 -0.7924
   28MOL    H6517399   2.360   7.621   7.357 -1.2399 -1.6614  0.7823
   28MOL    C6617400   2.419   7.590   7.176  0.2891  0.8723  0.0015
   28MOL    O6717401   2.482   7.532   7.080  0.7827  0.0847 -0.0302
   28MOL    C6817402   2.345   0.020   7.148  0.2462  0.2504  0.3233
   28MOL    C6917403   2.349   0.081   7.008  0.6953  0.6301 -0.0003
   28MOL    C7017404   2.262   0.203   6.991 -0.2092 -0.6263  0.7666
   28MOL    C7117405   2.262   0.268   6.854 -0.8070 -0.2026  0.0674
   28MOL    C7217406   2.192   0.189   6.748  0.2476 -0.4577 -0.7066
   28MOL    O7317407   2.069   0.191   6.745 -0.5154 -0.0097  0.2935
   28MOL    N7417408   2.260   0.101   6.671 -0.0049 -0.2704  0.0573
   28MOL    C7517409   2.210   7.684   6.604 -0.5385 -0.1962  0.0958
   28MOL    C7617410   2.326   7.592   6.555 -0.5602  0.3249 -0.0439
   28MOL    C7717411   2.426   7.553   6.666 -0.4454  0.0688 -0.8038
   28MOL    C7817412   2.526   7.436   6.640  0.3546 -0.1529 -0.6732
   28MOL    N7917413   2.587   7.454   6.510  0.5169  0.5214 -0.2812
   28MOL    H8017414   2.240   0.016   7.178  0.5952  1.9253  1.8321
   28MOL    H8117415   2.388   0.091   7.217 -0.0784  0.6103  0.1555
   28MOL    H8217416   2.443   0.110   6.960  0.3984 -2.3316 -2.5564
   28MOL    H8317417   2.312   0.003   6.941 -0.6513  0.2269  1.1913
   28MOL    H8417418   2.288   0.287   7.055  1.7702  0.7029 -1.7097
   28MOL    H8517419   2.162   0.174   7.024 -0.5832  0.8757  0.9916
   28MOL    H8617420   2.369   0.279   6.833 -0.6893 -0.4658  0.5149
   28MOL    H8717421   2.226   0.371   6.847 -0.1186  0.1290  1.2412
   28MOL    H8817422   2.361   0.113   6.666 -0.0108 -0.0724  0.3592
   28MOL    H8917423   2.156   0.010   6.513 -1.0850  0.4761  0.6173
   28MOL    H9017424   2.142   7.638   6.676  0.5098  3.0723  3.3407
   28MOL    H9117425   2.279   7.502   6.516 -1.7103  0.0071  2.0011
   28MOL    H9217426   2.376   7.626   6.463 -1.2195 -3.1392 -1.7467
   28MOL    H9317427   2.365   7.522   6.751  0.1655  1.1570  0.0452
   28MOL    H9417428   2.486   7.629   6.715 -0.5096 -0.9464  0.8973
   28MOL    H9517429   2.469   7.344   6.643 -0.7683  0.5311 -0.7140
   28MOL    H9617430   2.603   7.430   6.716 -1.9940  2.0204  2.0057
   28MOL    H9717431   2.523   7.452   6.431 -0.4101 -0.3790  0.4768
   28MOL    C9817432   2.710   7.509   6.486 -0.1126  0.5145 -0.6198
   28MOL    O9917433   2.795   7.526   6.579  0.0618  0.7123  0.5590
   28MOL   C10017434   2.741   7.559   6.343 -0.1158  0.2788  0.0386
   28MOL   C10117435   2.794   7.700   6.333 -0.0439  0.1260 -0.4498
   28MOL   C10217436   2.695   0.105   6.374  0.0374 -0.5548 -0.1623
   28MOL   C10317437   2.744   0.190   6.498 -0.0091 -0.3163  0.5301
   28MOL   C10417438   2.632   0.286   6.549 -0.1271  0.1751 -0.7480
   28MOL   O10517439   2.532   0.243   6.604  0.6426 -0.0807 -0.5746
   28MOL   N10617440   2.655   0.415   6.542  0.1671  0.3116 -0.0650
   28MOL   C10717441   2.565   0.528   6.562  0.4889 -0.3786  0.3531
   28MOL   C10817442   2.462   0.542   6.445 -0.0427  0.2064  0.2320
   28MOL   C10917443   2.523   0.543   6.297 -0.3950 -0.2592  0.5301
   28MOL   C11017444   2.407   0.502   6.196  0.0474  0.4060 -0.2037
   28MOL   N11117445   2.349   0.373   6.230 -0.3434 -0.0302  0.1255
   28MOL   H11217446   2.817   7.491   6.307  1.1053  1.9731 -0.6369
   28MOL   H11317447   2.656   7.550   6.276 -0.3809 -2.2465  0.6794
   28MOL   H11417448   2.881   0.012   6.397  0.4772  0.4050 -1.2064
   28MOL   H11517449   2.829   0.016   6.231  2.1468  0.7882  0.3792
   28MOL   H11617450   2.596   0.073   6.406 -0.1134 -2.3579 -2.3404
   28MOL   H11717451   2.675   0.172   6.290  0.3002 -1.3044 -0.8288
   28MOL   H11817452   2.835   0.241   6.466  1.9107 -2.3603  2.5417
   28MOL   H11917453   2.770   0.129   6.584  1.0265 -1.9607 -0.9316
   28MOL   H12017454   2.750   0.437   6.515  0.0673 -0.0557 -0.7333
   28MOL   H12117455   2.611   0.627   6.552 -1.4873  0.6443  1.0713
   28MOL   H12217456   2.518   0.522   6.661  1.8063 -2.3747  0.8674
   28MOL   H12317457   2.390   0.461   6.460 -0.1344  0.6421  2.2439
   28MOL   H12417458   2.408   0.635   6.462 -1.0785 -0.1836 -0.8194
   28MOL   H12517459   2.600   0.469   6.278  0.8044  1.0703  0.1723
   28MOL   H12617460   2.584   0.632   6.284 -2.0219  0.7140 -0.6527
   28MOL   H12717461   2.431   0.493   6.090  0.1086 -0.7803 -0.0853
   28MOL   H12817462   2.316   0.562   6.189 -0.2103 -0.1058 -1.4395
   28MOL   H12917463   2.285   0.370   6.308  0.5573 -0.9453  0.8464
   28MOL   C13017464   2.391   0.252   6.179  0.5789  0.3666 -0.4563
   28MOL   O13117465   2.496   0.246   6.110 -0.0486 -0.2282  0.5736
   28MOL   C13217466   2.301   0.132   6.207 -0.1120  0.1859 -0.2122
   28MOL   C13317467   2.305   0.020   6.108  0.6483  0.0270 -0.2398
   28MOL   C13417468   2.438   7.645   6.089  0.1607  0.4782  0.1306
   28MOL   C13517469   2.422   7.497   6.057 -0.2667  0.6776  0.5201
   28MOL   C13617470   2.353   7.411   6.167  0.1993  0.2731  0.0770
   28MOL   O13717471   2.377   7.438   6.289  0.4274 -0.1421 -0.1488
   28MOL   N13817472   2.258   7.316   6.134 -0.5816  0.6613  0.1406
   28MOL   C13917473   2.180   7.240   6.229 -0.2015 -0.1297 -0.2052
   28MOL   C14017474   2.036   7.285   6.239  0.5086  0.6267 -0.0810
   28MOL   C14117475   1.969   7.236   6.362  0.3113 -0.4103  0.3365
   28MOL   C14217476   1.828   7.289   6.372  0.8215  0.1083  0.4793
   28MOL   N14317477   1.752   7.228   6.482 -0.2042  0.6262 -0.2614
   28MOL   H14417478   2.326   0.095   6.307 -1.9729 -1.2939 -0.2804
   28MOL   H14517479   2.201   0.174   6.195 -0.1629 -0.4290 -2.0739
   28MOL   H14617480   2.227   7.649   6.133  0.5647  0.4443  0.7290
   28MOL   H14717481   2.272   0.050   6.008 -0.2004 -0.6103 -0.1607
   28MOL   H14817482   2.502   7.665   6.175 -1.0676  0.4427  1.0660
   28MOL   H14917483   2.502   0.003   6.023  0.9648  0.7214  1.1177
   28MOL   H15017484   2.519   7.456   6.029  0.4358  0.4503  3.1849
   28MOL   H15117485   2.351   7.504   5.974  0.1508 -0.8216  0.0167
   28MOL   H15217486   2.240   7.309   6.035  2.0383  2.7457 -0.5268
   28MOL   H15317487   2.226   7.261   6.326 -0.7219  1.2751 -0.2582
   28MOL   H15417488   2.180   7.133   6.205 -2.1955 -0.1627 -0.1673
   28MOL   H15517489   2.045   7.392   6.260 -1.8297  0.3047  2.8096
   28MOL   H15617490   1.978   7.269   6.148  0.2296  1.2073 -0.0106
   28MOL   H15717491   2.008   7.255   6.462  0.1952 -2.0418  0.7085
   28MOL   H15817492   1.953   7.129   6.352 -0.9377 -0.4647  2.7045
   28MOL   H15917493   1.781   7.272   6.275 -1.2281 -1.6934  1.7107
   28MOL   H16017494   1.824   7.397   6.380  1.7597  0.2130 -0.4600
   28MOL   H16117495   1.749   7.273   6.572  2.9836 -0.5178  0.4597
   28MOL   C16217496   1.688   7.115   6.466 -0.0474 -0.6485  0.0571
   28MOL   O16317497   1.679   7.048   6.363 -0.3398 -0.2138  0.0655
   28MOL   C16417498   1.607   7.065   6.584 -0.4196 -0.3667  0.3805
   28MOL   C16517499   1.469   7.037   6.544  0.1493 -0.4259  0.1832
   28MOL   C16617500   1.394   6.966   6.661  0.1446  0.4018 -0.2159
   28MOL   C16717501   1.258   6.902   6.615 -0.1897  0.7106  0.1305
   28MOL   C16817502   1.272   6.800   6.500  0.3497 -0.2492  0.3539
   28MOL   O16917503   1.236   6.826   6.387 -0.5097  0.3489  0.2558
   28MOL   N17017504   1.317   6.680   6.533  0.4488  0.3707 -0.5966
   28MOL   C17117505   1.344   6.580   6.431 -0.4776 -0.3107 -0.6996
   28MOL   C17217506   1.491   6.587   6.377 -0.3581 -0.5645 -0.7550
   28MOL   C17317507   1.602   6.618   6.471 -0.1498  0.3329  0.5849
   28MOL   C17417508   1.744   6.624   6.408 -0.4372 -0.5718 -0.4263
   28MOL   N17517509   1.751   6.723   6.291 -0.6945  0.3329 -0.5547
   28MOL   H17617510   1.659   6.976   6.618 -0.8960 -0.0805  1.9390
   28MOL   H17717511   1.631   7.141   6.659 -0.3970  1.3111 -1.2962
   28MOL   H17817512   1.419   7.129   6.512  0.4916  0.4553  2.0609
   28MOL   H17917513   1.456   6.982   6.452 -1.2495 -0.4832  0.4059
   28MOL   H18017514   1.367   7.035   6.741  0.2259 -0.5041  0.6110
   28MOL   H18117515   1.457   6.897   6.717 -1.7705  0.2393  1.7987
   28MOL   H18217516   1.196   6.988   6.590 -0.4352  0.8449  1.1732
   28MOL   H18317517   1.209   6.845   6.694 -0.0022  0.3794  0.0105
   28MOL   H18417518   1.348   6.657   6.626 -2.7682 -1.2567  0.1648
   28MOL   H18517519   1.260   6.583   6.362 -0.5756  0.8436 -0.5563
   28MOL   H18617520   1.339   6.479   6.470 -0.1110  0.3171  1.0595
   28MOL   H18717521   1.518   6.487   6.342  0.6215 -0.7406  0.4494
   28MOL   H18817522   1.494   6.651   6.289  0.4097 -3.6233 -3.0483
   28MOL   H18917523   1.601   6.539   6.545 -1.7758  0.8171  1.0942
   28MOL   H19017524   1.579   6.710   6.526 -0.4610  0.6741 -0.1080
   28MOL   H19117525   1.769   6.527   6.367 -3.4757 -1.1479 -1.0602
   28MOL   H19217526   1.813   6.645   6.490  0.9316  0.8957 -1.9353
   28MOL   H19317527   1.754   6.822   6.312 -1.2154  0.5481 -1.4826
   28MOL   C19417528   1.735   6.691   6.163  0.1754  0.1523  0.0405
   28MOL   O19517529   1.743   6.575   6.118 -0.5378  0.4758  0.1989
   28MOL   C19617530   1.696   6.806   6.073  0.0963  0.0987  0.4365
   28MOL   C19717531   1.546   6.809   6.040  0.0694 -0.3482 -0.0507
   28MOL   C19817532   1.467   6.907   6.131 -0.6416  0.3376 -0.5203
   28MOL   C19917533   1.323   6.939   6.076 -0.2709  0.4076 -0.7501
   28MOL   C20017534   1.239   6.813   6.026  0.4564  0.1857  0.2389
   28MOL   O20117535   1.223   6.797   5.902  0.0945 -0.0959  0.5620
   28MOL   N20217536   1.183   6.734   6.120 -0.0661 -0.1836 -0.0596
   28MOL   C20317537   1.100   6.619   6.106  0.2679 -0.2423 -0.7041
   28MOL   C20417538   0.976   6.635   6.200 -0.0685 -0.4808 -0.4923
   28MOL   C20517539   0.906   6.500   6.251  0.3544  0.4777  0.5736
   28MOL   C20617540   0.995   6.425   6.348 -0.0649 -0.3161 -0.1137
   28MOL   N20717541   0.927   6.306   6.402 -0.2750 -0.0371 -0.0691
   28MOL   H20817542   1.747   6.901   6.089  0.1443  0.1611 -0.0894
   28MOL   H20917543   1.745   6.773   5.982 -1.1039 -0.2367 -0.0948
   28MOL   H21017544   1.539   6.837   5.935  1.5074  1.5089  0.3331
   28MOL   H21117545   1.508   6.707   6.051  0.2714 -0.1087  3.5101
   28MOL   H21217546   1.521   7.001   6.144 -1.0616  0.2351  2.4040
   28MOL   H21317547   1.457   6.863   6.230  0.9382  2.0968  0.4612
   28MOL   H21417548   1.330   7.017   6.000 -1.8636  3.1797  1.8207
   28MOL   H21517549   1.258   6.975   6.156 -0.7687  0.8246 -1.3325
   28MOL   H21617550   1.210   6.771   6.210  1.6401 -0.7209 -0.3253
   28MOL   H21717551   1.161   6.536   6.142 -1.2265 -0.9713  0.2470
   28MOL   H21817552   1.064   6.604   6.005 -0.2988  4.4227 -1.3117
   28MOL   H21917553   0.991   6.692   6.292  0.5855 -3.7901  1.5021
   28MOL   H22017554   0.896   6.687   6.146  0.5011  0.8085 -0.1329
   28MOL   H22117555   0.897   6.431   6.166 -1.9441 -1.0642  2.0205
   28MOL   H22217556   0.804   6.500   6.289  0.2963 -0.9704  0.4355
   28MOL   H22317557   1.043   6.473   6.434 -0.7305 -1.1998  0.7690
   28MOL   H22417558   1.074   6.389   6.283  0.5448  0.3331  0.2543
   28MOL   H22517559   0.897   6.318   6.497  0.2788 -0.9331  0.2315
   28MOL   C22617560   0.918   6.188   6.345  0.3182 -0.5493  1.0384
   28MOL   O22717561   0.936   6.167   6.229  0.4381  0.1237 -0.3807
   28MOL   C22817562   0.867   6.077   6.439 -0.4862 -0.2927 -0.0083
   28MOL   C22917563   0.733   6.004   6.401  1.1634 -0.7578  0.4320
   28MOL   C23017564   0.611   6.099   6.403 -0.5407 -0.4071  0.0342
   28MOL   C23117565   0.485   6.034   6.449  0.2436 -0.1175 -0.6188
   28MOL   C23217566   0.448   5.900   6.375 -0.3767 -0.5939  0.5486
   28MOL   O23317567   0.408   5.910   6.262 -0.4030 -0.0676 -0.4186
   28MOL   N23417568   0.459   5.784   6.434 -0.5529 -0.6998  0.4145
   28MOL   C23517569   0.424   5.656   6.363 -0.4326  0.3561  0.2258
   28MOL   C23617570   0.523   5.541   6.413 -0.0279 -0.2680 -0.4734
   28MOL   C23717571   0.467   5.505   6.557 -0.6591 -0.0167 -0.7834
   28MOL   C23817572   0.562   5.427   6.640  0.1721  0.0952 -0.2055
   28MOL   N23917573   0.697   5.475   6.621 -0.3021 -0.0857 -0.6045
   28MOL   H24017574   0.948   6.003   6.445 -0.4767 -0.3623 -1.0010
   28MOL   H24117575   0.857   6.116   6.540  2.4528 -0.7087  0.4878
   28MOL   H24217576   0.745   5.958   6.303 -1.4340  1.5204 -1.0521
   28MOL   H24317577   0.718   5.926   6.475  2.6150 -0.7572  0.7533
   28MOL   H24417578   0.601   6.148   6.306 -2.2019 -1.6890 -0.4566
   28MOL   H24517579   0.635   6.186   6.464  0.6488 -0.3439 -0.5045
   28MOL   H24617580   0.403   6.103   6.433 -0.2917 -0.5819  0.0589
   28MOL   H24717581   0.494   6.007   6.555 -1.0566 -1.7665 -0.8977
   28MOL   H24817582   0.495   5.780   6.528  0.7998 -0.0910 -0.0604
   28MOL   H24917583   0.426   5.662   6.254  1.5094  0.7673  0.2617
   28MOL   H25017584   0.322   5.636   6.394 -0.6121  3.9623  2.2394
   28MOL   H25117585   0.529   5.459   6.342 -3.3415  0.7391 -1.9927
   28MOL   H25217586   0.621   5.589   6.417 -1.1727  1.9799  3.9575
   28MOL   H25317587   0.372   5.453   6.548 -0.3695 -1.0991  2.0162
   28MOL   H25417588   0.440   5.591   6.617 -0.7674 -1.2556  0.9675
   28MOL   H25517589   0.553   5.324   6.605 -1.7329  0.7910 -1.8737
   28MOL   H25617590   0.526   5.414   6.742 -0.2393  0.4992 -0.2962
   28MOL   H25717591   0.743   5.440   6.538  0.4332  0.9361 -0.6336
   28MOL   C25817592   0.762   5.568   6.686 -0.2492 -0.1187 -0.2072
   28MOL   O25917593   0.721   5.627   6.783  0.3467 -0.8510  0.3135
   28MOL   C26017594   0.905   5.595   6.644  0.2215 -0.2925 -0.1216
   28MOL   C26117595   1.005   5.603   6.762 -0.1894  0.6910 -0.1257
   28MOL   C26217596   1.004   5.481   6.856  1.0072  0.3109 -0.1291
   28MOL   C26317597   1.126   5.477   6.949 -0.8780  0.3457 -0.7021
   28MOL   C26417598   1.128   5.365   7.055 -0.1585 -0.1883  0.0266
   28MOL   O26517599   1.026   5.305   7.088  0.2471 -0.1170 -0.1620
   28MOL   N26617600   1.244   5.342   7.114 -0.1395  0.2713 -0.1008
   28MOL   C26717601   1.269   5.248   7.217  0.1997  0.2388 -0.6025
   28MOL   C26817602   1.375   5.308   7.320 -0.4519  0.4194 -0.4409
   28MOL   C26917603   1.343   5.450   7.375 -0.4055 -0.1569 -0.0940
   28MOL   C27017604   1.451   5.487   7.485  0.2321 -0.5274 -0.1640
   28MOL   N27117605   1.432   5.623   7.548 -0.0359 -0.0595 -0.3485
   28MOL   H27217606   0.946   5.528   6.568  2.5092  2.0526 -1.0417
   28MOL   H27317607   0.909   5.694   6.599  0.8248  0.2141  1.0110
   28MOL   H27417608   1.104   5.623   6.721 -0.6229 -0.1423 -1.6176
   28MOL   H27517609   0.976   5.685   6.828  0.1593 -0.4906  1.5131
   28MOL   H27617610   1.012   5.394   6.790  0.6901 -0.4206  0.7857
   28MOL   H27717611   0.909   5.469   6.909 -0.6932  1.0185 -2.8936
   28MOL   H27817612   1.135   5.570   7.007 -1.3528  1.1597 -1.9120
   28MOL   H27917613   1.214   5.471   6.885 -0.5295  0.9150 -0.2859
   28MOL   H28017614   1.319   5.407   7.095 -1.0263  0.7506 -2.1756
   28MOL   H28117615   1.309   5.157   7.172  0.8756 -0.1751  0.7929
   28MOL   H28217616   1.175   5.226   7.268  1.2099  1.0330  1.6588
   28MOL   H28317617   1.378   5.241   7.405  1.3393  2.1786  0.9361
   28MOL   H28417618   1.478   5.317   7.285 -0.7950  2.3457 -1.0558
   28MOL   H28517619   1.238   5.454   7.403 -1.1321 -1.6431 -2.5108
   28MOL   H28617620   1.365   5.525   7.300  0.4714 -0.5464 -0.2314
   28MOL   H28717621   1.553   5.475   7.447  0.9889  1.3271  1.2082
   28MOL   H28817622   1.444   5.409   7.560 -1.1348 -1.6462 -1.4131
   28MOL   H28917623   1.518   5.674   7.563  1.1845 -2.0379 -0.4064
   28MOL   C29017624   1.324   5.670   7.612 -0.0452 -0.0114 -0.0162
   28MOL   O29117625   1.210   5.616   7.612  0.0035  0.4971  0.3870
   28MOL   C29217626   1.334   5.803   7.691  0.0704  0.3531 -0.7668
   28MOL   C29317627   1.345   5.785   0.144  0.1012 -0.0189 -0.0615
   28MOL   C29417628   1.217   5.742   0.221  0.1835  0.0707 -0.2548
   28MOL   C29517629   1.244   5.753   0.373  1.0945 -0.5240  0.1664
   28MOL   C29617630   1.361   5.662   0.430 -0.7451 -0.2810  0.0635
   28MOL   O29717631   1.357   5.544   0.397 -0.7018 -0.0085  0.2188
   28MOL   N29817632   1.449   5.725   0.512 -0.0280  0.1526 -0.7012
   28MOL   C29917633   1.571   5.656   0.555  1.1062  0.4873 -0.6971
   28MOL   C30017634   1.653   5.751   0.643 -0.3509  0.7497  0.4358
   28MOL   C30117635   1.779   5.692   0.702 -0.1659  0.0146  0.3413
   28MOL   C30217636   1.881   5.641   0.604 -0.3162 -0.1082 -0.0768
   28MOL   N30317637   1.926   5.746   0.505  0.1522  0.5239 -0.3994
   28MOL   H30417638   1.408   5.870   7.647 -2.0642  1.7903 -2.2343
   28MOL   H30517639   1.240   5.844   7.654 -1.3214 -1.9276  0.1263
   28MOL   H30617640   1.430   5.724   0.174 -1.4250 -2.1090  0.1950
   28MOL   H30717641   1.369   5.887   0.174 -4.1402  1.2739 -0.6916
   28MOL   H30817642   1.198   5.639   0.192  3.1317 -0.7175  0.4483
   28MOL   H30917643   1.134   5.808   0.192  0.4286  0.1601 -0.7678
   28MOL   H31017644   1.151   5.737   0.429  0.6834 -2.4771 -1.0328
   28MOL   H31117645   1.284   5.850   0.403  0.0955 -0.4723  1.3939
   28MOL   H31217646   1.455   5.824   0.531 -0.6660  0.1561 -0.5091
   28MOL   H31317647   1.631   5.625   0.470 -1.7309 -1.5003 -2.0457
   28MOL   H31417648   1.540   5.566   0.608  0.8442  1.0436  0.1211
   28MOL   H31517649   1.658   5.848   0.592 -3.5545  0.0663 -1.3518
   28MOL   H31617650   1.610   5.783   0.738  1.1812 -1.6160  1.9893
   28MOL   H31717651   1.754   5.611   0.770  0.3756  0.7076  1.3731
   28MOL   H31817652   1.835   5.764   0.762  0.2958  0.2747 -0.3845
   28MOL   H31917653   1.841   5.554   0.553 -3.2733  1.0413  0.2108
   28MOL   H32017654   1.968   5.612   0.664 -0.3076 -1.2680 -0.6272
   28MOL   H32117655   1.885   5.838   0.506 -0.6946  0.1461  0.1975
   28MOL   C32217656   2.020   5.723   0.416  0.3107  0.0240  0.1548
   28MOL   O32317657   2.081   5.619   0.424 -0.5886  0.0028  0.3157
   28MOL   C32417658   2.060   5.836   0.324  0.0687 -0.0512 -0.0566
   28MOL   C32517659   2.197   5.808   0.258 -0.6245  0.3427 -0.0274
   28MOL   C32617660   2.201   5.873   0.118  0.5395  0.2948 -0.4618
   28MOL   C32717661   2.309   5.807   0.034 -0.0872  0.0554  0.3597
   28MOL   C32817662   2.257   5.676   7.677  0.1718  0.0273 -0.0199
   28MOL   O32917663   2.166   5.682   7.593  0.4088  0.1142 -0.8593
   28MOL   N33017664   2.313   5.565   0.019  0.9357  0.3013 -0.7088
   28MOL   C33117665   2.269   5.428   7.680 -0.3252 -0.0175  0.1298
   28MOL   C33217666   2.245   5.349   0.108 -0.0613  0.2424  0.1318
   28MOL   C33317667   2.379   5.319   0.180  0.2747  0.7241 -0.0240
   28MOL   C33417668   2.359   5.203   0.282  0.1301 -0.4071  0.2927
   28MOL   N33517669   2.488   5.153   0.332  0.2596  0.2739  0.2620
   28MOL   H33617670   1.982   5.849   0.250  0.0379  0.1979  0.0172
   28MOL   H33717671   2.064   5.925   0.388 -0.8559 -0.4332  0.5390
   28MOL   H33817672   2.275   5.841   0.326  0.2482 -1.0263 -0.3491
   28MOL   H33917673   2.234   5.706   0.256 -0.7816  0.2259  1.6678
   28MOL   H34017674   2.223   5.978   0.135  4.2696 -0.8677  2.7537
   28MOL   H34117675   2.105   5.867   0.066 -0.5698  0.8178  1.4836
   28MOL   H34217676   2.398   5.784   0.093 -0.2985  3.3272  2.0852
   28MOL   H34317677   2.348   5.870   7.655  2.0442 -1.2359  0.3328
   28MOL   H34417678   2.367   5.561   0.104 -1.9789  0.6857  1.2255
   28MOL   H34517679   2.345   5.378   7.620 -0.3621  0.8683 -0.6667
   28MOL   H34617680   2.177   5.414   7.622  0.0544 -4.4182  0.3667
   28MOL   H34717681   2.176   5.412   0.164 -0.2901  0.6599 -0.6167
   28MOL   H34817682   2.181   5.263   0.086  2.4864 -1.7110  0.0184
   28MOL   H34917683   2.425   5.407   0.223  1.4424  0.4277 -0.6385
   28MOL   H35017684   2.452   5.284   0.106  1.6193  0.4847  1.4063
   28MOL   H35117685   2.305   5.117   0.242  0.8260  0.4553 -2.6561
   28MOL   H35217686   2.304   5.244   0.367  1.0272 -0.9114  1.1199
   28MOL   H35317687   2.545   5.116   0.257  1.2655  2.4151 -0.0568
   28MOL   C35417688   2.520   5.113   0.452  0.1939 -0.6889  0.2864
   28MOL   O35517689   2.449   5.146   0.548  0.1547  0.3765 -0.5105
   28MOL   C35617690   2.659   5.042   0.470  0.4184  0.8245  0.0229
   28MOL   C35717691   2.669   4.979   0.607 -0.1225  0.5431 -0.4334
   28MOL   C35817692   2.813   4.920   0.625  0.9716  0.1307 -0.2058
   28MOL   C35917693   2.922   5.022   0.647 -0.2619 -0.2944  0.5510
   28MOL   C36017694   3.056   4.958   0.695 -0.3470 -0.6656 -0.2979
   28MOL   O36117695   3.049   4.866   0.769 -0.2979  0.2232 -0.1194
   28MOL   N36217696   3.173   5.003   0.638 -0.5228 -0.0997 -0.0536
   28MOL   C36317697   3.303   4.948   0.668 -0.4290  0.0819 -0.4315
   28MOL   C36417698   3.407   5.047   0.717  0.4255 -0.0321 -0.0422
   28MOL   C36517699   3.421   5.176   0.640 -0.4104  0.3061 -0.7583
   28MOL   C36617700   3.539   5.260   0.688 -0.6820  0.4375 -0.1509
   28MOL   N36717701   3.537   5.280   0.834  0.0578  0.4145 -0.2875
   28MOL   H36817702   2.669   4.977   0.383 -1.5069 -0.8341  0.9950
   28MOL   H36917703   2.726   5.128   0.461  0.0085  1.1558  0.0934
   28MOL   H37017704   2.650   5.050   0.688 -0.0695 -0.0710  0.1136
   28MOL   H37117705   2.590   4.904   0.615 -1.0385  1.6329  0.9373
   28MOL   H37217706   2.823   4.853   0.539 -1.1809  0.0190 -0.3819
   28MOL   H37317707   2.809   4.864   0.719  1.4055 -1.6934 -1.2529
   28MOL   H37417708   2.893   5.098   0.719  1.4890  1.8236 -0.8918
   28MOL   H37517709   2.944   5.082   0.558 -0.3777  0.5763  1.1036
   28MOL   H37617710   3.172   5.080   0.573  0.9171 -0.2597 -0.2870
   28MOL   H37717711   3.320   4.905   0.570  0.6815 -0.3429 -0.0554
   28MOL   H37817712   3.289   4.868   0.741 -0.7314 -0.1477 -0.7374
   28MOL   H37917713   3.391   5.064   0.824  2.9915 -0.3819  0.4355
   28MOL   H38017714   3.496   4.984   0.721  0.1697 -0.3297  1.4537
   28MOL   H38117715   3.329   5.234   0.648  0.2812  1.0827  1.6971
   28MOL   H38217716   3.440   5.150   0.535 -0.3372  1.4567 -1.0395
   28MOL   H38317717   3.557   5.359   0.645  1.7290 -0.4326 -1.2363
   28MOL   H38417718   3.630   5.206   0.662 -0.5459 -0.3757  1.9336
   28MOL   H38517719   3.500   5.366   0.871  1.2841  1.6948 -1.9444
   28MOL   C38617720   3.633   5.240   0.925  0.1391  0.6236  0.2868
   28MOL   O38717721   3.701   5.139   0.903  0.6067  0.3138  0.1592
   28MOL   C38817722   3.662   5.316   1.059 -0.1475 -0.2847  0.1808
   28MOL   C38917723   3.810   5.349   1.081 -0.7576 -0.1236  0.0768
   28MOL   C39017724   3.845   5.394   1.225 -0.2745  0.6067 -0.1176
   28MOL   C39117725   3.879   5.548   1.232 -0.4099  0.1536 -0.3854
   28MOL   C39217726   4.021   5.596   1.204  0.0051  0.1162 -0.3577
   28MOL   O39317727   4.083   5.561   1.103  0.3701 -0.0340  0.1999
   28MOL   N39417728   4.069   5.678   1.299  0.0790 -0.0738 -0.0120
   28MOL   C39517729   4.196   5.756   1.285  0.0611  0.3141 -0.0410
   28MOL   C39617730   4.169   5.886   1.219  0.1621 -0.1392  0.3593
   28MOL   C39717731   4.293   5.972   1.206  0.3422 -0.0369  0.5741
   28MOL   C39817732   4.369   5.966   1.073 -0.1203 -0.6231 -0.2819
   28MOL   N39917733   4.293   6.026   0.970  0.1658 -0.6590 -0.2888
   28MOL   H40017734   3.601   5.406   1.047  2.2629  1.5057  0.9584
   28MOL   H40117735   3.618   5.264   1.144  1.1011 -0.8350  0.5015
   28MOL   H40217736   3.870   5.265   1.047 -0.9561 -0.0500 -0.4544
   28MOL   H40317737   3.840   5.428   1.013  1.3669 -1.0025 -0.0279
   28MOL   H40417738   3.923   5.337   1.275 -0.1322 -0.1503 -1.2120
   28MOL   H40517739   3.756   5.375   1.286  1.1471 -1.9330  1.2518
   28MOL   H40617740   3.869   5.584   1.334  1.0960  0.0321 -0.1728
   28MOL   H40717741   3.803   5.603   1.178 -0.2831  1.9721  1.2427
   28MOL   H40817742   4.013   5.691   1.382  0.7897 -0.0793  0.4736
   28MOL   H40917743   4.268   5.701   1.224  1.3333  1.0520  0.7809
   28MOL   H41017744   4.231   5.777   1.386  2.5576  2.5147 -1.2930
   28MOL   H41117745   4.134   5.868   1.118  0.7201  1.8098 -0.2198
   28MOL   H41217746   4.101   5.933   1.290 -0.7901 -2.2622  0.8848
   28MOL   H41317747   4.368   5.939   1.279 -0.0428 -0.2755  0.8674
   28MOL   H41417748   4.266   6.074   1.234 -0.1187 -0.2331  0.8593
   28MOL   H41517749   4.388   5.868   1.029 -1.2020 -0.1685 -1.8102
   28MOL   H41617750   4.459   6.026   1.084 -1.2522  0.8005  1.3639
   28MOL   H41717751   4.193   6.038   0.977  0.6046  4.4065 -0.8820
   28MOL   C41817752   4.323   6.032   0.842 -0.0560  0.3994  0.3157
   28MOL   O41917753   4.432   5.993   0.792  0.4647 -0.3771 -0.0778
   28MOL   C42017754   4.216   6.090   0.747 -0.2147 -0.2063 -0.5715
   28MOL   C42117755   4.150   5.989   0.650 -0.1727  0.2149  0.2035
   28MOL   C42217756   4.205   5.992   0.504 -0.0565 -0.3063 -0.7320
   28MOL   C42317757   4.101   5.933   0.404  0.3012  0.3783 -0.1116
   28MOL   C42417758   4.162   5.932   0.259 -0.1241 -0.4575 -0.1056
   28MOL   O42517759   4.283   5.894   0.242 -0.7369 -0.0701  0.5883
   28MOL   N42617760   4.080   5.972   0.165 -0.2145 -0.2592  0.0697
   28MOL   C42717761   4.112   5.964   0.021 -0.2622 -0.3844  0.2427
   28MOL   C42817762   4.228   6.061   7.689 -0.3118 -0.0395  0.3023
   28MOL   C42917763   4.186   6.202   0.014  0.0079 -0.4527  0.9784
   28MOL   C43017764   4.299   6.291   7.667 -0.5190 -0.7751 -0.2855
   28MOL   N43117765   4.264   6.431   7.655 -0.1399 -0.0943  0.5382
   28MOL   H43217766   4.124   6.138   0.782  0.0500  0.2738 -0.5253
   28MOL   H43317767   4.269   6.164   0.687  0.5472 -1.1456 -1.0678
   28MOL   H43417768   4.160   5.893   0.701 -1.6403  0.5748  1.1801
   28MOL   H43517769   4.045   6.013   0.633 -0.1907 -0.5464 -0.8256
   28MOL   H43617770   4.301   5.945   0.521  0.0158  1.0802  3.1615
   28MOL   H43717771   4.225   6.097   0.484 -1.7409  0.3968  1.0610
   28MOL   H43817772   4.020   6.006   0.394 -1.6045 -1.6922 -0.3319
   28MOL   H43917773   4.057   5.837   0.434  2.9296 -0.2886  1.7426
   28MOL   H44017774   3.991   6.009   0.196  0.2522  0.2664  0.7784
   28MOL   H44117775   4.027   6.005   7.667 -1.2107 -2.5187  0.0618
   28MOL   H44217776   4.125   5.862   7.688 -1.1766 -0.0223 -1.2466
   28MOL   H44317777   4.320   6.029   0.038 -0.0958 -0.8811 -0.6081
   28MOL   H44417778   4.242   6.051   7.581 -2.4137 -1.2229  0.1223
   28MOL   H44517779   4.168   6.223   0.119 -1.7734 -0.3134  0.6655
   28MOL   H44617780   4.090   6.230   7.670  0.6402  1.5110  0.8396
   28MOL   H44717781   4.308   6.245   7.569 -1.2163  1.2829 -1.3279
   28MOL   H44817782   4.390   6.273   0.024 -1.4587 -1.1018  1.1244
   28MOL   H44917783   4.277   6.478   0.042 -1.5494  0.9806  0.1841
   28MOL   C45017784   4.241   6.506   7.543 -0.3621 -0.2208 -0.5353
   28MOL   O45117785   4.224   6.460   7.431 -0.2875  0.4157 -0.0160
   28MOL   C45217786   4.218   6.655   7.568  0.1759  0.3406 -0.4597
   28MOL   C45317787   4.343   6.740   7.521 -0.4659  0.2894 -0.1527
   28MOL   C45417788   4.464   6.713   7.612  0.4645 -0.1911 -0.5651
   28MOL   C45517789   4.566   6.827   7.591 -0.1890  0.7253  0.1919
   28MOL   C45617790   4.525   6.959   7.651  0.4001 -0.1650 -0.1981
   28MOL   O45717791   4.491   6.966   0.071 -0.5066 -0.0424  0.3477
   28MOL   N45817792   4.515   7.062   7.566 -0.0029  0.0789  0.4148
   28MOL   C45917793   4.482   7.198   7.599  0.1808 -0.5083  0.3738
   28MOL   C46017794   4.518   7.305   7.497  0.1269 -0.8004 -0.1178
   28MOL   C46117795   4.442   7.290   7.369 -0.0199  0.0089  0.4020
   28MOL   C46217796   4.518   7.207   7.254  0.0395  0.3181  0.5708
   28MOL   N46317797   4.480   7.262   7.125  0.4093  0.1011 -0.2610
   28MOL   H46417798   4.129   6.692   7.517  1.1208  2.6377 -0.5141
   28MOL   H46517799   4.202   6.677   7.674  0.4032 -1.3436 -0.0543
   28MOL   H46617800   4.366   6.717   7.417 -2.2532  0.0183 -0.5125
   28MOL   H46717801   4.315   6.845   7.513 -1.9809 -0.0259  0.7865
   28MOL   H46817802   4.505   6.616   7.588  0.3359 -0.6885  1.1850
   28MOL   H46917803   4.438   6.707   0.016 -0.8301 -0.0964 -0.8600
   28MOL   H47017804   4.593   6.833   7.485 -3.0125  0.8382 -0.5717
   28MOL   H47117805   4.660   6.793   7.635  2.1557  1.5572 -3.9066
   28MOL   H47217806   4.575   7.051   7.486  1.3321  0.5889  1.3339
   28MOL   H47317807   4.531   7.222   7.694  1.1783 -0.6769 -0.0939
   28MOL   H47417808   4.376   7.214   7.619  0.3445  3.2630 -1.3800
   28MOL   H47517809   4.503   7.396   7.555  2.1109 -0.3667 -0.2471
   28MOL   H47617810   4.625   7.302   7.474  0.1359 -0.7833 -0.0798
   28MOL   H47717811   4.424   7.395   7.344  0.5138  0.0795  0.3091
   28MOL   H47817812   4.338   7.258   7.377  0.2052 -1.3353 -1.5895
   28MOL   H47917813   4.487   7.104   7.267  3.4620 -0.7753  0.4953
   28MOL   H48017814   4.625   7.221   7.270 -0.3295  0.6473  2.9844
   28MOL   H48117815   4.386   7.237   7.099  1.3988  0.5151 -4.6119
   28MOL   C48217816   4.555   7.331   7.035  0.3751 -0.4859 -0.0971
   28MOL   O48317817   4.674   7.342   7.054  0.2007 -0.1655 -0.2401
   28MOL   C48417818   4.484   7.408   6.923 -0.0285 -0.1908  0.5977
   28MOL   C48517819   4.488   7.333   6.791 -0.4300 -0.4531  0.1443
   28MOL   C48617820   4.432   7.189   6.783 -0.0845 -0.1029  0.1782
   28MOL   C48717821   4.278   7.165   6.800 -0.3210  0.4145 -0.4510
   28MOL   C48817822   4.240   7.017   6.814  0.2681  0.4758 -0.0300
   28MOL   O48917823   4.324   6.934   6.800 -0.3803  0.2902 -0.1213
   28MOL   N49017824   4.110   6.990   6.837  0.7042 -0.3575 -0.0184
   28MOL   C49117825   4.040   6.864   6.842 -0.1899  0.1542 -1.1404
   28MOL   C49217826   3.948   6.848   6.721 -0.0950 -0.3123 -0.4037
   28MOL   C49317827   4.031   6.841   6.583 -0.0418  0.4267  0.6574
   28MOL   C49417828   3.951   6.785   6.463 -0.4623 -0.2045 -0.4539
   28MOL   N49517829   3.824   6.854   6.458 -0.4484 -0.1960  0.1202
   28MOL   H49617830   4.379   7.423   6.949 -0.1858  1.9901 -1.0975
   28MOL   H49717831   4.534   7.505   6.914 -0.8429  0.1928  0.1432
   28MOL   H49817832   4.431   7.395   6.722  1.3284  2.1365  0.9631
   28MOL   H49917833   4.587   7.333   6.746  0.2019  0.9228  1.5073
   28MOL   H50017834   4.494   7.129   6.850  0.2166 -0.0437 -0.0450
   28MOL   H50117835   4.465   7.142   6.690  1.3948  1.4024 -0.0785
   28MOL   H50217836   4.231   7.211   6.713  0.1053 -0.4326 -1.1390
   28MOL   H50317837   4.232   7.221   6.881 -0.1288  0.1870 -0.1830
   28MOL   H50417838   4.053   7.073   6.831 -1.5969 -1.8296  1.0715
   28MOL   H50517839   3.993   6.849   6.938  2.1845 -1.0365 -0.1229
   28MOL   H50617840   4.116   6.786   6.832 -0.9109 -0.6704 -0.1909
   28MOL   H50717841   3.890   6.756   6.729  0.3315 -0.5192  0.3063
   28MOL   H50817842   3.879   6.933   6.725 -0.6603 -0.7349 -1.1593
   28MOL   H50917843   4.112   6.769   6.596  0.1706  0.5246 -0.1080
   28MOL   H51017844   4.074   6.939   6.564 -0.6423  0.4640 -0.5589
   28MOL   H51117845   3.931   6.680   6.484  0.9091 -0.2296  0.8479
   28MOL   H51217846   4.014   6.795   6.375 -0.8478 -0.4145 -0.7558
   28MOL   H51317847   3.767   6.849   6.541 -0.8935 -0.1935 -0.1809
   28MOL   C51417848   3.786   6.948   6.376 -0.4833 -0.1969  0.6608
   28MOL   O51517849   3.846   6.972   6.273 -0.2146 -0.2079  0.5748
   28MOL   C51617850   3.667   7.034   6.409  0.1575  0.8068  0.0891
   28MOL   C51717851   3.698   7.175   6.445  0.6281  0.1865  0.2659
   28MOL   C51817852   3.788   7.195   6.569 -0.0421 -0.9895  0.4255
   28MOL   C51917853   3.843   7.335   6.585 -0.4504 -0.5580  0.2548
   28MOL   C52017854   3.945   7.348   6.697 -0.2928 -0.2014  0.4631
   28MOL   O52117855   3.979   7.254   6.764 -0.7218 -0.1299 -0.3937
   28MOL   N52217856   4.001   7.465   6.708  0.0016 -0.2319 -0.5427
   28MOL   C52317857   4.102   7.506   6.805  0.2055 -0.0125 -0.1348
   28MOL   C52417858   4.032   7.546   6.929 -0.5344  0.4478 -0.2005
   28MOL   C52517859   4.131   7.571   7.053  0.2827  0.1496 -0.0799
   28MOL   C52617860   4.234   7.685   7.043  0.6317  0.2041 -0.3432
   28MOL   N52717861   4.299   7.694   7.173  0.4357  0.0999 -0.5871
   28MOL   H52817862   3.594   7.010   6.332 -1.3504 -0.2751  1.8015
   28MOL   H52917863   3.635   6.984   6.501  0.6230 -1.6195 -1.0222
   28MOL   H53017864   3.757   7.227   6.370  1.8874 -0.4434  0.8134
   28MOL   H53117865   3.605   7.229   6.464  0.0033 -0.9488  0.4925
   28MOL   H53217866   3.878   7.133   6.569 -0.5921 -1.7935  0.3960
   28MOL   H53317867   3.732   7.156   6.653  0.2975  1.3911  1.7824
   28MOL   H53417868   3.777   7.420   6.602  0.0361 -0.0906 -0.1669
   28MOL   H53517869   3.905   7.354   6.497 -1.9006  0.3780 -0.6034
   28MOL   H53617870   3.967   7.526   6.635 -0.3473 -1.3214 -1.3066
   28MOL   H53717871   4.162   7.586   6.762  0.5100 -0.4318 -0.4868
   28MOL   H53817872   4.166   7.421   6.826 -0.3503 -1.1141 -2.6814
   28MOL   H53917873   3.968   7.626   6.893 -3.1677 -2.0524 -1.2797
   28MOL   H54017874   3.972   7.463   6.966 -2.5693  3.0632  2.5214
   28MOL   H54117875   4.187   7.479   7.070  0.0462  0.1958  1.0423
   28MOL   H54217876   4.066   7.575   7.141  0.2644 -1.6723  0.0114
   28MOL   H54317877   4.171   0.071   7.030 -1.6940 -0.9787  2.3384
   28MOL   H54417878   4.299   7.643   6.966  0.5066  0.0466 -0.3633
   28MOL   H54517879   4.256   7.630   7.239  1.3493 -0.5824 -0.6271
   28MOL   C54617880   4.430   0.021   7.182  0.7771 -0.8450 -0.4927
   28MOL   O54717881   4.488   0.079   7.086  0.1953 -0.5032 -0.0895
   28MOL   C54817882   4.500   7.688   7.307 -0.1644 -0.0600  0.3768
   28MOL   C54917883   4.643   7.622   7.280 -0.1758 -0.2569 -0.7128
   28MOL   C55017884   4.730   7.594   7.399  0.2427 -0.0493  0.1311
   28MOL   C55117885   4.831   7.482   7.365  0.6794 -0.0553  0.0029
   28MOL   C55217886   4.932   7.532   7.260  0.6560  0.5975  0.5330
   28MOL   O55317887   5.020   7.613   7.288 -0.1609  0.2198 -0.5539
   28MOL   N55417888   4.928   7.488   7.136 -0.3489  0.1781 -0.4000
   28MOL   C55517889   5.008   7.537   7.020  0.3868 -0.0770 -0.3657
   28MOL   C55617890   4.930   7.534   6.890  0.6556  0.5734 -0.8615
   28MOL   C55717891   4.831   7.641   6.888  0.3293  0.3077 -0.1853
   28MOL   C55817892   4.762   7.648   6.757  0.0378  0.4598 -0.6760
   28MOL   N55917893   4.653   0.049   6.771 -0.1962  0.0062 -0.2979
   28MOL   H56017894   4.522   0.082   7.354 -1.2042 -0.5669  1.9362
   28MOL   H56117895   4.428   7.634   7.370  0.2034  0.3657  1.1760
   28MOL   H56217896   4.622   7.530   7.227 -0.2253 -0.4039 -0.4366
   28MOL   H56317897   4.682   7.687   7.201 -0.8676  0.1631 -0.7038
   28MOL   H56417898   4.668   7.550   7.477  0.6517 -1.1316 -0.1390
   28MOL   H56517899   4.779   7.685   7.434 -1.1885  0.6464  0.3801
   28MOL   H56617900   4.782   7.394   7.324 -0.3696  0.1593  0.7530
   28MOL   H56717901   4.887   7.447   7.452  2.1839  2.4894  0.1139
   28MOL   H56817902   4.849   7.428   7.117 -0.2251 -0.2151  0.2814
   28MOL   H56917903   5.087   7.462   7.020  2.8552  2.3727  3.0598
   28MOL   H57017904   5.060   7.628   7.048 -0.2079 -0.1467  0.9926
   28MOL   H57117905   4.992   7.547   6.801  1.6763 -0.4880 -0.3205
   28MOL   H57217906   4.884   7.438   6.871 -1.5678  1.1188  1.5199
   28MOL   H57317907   4.867   0.042   6.903 -1.3641  0.9166 -0.1276
   28MOL   H57417908   4.763   7.633   6.972  1.8247  0.2826  1.0477
   28MOL   H57517909   4.715   7.559   6.716  0.7824 -0.1324 -0.2658
   28MOL   H57617910   4.839   7.679   6.687  0.5818 -1.3641 -0.9167
   28MOL   H57717911   4.643   0.091   6.862  1.0864 -0.3515  0.0209
   28MOL   C57817912   4.580   0.102   6.675 -0.0523  0.4568 -0.6842
   28MOL   O57917913   4.587   0.064   6.559  0.0573  0.4726 -0.0113
   28MOL   C58017914   4.491   0.219   6.706 -0.2253 -0.0519  0.5545
   28MOL   C58117915   4.374   0.241   6.613 -0.5173  0.5380 -0.2177
   28MOL   C58217916   4.279   0.120   6.615 -0.3191  0.0805 -0.2056
   28MOL   C58317917   4.126   0.148   6.594 -0.1182  0.1441 -1.3630
   28MOL   C58417918   4.070   0.227   6.712  0.5429 -0.3506  0.3675
   28MOL   O58517919   4.044   0.177   6.822  0.7085 -0.6326 -0.0412
   28MOL   N58617920   4.073   0.361   6.700 -0.2077  0.1663 -0.0070
   28MOL   C58717921   4.025   0.461   6.791 -0.3575 -0.0626 -0.2326
   28MOL   C58817922   3.891   0.518   6.740  0.4098  0.4358 -0.1800
   28MOL   C58917923   3.847   0.649   6.812 -0.1181  0.0055 -0.4137
   28MOL   C59017924   3.797   0.625   6.957  0.6983  0.4888  0.6775
   28MOL   N59117925   3.720   0.744   7.004 -0.2524 -0.3680 -0.1697
   28MOL   H59217926   4.452   0.198   6.806 -0.5369  0.4795  0.5487
   28MOL   H59317927   4.557   0.304   6.719  0.4886 -0.2358 -1.7683
   28MOL   H59417928   4.316   0.331   6.635 -0.3350  0.9591 -1.3935
   28MOL   H59517929   4.396   0.282   6.514 -1.6997  0.6767 -0.4326
   28MOL   H59617930   4.274   0.078   6.716 -0.2389  2.0275  0.6328
   28MOL   H59717931   4.317   0.047   6.544 -2.7091  0.1066 -1.5524
   28MOL   H59817932   4.067   0.057   6.581 -0.5327  0.4169 -1.3775
   28MOL   H59917933   4.112   0.211   6.507  1.0777  0.8015 -1.0899
   28MOL   H60017934   4.104   0.400   6.612 -0.1606 -0.1866 -0.1497
   28MOL   H60117935   4.102   0.538   6.795 -0.2321 -0.2592  1.6157
   28MOL   H60217936   4.011   0.426   6.893 -0.8035 -1.0969 -0.6443
   28MOL   H60317937   3.895   0.544   6.634  1.4844  1.9715  0.2181
   28MOL   H60417938   3.816   0.440   6.753 -0.1481  0.7155 -1.6103
   28MOL   H60517939   3.772   0.700   6.752 -1.8717 -1.8153  0.1869
   28MOL   H60617940   3.934   0.714   6.806  0.1556 -0.2601  0.5298
   28MOL   H60717941   3.886   0.599   7.014 -0.3397 -1.6445  1.3544
   28MOL   H60817942   3.729   0.541   6.957  0.8477  0.3424 -0.8765
   28MOL   H60917943   3.738   0.833   6.961 -1.8490  1.2777  2.4770
   28MOL   C61017944   3.639   0.732   7.110  0.2151 -0.4900 -0.5185
   28MOL   O61117945   3.627   0.628   7.178  0.0051 -0.2574 -0.2821
   28MOL   C61217946   3.564   0.858   7.156 -0.0700 -0.4061 -0.2597
   28MOL   C61317947   3.507   0.867   7.299 -0.0787 -0.2751 -0.5693
   28MOL   C61417948   3.611   0.915   7.412 -0.2361  0.1196  0.5557
   28MOL   C61517949   3.723   0.818   7.449 -0.1548 -0.8542  0.7210
   28MOL   C61617950   3.831   0.883   7.537  0.0090 -0.6229  0.4417
   28MOL   O61717951   3.880   0.987   7.500  0.2236 -0.8449 -0.8177
   28MOL   N61817952   3.870   0.821   7.648  0.3317  0.0339  0.1446
   28MOL   C61917953   3.988   0.859   0.015  0.4267  0.4669 -0.6656
   28MOL   C62017954   3.953   0.866   0.161 -0.0804 -0.3205 -0.1938
   28MOL   C62117955   4.075   0.922   0.236 -0.0385 -0.2256  0.8079
   28MOL   C62217956   4.201   0.827   0.229 -0.3861 -0.0094  0.0855
   28MOL   N62317957   4.176   0.696   0.291 -0.0089 -0.1445 -0.5739
   28MOL   H62417958   3.623   0.950   7.152 -0.1568 -0.2532  1.3983
   28MOL   H62517959   3.481   0.885   7.091 -0.6777  0.4754  0.8667
   28MOL   H62617960   3.414   0.925   7.291 -1.4196 -1.9454  2.1707
   28MOL   H62717961   3.472   0.769   7.330 -0.2738 -0.0343 -0.0105
   28MOL   H62817962   3.543   0.934   7.495 -1.4453  0.8468 -0.5606
   28MOL   H62917963   3.658   1.010   7.388  0.7739 -0.5745 -0.2298
   28MOL   H63017964   3.776   0.789   7.358  1.4924  2.3645  0.6035
   28MOL   H63117965   3.681   0.729   7.497 -0.4473  0.3498  2.7452
   28MOL   H63217966   3.828   0.733   7.673  0.5921 -0.6660 -1.8015
   28MOL   H63317967   4.035   0.947   7.673 -1.2582  2.7634  1.9344
   28MOL   H63417968   4.039   0.765   7.695 -0.6610 -0.0605 -0.9635
   28MOL   H63517969   3.871   0.934   0.185 -0.8383 -0.9849 -0.8984
   28MOL   H63617970   3.910   0.774   0.200  2.6883 -1.0938  1.1800
   28MOL   H63717971   4.058   0.940   0.342  2.2238  0.1449  1.1187
   28MOL   H63817972   4.118   1.015   0.199 -1.3797  0.9626  2.2045
   28MOL   H63917973   4.279   0.882   0.283 -0.5920  0.4661 -0.0935
   28MOL   H64017974   4.236   0.819   0.126  0.5036 -0.1190  0.3959
   28MOL   H64117975   4.262   0.644   0.281 -0.4380 -0.8946 -0.4485
   28MOL   H64217976   4.104   0.643   0.243  0.8459 -1.0129 -0.9055
   29MOL     C117977   7.404   2.175   3.922 -0.1863  0.9241 -0.8606
   29MOL     O217978   7.336   2.135   3.830 -0.1503 -0.1351  0.5158
   29MOL     C317979   7.527   2.080   3.952  0.1968 -0.5381  0.2079
   29MOL     C417980   7.486   1.940   4.010  0.4927 -0.0184 -0.1542
   29MOL     C517981   7.432   1.930   4.157  0.2466 -0.4213  1.0381
   29MOL     C617982   7.277   1.909   4.157 -0.3785 -0.0486 -0.1855
   29MOL     C717983   7.231   1.878   4.303 -0.1007  0.3052  0.7070
   29MOL     O817984   7.212   1.763   4.339  0.0800 -0.0828  0.0278
   29MOL     N917985   7.211   1.980   4.384 -1.0992  0.7045  0.0618
   29MOL    C1017986   7.163   1.987   4.521 -0.3602  0.1078 -0.1190
   29MOL    C1117987   7.184   2.126   4.576  0.0896  0.0791 -0.3272
   29MOL    C1217988   7.168   2.134   4.726 -0.1463  0.5659  0.1739
   29MOL    C1317989   7.176   2.272   4.800 -0.8388 -0.3097 -0.5377
   29MOL    N1417990   7.306   2.338   4.778  0.2708 -0.0634 -0.7199
   29MOL    H1517991   7.569   2.059   3.853  0.8633 -2.1556  0.8183
   29MOL    H1617992   7.595   2.126   4.023  0.1463 -0.2493  0.0673
   29MOL    H1717993   7.414   1.896   3.941 -0.5324 -0.0885  0.9612
   29MOL    H1817994   7.568   1.869   3.994  2.2424  2.2160 -1.4551
   29MOL    H1917995   7.453   2.022   4.212 -1.0620  1.4315 -1.4713
   29MOL    H2017996   7.486   1.851   4.209  0.0339 -1.0628  0.3027
   29MOL    H2117997   7.250   1.828   4.090 -0.3360  0.1805 -0.4813
   29MOL    H2217998   7.232   2.000   4.117  1.0046  0.2396 -1.1251
   29MOL    H2317999   7.246   2.067   4.347  0.9167 -0.2440 -0.3496
   29MOL    H2418000   7.219   1.908   4.572 -0.9612  1.2108  2.3312
   29MOL    H2518001   7.058   1.960   4.516 -0.2439 -0.0978 -1.5912
   29MOL    H2618002   7.286   2.164   4.562  0.4388 -0.8794 -0.4860
   29MOL    H2718003   7.116   2.195   4.527  1.2050  0.5118 -1.3068
   29MOL    H2818004   7.251   2.073   4.763  0.3639  0.5003 -1.0377
   29MOL    H2918005   7.078   2.081   4.757  0.6149 -0.1112  1.2951
   29MOL    H3018006   7.169   2.252   4.907  3.6297  0.1756 -0.0368
   29MOL    H3118007   7.092   2.334   4.771 -0.4296  0.3093 -0.4210
   29MOL    H3218008   7.291   2.429   4.735 -0.7867  0.1683  0.1087
   29MOL    H3318009   7.392   2.268   3.979 -0.7365 -0.5428  1.5011
   29MOL    C3418010   7.427   2.299   4.811  0.0370 -0.6317  0.0353
   29MOL    O3518011   7.454   2.185   4.862  0.3443 -0.0997 -0.5488
   29MOL    C3618012   7.536   2.398   4.775 -0.6980 -0.0074  0.1133
   29MOL    C3718013   7.557   2.504   4.887 -0.3260  0.2174 -0.2610
   29MOL    C3818014   7.632   2.444   5.007  0.1794  0.5517 -0.5685
   29MOL    C3918015   7.634   2.549   5.119  0.6447  0.0686 -0.3769
   29MOL    C4018016   0.025   2.507   5.236 -0.6111  0.3576  1.1159
   29MOL    O4118017   0.132   2.447   5.221 -0.3041  0.0426 -0.0653
   29MOL    N4218018   7.689   2.541   5.359  0.0889 -0.2006 -0.2692
   29MOL    C4318019   0.070   2.519   5.477  0.0248  0.4776  0.5652
   29MOL    C4418020   0.126   2.654   5.531  0.8766  0.1861  0.5129
   29MOL    C4518021   0.218   2.732   5.443 -0.3630 -0.4416  0.6691
   29MOL    C4618022   0.290   2.850   5.505  0.1604 -0.3147 -0.4485
   29MOL    N4718023   0.340   2.938   5.402 -0.3649 -0.3342  0.0582
   29MOL    H4818024   7.624   2.335   4.760 -2.3844 -2.5077  0.2680
   29MOL    H4918025   7.515   2.443   4.678 -1.5678 -0.1328  0.2336
   29MOL    H5018026   7.616   2.584   4.842  1.3991 -1.3444 -0.8837
   29MOL    H5118027   7.465   2.552   4.917  0.0044 -1.0240  2.8725
   29MOL    H5218028   0.025   2.429   4.955 -1.1285 -2.7185 -2.1181
   29MOL    H5318029   7.599   2.346   5.042  0.7231  0.8078  0.6925
   29MOL    H5418030   7.533   2.553   5.160  0.9810  0.5934  0.4170
   29MOL    H5518031   7.660   2.645   5.074  0.0638  0.3884 -0.0393
   29MOL    H5618032   7.595   2.572   5.378  0.5445  2.0788 -1.6346
   29MOL    H5718033   0.135   2.432   5.467  0.8053  1.1242 -0.0783
   29MOL    H5818034   0.005   2.488   5.559 -0.5437 -3.4580 -1.2563
   29MOL    H5918035   0.037   2.707   5.565  0.1775  0.5626 -1.7755
   29MOL    H6018036   0.187   2.633   5.618  2.5057 -1.5830 -1.0086
   29MOL    H6118037   0.160   2.764   5.356  1.5944  0.1405 -0.4699
   29MOL    H6218038   0.284   2.657   5.399  0.9411  0.6623  0.6689
   29MOL    H6318039   0.375   2.807   5.559 -1.0426 -0.0840  1.6753
   29MOL    H6418040   0.237   2.912   5.578  0.8166 -1.1606  0.7620
   29MOL    H6518041   0.437   2.929   5.378 -0.0781 -0.7804  1.3489
   29MOL    C6618042   0.291   3.057   5.365 -0.1801 -0.0793  0.2115
   29MOL    O6718043   0.175   3.098   5.382 -0.3459 -0.7970  0.3211
   29MOL    C6818044   0.383   3.148   5.295 -1.0356 -0.7309  0.0923
   29MOL    C6918045   0.456   3.249   5.386  0.7141  0.3709 -0.6687
   29MOL    C7018046   0.535   3.192   5.503 -0.2883  0.4612  0.0638
   29MOL    C7118047   0.603   3.300   5.581 -0.3437 -0.9807 -0.6330
   29MOL    C7218048   0.750   3.329   5.529  0.5630  0.4473  0.4321
   29MOL    O7318049   0.825   3.232   5.506  1.1411  0.3296  0.2454
   29MOL    N7418050   0.786   3.454   5.505 -0.0527 -0.6780  0.0860
   29MOL    C7518051   0.922   3.493   5.449  0.4814  0.2223 -0.4915
   29MOL    C7618052   1.003   3.593   5.527  0.4664 -0.0279 -0.3523
   29MOL    C7718053   1.135   3.620   5.462  0.4335  0.2873  0.5966
   29MOL    C7818054   1.244   3.695   5.546  0.1851  0.1625 -0.4213
   29MOL    N7918055   1.198   3.829   5.571 -0.4797  0.0363  0.0767
   29MOL    H8018056   0.451   3.081   5.242  0.8858  1.5805 -0.4256
   29MOL    H8118057   0.331   3.215   5.226 -1.6944 -3.1926 -1.8983
   29MOL    H8218058   0.524   3.309   5.325  2.0721  0.2945  0.7518
   29MOL    H8318059   0.377   3.316   5.419 -0.2370 -1.1829  0.2439
   29MOL    H8418060   0.608   3.115   5.478 -2.5918 -0.7451 -3.3983
   29MOL    H8518061   0.468   3.142   5.573  0.7573  1.7707  2.0423
   29MOL    H8618062   0.607   3.274   5.687  2.8991  1.4055 -0.0666
   29MOL    H8718063   0.548   3.394   5.579  1.0518 -0.1686 -2.1513
   29MOL    H8818064   0.719   3.527   5.520  0.7576  1.0045 -3.9222
   29MOL    H8918065   0.898   3.548   5.358  0.5558  0.1495 -0.5550
   29MOL    H9018066   0.973   3.408   5.405  0.2565  0.1310 -0.5786
   29MOL    H9118067   0.947   3.685   5.548  0.5704  0.2314 -1.1847
   29MOL    H9218068   1.019   3.551   5.626 -0.6325 -1.1680 -0.6508
   29MOL    H9318069   1.118   3.678   5.371 -3.1057 -0.4611  0.7228
   29MOL    H9418070   1.179   3.527   5.425 -2.1240 -2.3278  3.7765
   29MOL    H9518071   1.332   3.703   5.483  0.3062 -1.2610 -0.4432
   29MOL    H9618072   1.255   3.637   5.637 -0.1262  0.4211 -0.2155
   29MOL    H9718073   1.141   3.847   5.653  2.4604  2.0162  1.8223
   29MOL    C9818074   1.225   3.929   5.492  0.4662 -0.1017 -0.2310
   29MOL    O9918075   1.292   3.911   5.390 -0.3553 -0.2018 -0.1017
   29MOL   C10018076   1.157   4.064   5.524 -0.1520 -0.6525 -0.0797
   29MOL   C10118077   1.226   4.160   5.630  0.1249  0.2181  0.0367
   29MOL   C10218078   1.366   4.201   5.567 -0.4146  0.4043  0.3473
   29MOL   C10318079   1.425   4.319   5.641  0.4779 -0.3900  0.3105
   29MOL   C10418080   1.469   4.305   5.784  0.2736  0.0828 -0.5235
   29MOL   O10518081   1.559   4.229   5.817 -0.7118  0.5188 -0.3871
   29MOL   N10618082   1.405   4.378   5.871 -0.4181  0.7776  0.0767
   29MOL   C10718083   1.449   4.402   6.005  0.0479  0.4342  0.0293
   29MOL   C10818084   1.354   4.511   6.058 -0.0571 -0.2167 -0.2615
   29MOL   C10918085   1.380   4.539   6.208  0.7246 -0.2552  0.5105
   29MOL   C11018086   1.338   4.680   6.251 -0.5364  0.0966  0.3902
   29MOL   N11118087   1.338   4.689   6.397  0.0407 -0.0324 -0.2051
   29MOL   H11218088   1.136   4.110   5.427 -3.6399 -2.2674 -0.1550
   29MOL   H11318089   1.051   4.051   5.546 -0.0052 -0.9083  0.4721
   29MOL   H11418090   1.166   4.248   5.654  2.9979  2.5925 -1.1845
   29MOL   H11518091   1.231   4.104   5.724  0.6306 -2.0013 -1.2850
   29MOL   H11618092   1.345   4.233   5.465  0.4792  0.3499  0.1452
   29MOL   H11718093   1.433   4.115   5.564  0.7589  1.4121 -2.8359
   29MOL   H11818094   1.348   4.396   5.639  1.0397  0.1320 -2.1747
   29MOL   H11918095   1.501   4.365   5.577  0.0652 -1.1881 -0.7547
   29MOL   H12018096   1.325   4.431   5.841 -2.1555 -0.3714  2.5307
   29MOL   H12118097   1.552   4.438   5.999  0.7177 -1.1184  1.6457
   29MOL   H12218098   1.447   4.305   6.055 -0.1496 -0.3970 -1.5788
   29MOL   H12318099   1.379   4.602   6.004 -2.0143 -0.3292 -1.4174
   29MOL   H12418100   1.246   4.501   6.048  0.0524 -1.1757 -0.5411
   29MOL   H12518101   1.484   4.526   6.237  1.1613  0.3251 -0.7298
   29MOL   H12618102   1.324   4.462   6.261 -0.5408 -0.0181 -0.4643
   29MOL   H12718103   1.243   4.712   6.208 -0.5555 -1.2231 -0.6053
   29MOL   H12818104   1.413   4.752   6.220  0.5128 -0.2933  1.9428
   29MOL   H12918105   1.423   4.706   6.449 -0.1335  0.7047 -0.1522
   29MOL   C13018106   1.234   4.659   6.479  0.0114  0.6312  0.6421
   29MOL   O13118107   1.119   4.636   6.432 -0.5462  0.0326  0.2722
   29MOL   C13218108   1.258   4.644   6.634  0.6179 -0.4945 -0.0828
   29MOL   C13318109   1.206   4.514   6.700 -0.2431 -0.2206  0.5422
   29MOL   C13418110   1.294   4.392   6.704  0.5297  0.4116 -0.1307
   29MOL   C13518111   1.312   4.320   6.567  0.5831 -0.3180  0.4548
   29MOL   C13618112   1.419   4.216   6.574  0.6836 -0.3485 -0.2648
   29MOL   O13718113   1.459   4.188   6.691 -0.7588 -0.3641 -0.7100
   29MOL   N13818114   1.462   4.151   6.467  0.6267 -0.3226  0.2983
   29MOL   C13918115   1.573   4.068   6.466 -0.9721 -0.4319 -0.1573
   29MOL   C14018116   1.669   4.088   6.355  0.0996 -0.5022  0.0689
   29MOL   C14118117   1.612   4.042   6.216  0.9064  0.3969 -0.5672
   29MOL   C14218118   1.698   4.074   6.098 -0.6977  0.2809 -0.0182
   29MOL   N14318119   1.644   4.018   5.973  0.7811 -0.2503 -0.3902
   29MOL   H14418120   1.359   4.676   6.662 -0.3385  3.2057 -0.6236
   29MOL   H14518121   1.191   4.715   6.682  0.7595 -1.9923  2.4511
   29MOL   H14618122   1.166   4.540   6.798 -1.7449 -0.2278 -0.0603
   29MOL   H14718123   1.123   4.489   6.634 -0.5654  0.4786  0.6849
   29MOL   H14818124   1.241   4.331   6.777  0.7221  2.6779  1.9774
   29MOL   H14918125   1.391   4.421   6.743  1.4374 -1.0797 -1.2600
   29MOL   H15018126   1.353   4.389   6.494  1.5678  2.2095  3.3055
   29MOL   H15118127   1.220   4.281   6.523 -0.0856  3.6169 -1.8656
   29MOL   H15218128   1.417   4.153   6.377  0.7511 -1.9379  0.1826
   29MOL   H15318129   1.530   3.968   6.453 -0.6588 -0.5725 -0.1220
   29MOL   H15418130   1.623   4.063   6.562  2.2415 -1.9364 -1.8162
   29MOL   H15518131   1.692   4.194   6.348 -1.6284 -0.1098  0.2877
   29MOL   H15618132   1.759   4.027   6.363 -0.1027 -0.7313  0.6662
   29MOL   H15718133   1.513   4.085   6.199  0.9343  0.0968 -1.5161
   29MOL   H15818134   1.600   3.933   6.218 -1.5148  0.6391  1.3952
   29MOL   H15918135   1.802   4.044   6.104 -0.7328  0.2704  0.5396
   29MOL   H16018136   1.707   4.182   6.094 -0.3850  0.3127  1.2796
   29MOL   H16118137   1.588   4.076   5.913 -0.3360  0.0238  0.8841
   29MOL   C16218138   1.650   3.895   5.916 -0.1486 -0.2318  0.0373
   29MOL   O16318139   1.708   3.803   5.973  0.6410 -0.1207  0.2043
   29MOL   C16418140   1.593   3.872   5.772  0.1324 -0.9154 -0.4284
   29MOL   C16518141   1.474   3.778   5.765  0.6045 -1.2726  0.7220
   29MOL   C16618142   1.492   3.635   5.828 -0.4123 -0.2116  0.0211
   29MOL   C16718143   1.601   3.553   5.758 -0.0942 -0.1528  0.3741
   29MOL   C16818144   1.564   3.528   5.606 -1.0164  0.3839  0.4628
   29MOL   O16918145   1.460   3.469   5.580 -0.5089 -0.5164 -0.6883
   29MOL   N17018146   1.653   3.561   5.513  0.6375  0.0743 -0.0347
   29MOL   C17118147   1.636   3.509   5.378 -0.2739 -0.4356 -0.7779
   29MOL   C17218148   1.689   3.365   5.364  0.0137 -0.2150 -0.3805
   29MOL   C17318149   1.738   3.348   5.226 -0.0951  0.4054  0.6188
   29MOL   C17418150   1.737   3.204   5.179  0.0376 -0.0759 -0.3424
   29MOL   N17518151   1.601   3.151   5.168 -0.1874  0.3548 -0.0003
   29MOL   H17618152   1.574   3.973   5.737  1.0260 -0.0625  1.4968
   29MOL   H17718153   1.679   3.842   5.711  0.6518  1.7129 -1.0344
   29MOL   H17818154   1.385   3.828   5.801 -0.0795 -1.2937 -0.9187
   29MOL   H17918155   1.457   3.783   5.657 -0.7627  0.3714  1.0060
   29MOL   H18018156   1.401   3.576   5.821 -1.6139  1.6550 -0.4014
   29MOL   H18118157   1.513   3.632   5.935 -0.1146 -0.3186 -0.0393
   29MOL   H18218158   1.602   3.457   5.810 -0.7432  0.5905  1.7783
   29MOL   H18318159   1.701   3.597   5.755 -1.0954  2.3358  2.1567
   29MOL   H18418160   1.740   3.606   5.539  0.8154 -1.1125  1.5059
   29MOL   H18518161   1.695   3.584   5.324  0.9148  1.4589  2.9424
   29MOL   H18618162   1.531   3.521   5.353 -0.1381 -1.0624 -1.6646
   29MOL   H18718163   1.773   3.342   5.429 -1.8882 -0.2072  2.1481
   29MOL   H18818164   1.611   3.291   5.385 -0.0901  0.2416  0.8674
   29MOL   H18918165   1.837   3.394   5.225  1.0531 -1.9006  1.9179
   29MOL   H19018166   1.665   3.401   5.166 -0.6561 -0.4467  0.5381
   29MOL   H19118167   1.798   3.147   5.249 -1.7132  0.6607  1.8308
   29MOL   H19218168   1.783   3.193   5.081 -2.6356  0.0745 -1.6757
   29MOL   H19318169   1.559   3.189   5.084 -0.5726 -1.9771 -0.8968
   29MOL   C19418170   1.555   3.051   5.245 -0.1629  0.1684  0.5006
   29MOL   O19518171   1.619   2.982   5.326  0.1898  0.3424 -0.2436
   29MOL   C19618172   1.408   3.020   5.220 -0.8081 -0.3687  0.5997
   29MOL   C19718173   1.313   3.021   5.343 -0.0182  0.6509 -0.0843
   29MOL   C19818174   1.256   3.164   5.363 -0.3247  0.0082  0.2157
   29MOL   C19918175   1.158   3.180   5.475 -0.0174  0.2338 -1.0890
   29MOL   C20018176   1.193   3.117   5.609 -0.2452 -0.0506 -0.3186
   29MOL   O20118177   1.132   3.016   5.644 -0.1607 -0.3572  0.4783
   29MOL   N20218178   1.284   3.182   5.687 -0.6778 -0.2356  0.1361
   29MOL   C20318179   1.318   3.149   5.832  0.2606 -0.0421  0.0737
   29MOL   C20418180   1.408   3.265   5.897 -0.1880  0.6914  0.0807
   29MOL   C20518181   1.450   3.228   6.043 -0.5052 -0.3454  0.0546
   29MOL   C20618182   1.371   3.307   6.145 -0.1090  0.1117  0.5242
   29MOL   N20718183   1.385   3.449   6.131  0.4168  0.4961  0.0659
   29MOL   H20818184   1.372   3.088   5.142 -0.7374 -0.2704  0.6532
   29MOL   H20918185   1.406   2.922   5.173  2.4221  0.5215 -1.5585
   29MOL   H21018186   1.235   2.953   5.312  0.8226 -0.8944  1.1672
   29MOL   H21118187   1.353   2.984   5.437  1.3845  2.2618 -0.0029
   29MOL   H21218188   1.225   3.205   5.267  1.9727  0.4809 -0.3303
   29MOL   H21318189   1.331   3.236   5.397 -1.9872  0.7657  2.4471
   29MOL   H21418190   1.061   3.141   5.445 -0.8489  0.4565  1.2031
   29MOL   H21518191   1.141   3.287   5.491  1.5275  0.6448 -2.0480
   29MOL   H21618192   1.327   3.268   5.655  2.3536 -1.3172  1.0800
   29MOL   H21718193   1.368   3.052   5.838  0.9328  0.3907  1.8895
   29MOL   H21818194   1.224   3.131   5.883 -0.4020 -1.0125 -1.4484
   29MOL   H21918195   1.493   3.273   5.829 -1.2522 -0.9493 -1.5065
   29MOL   H22018196   1.350   3.357   5.897 -1.0075  0.2370  3.0637
   29MOL   H22118197   1.557   3.240   6.057 -0.2704 -0.7416 -1.2796
   29MOL   H22218198   1.444   3.121   6.062  1.6818 -0.1118  2.2234
   29MOL   H22318199   1.425   3.291   6.239  0.8122  0.1017 -0.0052
   29MOL   H22418200   1.268   3.274   6.159 -1.1395  1.8725 -2.5840
   29MOL   H22518201   1.451   3.482   6.062  0.9502  1.0950  0.8393
   29MOL   C22618202   1.296   3.523   6.201  0.4521 -0.7929  0.6189
   29MOL   O22718203   1.217   3.477   6.282  0.1552 -0.1872 -0.0360
   29MOL   C22818204   1.297   3.673   6.167  0.0481 -0.0794 -0.0427
   29MOL   C22918205   1.214   3.764   6.263  0.2394  0.2121  0.3166
   29MOL   C23018206   1.226   3.919   6.227 -0.7134 -0.8743  0.1607
   29MOL   C23118207   1.139   4.008   6.315 -0.0846  0.3681 -0.7192
   29MOL   C23218208   1.140   4.147   6.273 -0.2418 -0.6117 -0.0499
   29MOL   O23318209   1.252   4.208   6.256  0.6042  0.2695 -0.0038
   29MOL   N23418210   1.023   4.210   6.255 -0.4018  0.5674 -0.7226
   29MOL   C23518211   1.009   4.345   6.202  0.1378 -0.3183 -0.3356
   29MOL   C23618212   1.015   4.355   6.052 -0.6517  1.4362  0.1481
   29MOL   C23718213   0.909   4.272   5.972  0.3497  0.3660 -0.0021
   29MOL   C23818214   0.887   4.316   5.830 -0.5890 -0.2140 -0.1800
   29MOL   N23918215   0.864   4.463   5.814  0.2587 -0.8239 -0.5929
   29MOL   H24018216   1.400   3.709   6.164 -0.1474  0.4044 -1.3973
   29MOL   H24118217   1.259   3.687   6.066  0.6036  0.1789 -0.2176
   29MOL   H24218218   1.107   3.745   6.263  0.4318 -0.9504  1.4440
   29MOL   H24318219   1.238   3.753   6.369 -0.7568  0.9448  0.6306
   29MOL   H24418220   1.192   3.924   6.124 -1.8575 -0.1955  0.5651
   29MOL   H24518221   1.331   3.948   6.236 -1.6840  2.3729  2.0943
   29MOL   H24618222   1.187   4.013   6.412  2.8183  1.1676 -2.1382
   29MOL   H24718223   1.039   3.965   6.324  0.9521 -2.3009 -1.4190
   29MOL   H24818224   0.932   4.170   6.276 -0.5543  0.5416 -1.4289
   29MOL   H24918225   1.091   4.409   6.235  0.4889 -0.6355 -0.5869
   29MOL   H25018226   0.917   4.382   6.246  0.1971 -0.2068 -0.3066
   29MOL   H25118227   1.014   4.460   6.026  0.9903  0.6871 -3.1034
   29MOL   H25218228   1.109   4.311   6.020 -1.2982 -0.8788  1.2751
   29MOL   H25318229   0.812   4.268   6.021 -0.5546  3.2640 -1.4128
   29MOL   H25418230   0.936   4.167   5.975  0.2650  0.3597  0.5549
   29MOL   H25518231   0.818   4.264   5.764  0.3226  2.4014 -3.3365
   29MOL   H25618232   0.982   4.300   5.779  0.3248  0.3569  1.3087
   29MOL   H25718233   0.937   4.517   5.770 -0.9549  2.1130  0.7826
   29MOL   C25818234   0.749   4.521   5.846 -0.0436  0.1233 -0.1238
   29MOL   O25918235   0.655   4.454   5.889  1.1345  0.2593 -0.3178
   29MOL   C26018236   0.753   4.675   5.852  0.2893  0.7770 -0.6072
   29MOL   C26118237   0.754   4.740   5.993 -0.5678 -0.2719 -0.2194
   29MOL   C26218238   0.865   4.686   6.095  0.1442  0.2792 -0.9694
   29MOL   C26318239   0.868   4.764   6.230  0.3302  0.1722 -0.0078
   29MOL   C26418240   0.942   4.897   6.228  0.0585 -0.3125  0.4565
   29MOL   O26518241   0.909   4.983   6.143 -0.2812  0.1903  0.3037
   29MOL   N26618242   1.049   4.912   6.305 -0.0099 -0.3385 -0.2366
   29MOL   C26718243   1.142   5.029   6.312 -0.1527  0.7128  0.4174
   29MOL   C26818244   1.227   5.043   6.186  0.0367 -0.1542 -0.0832
   29MOL   C26918245   1.313   5.171   6.188  0.2379  0.0027 -0.4435
   29MOL   C27018246   1.248   5.306   6.167 -0.7512 -0.1604  0.1452
   29MOL   N27118247   1.222   5.358   6.302  0.0726 -0.6701 -0.5750
   29MOL   H27218248   0.841   4.706   5.797  1.1590  0.0467  0.3434
   29MOL   H27318249   0.672   4.715   5.791 -1.4388 -2.0079 -0.2164
   29MOL   H27418250   0.773   4.845   5.971 -1.5441 -0.2352 -0.8922
   29MOL   H27518251   0.654   4.722   6.032  0.6338 -2.2552  2.1175
   29MOL   H27618252   0.968   4.688   6.059  0.6187 -1.8809  0.1849
   29MOL   H27718253   0.845   4.581   6.116  0.9904  0.6231  1.8693
   29MOL   H27818254   0.911   4.703   6.309 -0.3256  0.0723  0.2745
   29MOL   H27918255   0.770   4.794   6.268  0.6802 -0.7403  1.6443
   29MOL   H28018256   1.075   4.834   6.364 -0.6381  1.6736  2.8298
   29MOL   H28118257   1.207   5.024   6.400 -0.8439  2.0173  1.0186
   29MOL   H28218258   1.092   5.125   6.328 -1.7943 -0.2152  0.9645
   29MOL   H28318259   1.282   4.949   6.176  0.0940  0.1436 -2.8564
   29MOL   H28418260   1.166   5.065   6.098 -0.4866 -1.2982 -0.0303
   29MOL   H28518261   1.392   5.155   6.114  0.1763  0.5878 -0.6408
   29MOL   H28618262   1.370   5.175   6.280  0.8310 -0.7652 -0.7659
   29MOL   H28718263   1.172   5.305   6.089 -0.6712 -0.4641  0.0679
   29MOL   H28818264   1.319   5.371   6.116 -2.7686 -0.8431 -3.7271
   29MOL   H28918265   1.134   5.346   6.349 -0.2521  0.8996 -0.7476
   29MOL   C29018266   1.305   5.442   6.367  0.7670  0.3647 -0.4487
   29MOL   O29118267   1.412   5.488   6.325  0.1989  0.0989  0.0309
   29MOL   C29218268   1.259   5.479   6.505 -0.2869  0.0137 -0.5862
   29MOL   C29318269   1.348   5.418   6.614  0.2599  0.2575  0.1471
   29MOL   C29418270   1.358   5.265   6.612 -0.3025 -0.7672  0.0645
   29MOL   C29518271   1.229   5.207   6.677  1.0266 -0.4197  0.3459
   29MOL   C29618272   1.244   5.050   6.714  0.4849  0.0726  0.4965
   29MOL   O29718273   1.347   4.989   6.688  0.5017  0.6907 -0.3827
   29MOL   N29818274   1.142   4.980   6.770 -0.6334  0.4424  0.2487
   29MOL   C29918275   1.012   5.030   6.818 -0.1199  0.7449 -0.3857
   29MOL   C30018276   0.901   4.947   6.749 -0.0548 -0.1887  0.5320
   29MOL   C30118277   0.858   5.000   6.608  0.5099 -0.0555  0.7844
   29MOL   C30218278   0.762   5.121   6.594  0.0927 -1.4750 -0.0635
   29MOL   N30318279   0.754   5.183   6.455  0.4304 -0.5871 -0.7161
   29MOL   H30418280   1.243   5.586   6.516 -0.7984 -0.1852  0.6146
   29MOL   H30518281   1.159   5.439   6.521 -0.0554  0.3852  1.9746
   29MOL   H30618282   1.452   5.449   6.597 -0.1012  1.5472  0.2423
   29MOL   H30718283   1.333   5.469   6.710  0.7916  1.2087 -0.2592
   29MOL   H30818284   1.441   5.233   6.674  0.4716  0.4496 -0.3276
   29MOL   H30918285   1.374   5.231   6.509  1.1043 -1.7508  0.6099
   29MOL   H31018286   1.145   5.217   6.608  0.1685 -1.5815  1.2099
   29MOL   H31118287   1.191   5.265   6.760  2.2601  0.0111  0.6234
   29MOL   H31218288   1.166   4.884   6.789  0.2188  0.5721 -0.1578
   29MOL   H31318289   1.006   5.136   6.796  0.5872  1.3179  2.0637
   29MOL   H31418290   1.009   5.018   6.926 -0.2967 -1.8082 -0.6352
   29MOL   H31518291   0.934   4.844   6.736 -0.2152 -0.0983 -0.6442
   29MOL   H31618292   0.821   4.941   6.823 -0.3639  1.7584  0.3902
   29MOL   H31718293   0.813   4.914   6.558  1.6965  1.7383 -3.6137
   29MOL   H31818294   0.954   5.017   6.560 -0.9255  3.4229 -1.0608
   29MOL   H31918295   0.785   5.190   6.675  0.1870 -0.4670 -0.9352
   29MOL   H32018296   0.662   5.083   6.616  0.1125 -1.4782  0.0211
   29MOL   H32118297   0.685   5.140   6.395  0.6921  0.8815 -2.0831
   29MOL   C32218298   0.847   5.250   6.393 -0.6623  0.5818 -0.4419
   29MOL   O32318299   0.946   5.292   6.455  0.0283 -0.0343  0.1451
   29MOL   C32418300   0.838   5.262   6.242 -0.2105 -0.3598  0.0500
   29MOL   C32518301   0.826   5.402   6.177 -0.2704  0.1882  0.5568
   29MOL   C32618302   0.935   5.502   6.212 -0.0092 -0.3958 -0.3900
   29MOL   C32718303   0.906   5.646   6.163 -0.0798  0.3191 -0.4521
   29MOL   C32818304   1.016   5.755   6.192  0.8264 -0.1330  0.2333
   29MOL   O32918305   1.057   5.767   6.310 -0.5243  0.2665 -0.0371
   29MOL   N33018306   1.058   5.837   6.091 -0.1632 -0.0330 -0.4094
   29MOL   C33118307   1.150   5.945   6.115 -0.4277  0.5488 -0.5676
   29MOL   C33218308   1.290   5.900   6.070 -0.2472  0.5467 -0.5367
   29MOL   C33318309   1.351   5.769   6.135 -0.0549 -0.1084  0.1631
   29MOL   C33418310   1.496   5.747   6.084 -0.7170 -0.0013 -0.0943
   29MOL   N33518311   1.542   5.614   6.124  0.2756  0.7290  0.0544
   29MOL   H33618312   0.934   5.231   6.200  0.0590 -1.3054  1.3217
   29MOL   H33718313   0.770   5.186   6.203  0.2019  0.7174 -2.9149
   29MOL   H33818314   0.817   5.388   6.069 -1.3250  0.5682  0.5917
   29MOL   H33918315   0.732   5.440   6.217 -0.2799 -0.5868  1.2904
   29MOL   H34018316   1.035   5.473   6.179 -0.4106 -0.6201 -1.4252
   29MOL   H34118317   0.962   5.506   6.318 -1.5791 -0.7493  0.0327
   29MOL   H34218318   0.823   5.692   6.216  0.1407 -0.3466  0.4655
   29MOL   H34318319   0.873   5.661   6.060  0.1292  1.0568 -0.4180
   29MOL   H34418320   1.035   5.821   5.994  1.2644  0.0636 -0.7698
   29MOL   H34518321   1.154   5.960   6.223 -1.4233 -1.4780 -0.2190
   29MOL   H34618322   1.104   6.027   6.059 -0.2581 -0.0323 -1.5650
   29MOL   H34718323   1.284   5.863   5.967  0.8139  1.7541 -1.0433
   29MOL   H34818324   1.360   5.981   6.085  1.5887 -0.2884 -3.9915
   29MOL   H34918325   1.299   5.676   6.111 -0.8869  0.5866 -0.7777
   29MOL   H35018326   1.354   5.780   6.243 -1.3436  0.7671  0.1279
   29MOL   H35118327   1.568   5.824   6.113 -1.4945 -0.2655  2.7044
   29MOL   H35218328   1.498   5.746   5.975 -4.9089 -0.9879 -0.2344
   29MOL   H35318329   1.488   5.563   6.192  0.2034  0.9138  0.1357
   29MOL   C35418330   1.641   5.546   6.062 -0.9954 -0.3953 -0.1857
   29MOL   O35518331   1.705   5.597   5.971  0.1714  0.6660 -0.5639
   29MOL   C35618332   1.671   5.402   6.103  0.1852 -1.0610 -0.3421
   29MOL   C35718333   1.691   5.290   5.996  0.6048  0.0164  0.5931
   29MOL   C35818334   1.576   5.273   5.889  0.2333 -0.0265  0.2519
   29MOL   C35918335   1.602   5.162   5.780  0.3329 -0.2783 -0.1626
   29MOL   C36018336   1.567   5.030   5.851  0.7445  0.0603 -0.2243
   29MOL   O36118337   1.478   5.022   5.938  0.2802 -0.0187 -0.3986
   29MOL   N36218338   1.644   4.921   5.819  0.1879 -0.2397  0.0442
   29MOL   C36318339   1.637   4.781   5.864 -0.1846  0.1090  1.0042
   29MOL   C36418340   1.612   4.690   5.746  0.6992 -0.3206 -0.4948
   29MOL   C36518341   1.494   4.721   5.660 -0.4264 -0.0043 -0.5902
   29MOL   C36618342   1.362   4.715   5.730  1.3588 -0.1795 -0.0084
   29MOL   N36718343   1.255   4.751   5.640 -0.3218  0.2756  1.4253
   29MOL   H36818344   1.757   5.408   6.171 -0.2160  1.9697 -0.0254
   29MOL   H36918345   1.601   5.370   6.180  1.7802  0.2834  1.7402
   29MOL   H37018346   1.788   5.313   5.953 -0.1681  2.5520  0.1158
   29MOL   H37118347   1.715   5.193   6.039 -0.7416 -1.5266 -1.9887
   29MOL   H37218348   1.555   5.366   5.838 -0.8226 -0.7806 -0.7058
   29MOL   H37318349   1.480   5.259   5.939  0.5243 -0.1096  0.7978
   29MOL   H37418350   1.701   5.155   5.737  0.7216 -0.6087  0.7676
   29MOL   H37518351   1.528   5.187   5.704 -1.1183 -1.8084  0.6954
   29MOL   H37618352   1.719   4.943   5.755  0.4996  0.0860  0.5176
   29MOL   H37718353   1.552   4.773   5.931 -2.0823  1.6615 -1.1754
   29MOL   H37818354   1.731   4.765   5.917  0.3161 -0.4457 -0.0387
   29MOL   H37918355   1.702   4.692   5.684  0.8364 -0.7606 -0.3128
   29MOL   H38018356   1.580   4.595   5.789  0.4128  0.6197  1.4252
   29MOL   H38118357   1.493   4.658   5.571 -0.2626  0.3558 -0.8477
   29MOL   H38218358   1.508   4.819   5.614  1.7816 -0.7299 -1.4978
   29MOL   H38318359   1.356   4.779   5.818 -0.3426 -0.3380  0.0074
   29MOL   H38418360   1.333   4.616   5.765  2.3651 -0.7159 -0.6674
   29MOL   H38518361   1.255   4.833   5.581  0.0336 -0.1132  0.8816
   29MOL   C38618362   1.133   4.704   5.644 -0.3699 -0.0430 -0.1410
   29MOL   O38718363   1.099   4.620   5.725 -0.1913  1.0289  0.2919
   29MOL   C38818364   1.041   4.755   5.532  0.3442 -0.3679  0.0968
   29MOL   C38918365   0.961   4.645   5.460 -0.5707  0.0873  0.4516
   29MOL   C39018366   1.062   4.541   5.397 -0.1038  0.6724  0.1607
   29MOL   C39118367   0.993   4.437   5.308 -0.2664 -0.2101 -0.4773
   29MOL   C39218368   0.881   4.350   5.373 -0.1967  0.8918  0.0365
   29MOL   O39318369   0.905   4.283   5.470 -0.1586 -0.0964  0.0442
   29MOL   N39418370   0.759   4.357   5.315  0.2256  0.2039 -0.1149
   29MOL   C39518371   0.640   4.305   5.385  0.3042 -0.6687 -0.6267
   29MOL   C39618372   0.564   4.422   5.458 -0.6623  0.2343 -0.1741
   29MOL   C39718373   0.419   4.374   5.481 -0.6096  0.1309  0.3249
   29MOL   C39818374   0.396   4.316   5.623  0.3394  0.2243  0.8710
   29MOL   N39918375   0.414   4.409   5.732  0.9456  0.2734 -0.0982
   29MOL   H40018376   0.963   4.812   5.582  0.8786 -1.1870  1.9201
   29MOL   H40118377   1.078   4.822   5.455  2.3867 -0.4610  0.9561
   29MOL   H40218378   0.889   4.597   5.527  1.1188 -1.1166  1.4502
   29MOL   H40318379   0.893   4.683   5.383 -0.4872  0.2042  0.4367
   29MOL   H40418380   1.113   4.482   5.473 -1.6148 -1.3632 -0.3652
   29MOL   H40518381   1.137   4.601   5.346 -0.8401  0.1529 -1.5890
   29MOL   H40618382   1.073   4.374   5.269  1.2091 -0.3694  2.6093
   29MOL   H40718383   0.947   4.488   5.224 -1.1398  2.0368  1.3122
   29MOL   H40818384   0.746   4.422   5.239  0.4218  2.1275  1.4502
   29MOL   H40918385   0.667   4.236   5.465  0.3407  1.6130  1.3932
   29MOL   H41018386   0.580   4.269   5.302 -1.7681  0.6335  0.2668
   29MOL   H41118387   0.601   4.466   5.551 -2.1331 -0.4611  0.7498
   29MOL   H41218388   0.548   4.505   5.388  0.1795 -0.2629 -0.9783
   29MOL   H41318389   0.403   4.295   5.408 -1.3180  0.8860 -0.3505
   29MOL   H41418390   0.345   4.451   5.463 -0.0756  0.1317 -2.0171
   29MOL   H41518391   0.469   4.238   5.646  0.1707 -0.0350  0.5185
   29MOL   H41618392   0.297   4.270   5.622  0.5182 -0.1733  1.2732
   29MOL   H41718393   0.498   4.403   5.786  0.3543 -1.5173  0.6323
   29MOL   C41818394   0.322   4.499   5.762 -0.2811 -0.5345  0.7666
   29MOL   O41918395   0.213   4.505   5.709  0.0579  0.0339 -0.1968
   29MOL   C42018396   0.363   4.598   5.875  0.2985  0.0717 -0.2039
   29MOL   C42118397   0.242   4.645   5.954  0.4263 -0.4385 -0.6476
   29MOL   C42218398   0.218   4.554   6.080 -0.4950 -0.1971  0.3013
   29MOL   C42318399   0.071   4.567   6.125 -0.4739 -0.3136  0.5554
   29MOL   C42418400   0.033   4.699   6.195 -0.0605  0.5707  0.5377
   29MOL   O42518401   0.118   4.762   6.267  0.4220  0.0506 -0.4560
   29MOL   N42618402   7.617   4.753   6.161 -0.3388  0.0778  0.6258
   29MOL   C42718403   7.571   4.877   6.218 -0.3293 -0.5725 -1.4046
   29MOL   C42818404   7.427   4.912   6.171  0.0560 -0.7702  0.2853
   29MOL   C42918405   7.322   4.814   6.232  0.3203  0.8851 -0.0139
   29MOL   C43018406   7.183   4.823   6.175  0.1298  0.6334  0.5569
   29MOL   N43118407   7.089   4.759   6.271  0.0500 -0.0181  0.5594
   29MOL   H43218408   0.418   4.530   5.940 -0.3838 -0.1997  0.0940
   29MOL   H43318409   0.429   4.680   5.844 -1.6456  2.1206  0.9215
   29MOL   H43418410   0.246   4.749   5.987 -0.5336 -1.1043  1.6381
   29MOL   H43518411   0.157   4.649   5.887  1.1378  1.7808 -1.4550
   29MOL   H43618412   0.293   4.587   6.152 -1.6944  3.1222  0.1011
   29MOL   H43718413   0.232   4.452   6.044 -0.1217  0.1864 -0.6541
   29MOL   H43818414   0.041   4.483   6.187  0.3990 -0.0342  1.3606
   29MOL   H43918415   0.005   4.555   6.039 -0.2434 -0.8253  0.4501
   29MOL   H44018416   7.562   4.705   6.092 -0.7631  0.2899  0.8113
   29MOL   H44118417   7.646   4.949   6.185 -0.1939  0.2936  0.7510
   29MOL   H44218418   7.574   4.869   6.327 -0.7182 -0.2899 -1.3738
   29MOL   H44318419   7.405   5.012   6.206  1.4037 -0.3236 -0.1229
   29MOL   H44418420   7.414   4.921   6.063  1.3101 -0.9348  0.1096
   29MOL   H44518421   7.324   4.809   6.341  0.3403  0.7595 -0.0196
   29MOL   H44618422   7.361   4.717   6.201  1.1167  0.9777  0.6982
   29MOL   H44718423   7.171   4.777   6.077 -1.1461  2.1482 -0.0118
   29MOL   H44818424   7.148   4.926   6.171  0.5643  0.7458 -0.2465
   29MOL   H44918425   7.068   4.817   6.350 -1.7202  1.8771 -1.2205
   29MOL   C45018426   7.038   4.632   6.267 -0.3872  0.4606  0.0211
   29MOL   O45118427   7.065   4.552   6.173  0.0658 -0.0331 -0.2023
   29MOL   C45218428   6.960   4.574   6.386  0.2185 -0.7195 -0.1110
   29MOL   C45318429   7.046   4.467   6.458 -0.0049  0.1539 -0.6813
   29MOL   C45418430   6.955   4.344   6.493 -0.1275  1.0296  0.7667
   29MOL   C45518431   7.041   4.234   6.564 -0.3027  0.0564  0.3204
   29MOL   C45618432   7.096   4.276   6.703 -0.3231 -0.5637  0.7998
   29MOL   O45718433   7.061   4.375   6.764  0.6288 -0.5527  0.4693
   29MOL   N45818434   7.189   4.198   6.750 -0.4086 -0.2870  0.7903
   29MOL   C45918435   7.242   4.205   6.884 -0.4203 -0.1374  0.2054
   29MOL   C46018436   7.334   4.326   6.915 -0.1230  0.2016  0.6074
   29MOL   C46118437   7.475   4.334   6.846 -0.5388  0.6524 -0.3022
   29MOL   C46218438   7.558   4.464   6.887  0.0967 -1.2030 -0.1326
   29MOL   N46318439   7.670   4.492   6.794 -0.1451  0.2746 -0.4174
   29MOL   H46418440   6.937   4.657   6.453 -0.8034  1.2222 -2.8009
   29MOL   H46518441   6.860   4.539   6.360 -0.5259  1.6310 -0.5528
   29MOL   H46618442   7.126   4.438   6.390  2.5105  3.0134  0.8954
   29MOL   H46718443   7.095   4.518   6.541  2.0727 -0.2297 -1.6486
   29MOL   H46818444   6.904   4.314   6.402  0.5818  1.6081  0.1731
   29MOL   H46918445   6.883   4.387   6.563  0.3330  0.7949  1.3909
   29MOL   H47018446   7.130   4.203   6.510  0.1467  0.4591  0.8251
   29MOL   H47118447   6.977   4.147   6.580  0.5990 -0.4149  1.4186
   29MOL   H47218448   7.224   4.119   6.697  1.3964  0.7446  0.4081
   29MOL   H47318449   7.302   4.114   6.886  0.0874  0.2013  0.4276
   29MOL   H47418450   7.170   4.185   6.964  1.0590  0.2717  1.6741
   29MOL   H47518451   7.277   4.415   6.889 -2.1930 -1.2871 -0.0495
   29MOL   H47618452   7.355   4.326   7.022 -0.0350 -1.3747  0.5935
   29MOL   H47718453   7.454   4.320   6.740 -0.8007 -0.9983 -0.0386
   29MOL   H47818454   7.536   4.249   6.875  1.0999  1.4523 -1.3226
   29MOL   H47918455   7.592   4.437   6.986 -0.5257 -1.1273  0.1069
   29MOL   H48018456   7.490   4.549   6.893  0.9409 -0.3376 -2.4430
   29MOL   H48118457   0.038   4.419   6.785 -0.1376  0.5317 -2.7457
   29MOL   C48218458   7.690   4.599   6.718 -0.4670  0.0202 -0.6844
   29MOL   O48318459   7.614   4.697   6.725  0.0423  0.1721  0.2648
   29MOL   C48418460   0.122   4.592   6.633 -0.3202  0.3050  0.8710
   29MOL   C48518461   0.123   4.479   6.520 -0.4909  0.3316 -0.0276
   29MOL   C48618462   0.273   4.444   6.477 -0.7984 -0.5927 -0.0300
   29MOL   C48718463   0.327   4.310   6.530  0.0576 -0.0233  0.3678
   29MOL   C48818464   0.252   4.194   6.469  0.1074 -0.9344 -0.5298
   29MOL   O48918465   0.270   4.170   6.345  0.5782 -0.3077 -0.1678
   29MOL   N49018466   0.173   4.119   6.544  0.4959 -0.2949 -0.7267
   29MOL   C49118467   0.104   4.002   6.506  0.4161  0.0722 -0.0347
   29MOL   C49218468   0.207   3.889   6.510  0.5742  0.5824 -0.2199
   29MOL   C49318469   0.139   3.745   6.509  1.1057  0.1065 -0.0368
   29MOL   C49418470   0.225   3.640   6.583  0.4790  0.0474 -0.0021
   29MOL   N49518471   0.139   3.515   6.591  0.3749  0.3312  0.2432
   29MOL   H49618472   0.140   4.693   6.598  1.5309 -0.0268  0.8432
   29MOL   H49718473   0.194   4.578   6.714 -0.0877  0.6246  0.7180
   29MOL   H49818474   0.060   4.399   6.558 -0.8282  0.9800  0.7875
   29MOL   H49918475   0.065   4.528   6.442 -2.4286 -1.6303  0.1452
   29MOL   H50018476   0.342   4.520   6.512 -1.8599  0.8605 -1.0574
   29MOL   H50118477   0.285   4.448   6.369 -0.8373 -0.2412 -0.0188
   29MOL   H50218478   0.329   4.302   6.638 -2.4028 -1.2198  0.3720
   29MOL   H50318479   0.430   4.294   6.499 -0.3093 -2.2866  0.2621
   29MOL   H50418480   0.169   4.144   6.642 -0.1173 -1.2691 -0.4918
   29MOL   H50518481   0.042   4.003   6.417  1.1840  2.4423 -0.5892
   29MOL   H50618482   0.028   3.987   6.582  1.8994 -1.7051  1.1442
   29MOL   H50718483   0.265   3.903   6.419 -0.6876  2.8360 -0.7040
   29MOL   H50818484   0.275   3.902   6.595  0.1389  1.4776  0.0025
   29MOL   H50918485   0.138   3.714   6.404 -0.3690  2.0403 -0.6313
   29MOL   H51018486   0.036   3.750   6.546  1.2266  0.6118  0.2394
   29MOL   H51118487   0.274   3.669   6.675  0.4651 -1.4931  0.4977
   29MOL   H51218488   0.314   3.613   6.526  0.4842 -2.4842  1.1645
   29MOL   H51318489   0.139   3.458   6.507 -0.6056 -1.0507  1.1736
   29MOL   C51418490   0.037   3.502   6.674 -0.0313 -0.4367  0.5254
   29MOL   O51518491   0.011   3.579   6.767 -0.3806  0.0433  0.4898
   29MOL   C51618492   7.649   3.383   6.665  0.2777  0.8079 -0.5688
   29MOL   C51718493   7.496   3.417   6.650 -0.7968  0.4160  0.0512
   29MOL   C51818494   7.409   3.296   6.664  0.4214  0.3969 -0.1112
   29MOL   C51918495   7.255   3.315   6.649 -1.1913  0.9286  0.0983
   29MOL   C52018496   7.206   3.343   6.503  0.2127  0.2807 -0.0396
   29MOL   O52118497   7.259   3.279   6.410 -0.0771 -0.2620  0.3323
   29MOL   N52218498   7.105   3.427   6.474 -0.0497 -0.2136  0.2790
   29MOL   C52318499   7.025   3.432   6.350  1.0114 -0.5829  0.0400
   29MOL   C52418500   7.052   3.572   6.282 -0.2754 -0.1562  0.0161
   29MOL   C52518501   6.957   3.602   6.166  0.6742 -0.3764  0.8162
   29MOL   C52618502   7.024   3.693   6.058  0.0206  0.0229 -0.4754
   29MOL   N52718503   6.914   3.735   5.975  0.1808  0.2544 -0.6682
   29MOL   H52818504   7.684   3.318   6.585 -0.4228  1.9725 -1.8413
   29MOL   H52918505   7.677   3.337   6.760  0.2334 -1.4432 -1.6117
   29MOL   H53018506   7.456   3.489   6.721  0.8855  0.4332  1.0161
   29MOL   H53118507   7.474   3.457   6.551  1.2638  0.3391 -0.4602
   29MOL   H53218508   7.424   3.257   6.765 -0.4804  1.2782  0.3824
   29MOL   H53318509   7.441   3.218   6.595 -0.4024  0.3964 -0.5005
   29MOL   H53418510   7.219   3.392   6.718  0.5059 -0.8819  3.1211
   29MOL   H53518511   7.199   3.224   6.669 -0.1119  0.6379  1.9150
   29MOL   H53618512   7.074   3.487   6.549  0.5357 -0.7183  0.9332
   29MOL   H53718513   6.922   3.416   6.382  0.7307 -1.0015 -1.0440
   29MOL   H53818514   7.053   3.356   6.276 -1.5799 -1.3542 -0.2084
   29MOL   H53918515   7.041   3.657   6.351 -2.4928 -0.1790 -0.2620
   29MOL   H54018516   7.157   3.578   6.254 -0.2952 -2.1295 -0.5271
   29MOL   H54118517   6.868   3.657   6.197 -1.1039 -2.0231 -1.2714
   29MOL   H54218518   6.912   3.511   6.125  2.7978 -1.3489  0.5767
   29MOL   H54318519   7.100   3.641   6.000 -1.4957 -1.5393 -1.1113
   29MOL   H54418520   7.072   3.770   6.119 -1.3094  0.2943  0.2526
   29MOL   H54518521   6.831   3.764   6.024 -0.0580 -1.3452 -0.1225
   29MOL   C54618522   6.916   3.745   5.843 -0.5344 -0.0413 -0.2970
   29MOL   O54718523   7.014   3.704   5.775  0.8484  0.2312 -0.2616
   29MOL   C54818524   6.785   3.803   5.781  0.1812  0.1500  0.8715
   29MOL   C54918525   6.702   3.707   5.688  0.5581  0.1317  0.0910
   29MOL   C55018526   6.556   3.685   5.720 -0.1134 -0.4624  0.6883
   29MOL   C55118527   6.482   3.598   5.622 -0.1481  0.0982  0.1493
   29MOL   C55218528   6.329   3.593   5.633 -0.6927 -0.6632 -0.2839
   29MOL   O55318529   6.277   3.635   5.733 -0.3617 -0.0988 -0.5333
   29MOL   N55418530   6.259   3.544   5.529 -0.0721 -0.2516  0.5883
   29MOL   C55518531   6.109   3.547   5.522 -0.1000 -0.0913  0.0379
   29MOL   C55618532   6.068   3.636   5.413  0.6648  0.4889  0.0577
   29MOL   C55718533   5.921   3.641   5.376 -0.7414 -0.1744 -0.2842
   29MOL   C55818534   5.909   3.726   5.253  0.2109  0.6135 -0.0845
   29MOL   N55918535   5.772   3.757   5.224 -0.0516 -0.6945  0.0539
   29MOL   H56018536   6.721   3.829   5.866  1.9624  1.9870  1.6926
   29MOL   H56118537   6.806   3.899   5.734  0.8852  0.9758  2.7901
   29MOL   H56218538   6.715   3.747   5.588 -0.1215  1.9700  0.7167
   29MOL   H56318539   6.745   3.606   5.686 -0.9148 -0.5158  0.4008
   29MOL   H56418540   6.515   3.786   5.730  1.3593  0.2570 -0.3179
   29MOL   H56518541   6.553   3.641   5.820 -0.4352  1.7926  1.7154
   29MOL   H56618542   6.527   3.499   5.630 -1.4109 -0.4257  1.0011
   29MOL   H56718543   6.519   3.644   5.530 -2.1424  0.6094 -0.4242
   29MOL   H56818544   6.306   3.517   5.444 -2.3112 -0.7637 -0.5377
   29MOL   H56918545   6.065   3.595   5.609  1.4082 -1.3424  1.5299
   29MOL   H57018546   6.070   3.446   5.531 -1.3127  0.1290 -2.4124
   29MOL   H57118547   6.104   3.736   5.437  1.4567  0.2126  0.0559
   29MOL   H57218548   6.111   3.596   5.322  0.3832  1.7025 -0.6115
   29MOL   H57318549   5.872   3.676   5.467  1.9132 -1.7940  1.8313
   29MOL   H57418550   5.899   3.534   5.374  1.2752 -0.5932 -0.2920
   29MOL   H57518551   5.956   3.665   5.175 -0.6059 -1.1534  0.7795
   29MOL   H57618552   5.957   3.823   5.252  1.2644  0.1046  0.3990
   29MOL   H57718553   5.714   3.802   5.294 -2.2531 -1.0321 -1.4764
   29MOL   C57818554   5.728   3.777   5.101  0.0246  0.5290  0.4312
   29MOL   O57918555   5.781   3.728   5.004  0.0263 -0.2729  0.1489
   29MOL   C58018556   5.597   3.845   5.087 -0.2096 -0.1818 -0.0082
   29MOL   C58118557   5.499   3.788   4.978 -0.2053 -0.3974  0.0937
   29MOL   C58218558   5.359   3.852   4.989 -0.0865 -0.3106 -0.3016
   29MOL   C58318559   5.358   3.993   4.927 -0.4049  0.0806  0.4861
   29MOL   C58418560   5.223   4.051   4.901 -0.6250 -0.2504 -0.4613
   29MOL   O58518561   5.135   4.008   4.984 -0.3543 -0.5726 -0.4211
   29MOL   N58618562   5.216   4.142   4.804 -0.6316  0.6220 -0.4970
   29MOL   C58718563   5.100   4.231   4.781 -0.2190  0.1840  0.3232
   29MOL   C58818564   5.111   4.366   4.859  0.0408 -0.4097 -0.2181
   29MOL   C58918565   5.222   4.457   4.806 -0.5658 -0.0503 -0.0708
   29MOL   C59018566   5.219   4.595   4.883  0.1538 -0.3471 -0.0694
   29MOL   N59118567   5.315   4.592   4.993 -0.4836  0.2314  0.8150
   29MOL   H59218568   5.549   3.842   5.185 -0.4797  1.8701 -0.0559
   29MOL   H59318569   5.607   3.953   5.081  2.2873 -0.4853 -1.6427
   29MOL   H59418570   5.534   3.815   4.878  0.4310  1.9796  0.9372
   29MOL   H59518571   5.483   3.682   5.000  0.8652 -0.8764 -1.3038
   29MOL   H59618572   5.325   3.857   5.093  0.0663  2.4784 -0.3400
   29MOL   H59718573   5.286   3.793   4.935 -2.1833  0.8789  1.1364
   29MOL   H59818574   5.410   3.995   4.831  1.4906  0.0500  1.5084
   29MOL   H59918575   5.411   4.051   5.002 -0.2655  1.3001 -0.5287
   29MOL   H60018576   5.305   4.177   4.771 -1.5507  3.6506  0.0886
   29MOL   H60118577   5.004   4.191   4.812 -0.7847 -0.3008 -1.9703
   29MOL   H60218578   5.093   4.251   4.674  1.7814  1.7077  0.4340
   29MOL   H60318579   5.020   4.416   4.826  0.7534  0.5796 -0.7306
   29MOL   H60418580   5.112   4.352   4.967  1.1580 -2.0862 -0.4359
   29MOL   H60518581   5.205   4.491   4.704 -0.9298  0.4918  0.1729
   29MOL   H60618582   5.320   4.409   4.807 -0.5084  0.0478 -0.8163
   29MOL   H60718583   5.120   4.624   4.917  0.7317  0.4082  0.9701
   29MOL   H60818584   5.253   4.673   4.814  0.0687 -1.1000 -0.9766
   29MOL   H60918585   5.394   4.649   4.967  0.1933 -1.4717 -1.0111
   29MOL   C61018586   5.305   4.548   5.118 -0.6176  0.5953  0.4987
   29MOL   O61118587   5.209   4.483   5.156 -0.2365  0.0519  0.5906
   29MOL   C61218588   5.423   4.576   5.213 -0.3922  0.0024 -0.7147
   29MOL   C61318589   5.433   4.492   5.340 -0.1561  0.4389 -0.9398
   29MOL   C61418590   5.524   4.369   5.319 -0.1996  0.2760 -0.6459
   29MOL   C61518591   5.460   4.261   5.225  0.1744 -0.2727  0.1535
   29MOL   C61618592   5.348   4.174   5.287 -0.1751 -0.5591 -0.8598
   29MOL   O61718593   5.376   4.066   5.336  0.5865 -0.3254 -0.6296
   29MOL   N61818594   5.225   4.219   5.271  0.3037 -0.3359 -0.7666
   29MOL   C61918595   5.103   4.141   5.288 -0.9080  0.0865 -0.4461
   29MOL   C62018596   4.975   4.207   5.257 -0.1579 -0.0001 -0.0980
   29MOL   C62118597   4.946   4.332   5.347  0.1247 -0.6574  0.7215
   29MOL   C62218598   4.899   4.290   5.493 -0.0800  0.2232 -0.5587
   29MOL   N62318599   4.841   4.407   5.559 -0.3302 -0.3406  0.3876
   29MOL   H62418600   5.523   4.581   5.170  0.0140 -2.4694 -0.1175
   29MOL   H62518601   5.397   4.675   5.250 -1.5522 -0.9252  1.0642
   29MOL   H62618602   5.481   4.553   5.416  0.5011 -1.0566 -0.1278
   29MOL   H62718603   5.337   4.452   5.375  0.7054 -0.4396  0.4746
   29MOL   H62818604   5.542   4.328   5.418 -0.2468 -0.4956 -0.9570
   29MOL   H62918605   5.620   4.402   5.278  0.7350 -1.7352 -0.1557
   29MOL   H63018606   5.535   4.190   5.188 -0.0238 -0.8094  0.7698
   29MOL   H63118607   5.412   4.316   5.143  2.3128  1.4802  0.0366
   29MOL   H63218608   5.213   4.316   5.244  0.1931  0.4192  1.9001
   29MOL   H63318609   5.093   4.118   5.394  0.4794 -0.8949 -0.5239
   29MOL   H63418610   5.110   4.046   5.235 -1.4335  0.3001 -0.9171
   29MOL   H63518611   4.971   4.226   5.150 -0.9919 -0.5896 -0.1774
   29MOL   H63618612   4.901   4.132   5.286 -1.1737  1.1347  0.2743
   29MOL   H63718613   4.870   4.390   5.294  1.6300 -0.0826 -0.8930
   29MOL   H63818614   5.034   4.397   5.346 -0.9742  0.8718  0.3791
   29MOL   H63918615   4.984   4.251   5.550 -0.8964 -1.1766 -0.2872
   29MOL   H64018616   4.825   4.211   5.490  0.5341 -0.3834 -0.0765
   29MOL   H64118617   4.801   4.386   5.649  0.7342 -0.2213  0.8883
   29MOL   H64218618   4.775   4.456   5.500  1.3989  0.3164 -1.0525
   30MOL     C118619   7.564   1.165   0.667  0.2373  0.8434 -0.1107
   30MOL     O218620   7.633   1.226   0.748  0.0873  0.1103 -0.3290
   30MOL     C318621   7.497   1.238   0.550 -0.8502 -0.3827  0.2310
   30MOL     C418622   7.592   1.343   0.488 -0.1618 -0.2763 -0.0514
   30MOL     C518623   7.542   1.407   0.357  0.6482 -0.4160 -0.6128
   30MOL     C618624   7.415   1.497   0.372 -0.1985  0.0507 -0.7243
   30MOL     C718625   7.410   1.596   0.486  0.2412  0.0869 -0.5611
   30MOL     O818626   7.506   1.666   0.522 -0.2634 -0.0761  0.3251
   30MOL     N918627   7.286   1.608   0.543 -0.1073 -0.7279  0.3701
   30MOL    C1018628   7.250   1.677   0.662 -0.4327 -0.0852  0.4657
   30MOL    C1118629   7.270   1.601   0.795  0.2692  0.8905  0.2223
   30MOL    C1218630   7.203   1.465   0.815 -0.1919 -0.2045  0.0218
   30MOL    C1318631   7.214   1.418   0.962  0.2129 -0.4394  0.1001
   30MOL    N1418632   7.348   1.393   0.997  0.0079  0.7419 -0.1093
   30MOL    H1518633   7.467   1.163   0.476 -0.0814  0.1845 -0.6690
   30MOL    H1618634   7.408   1.281   0.596 -0.9818 -1.2413  0.7801
   30MOL    H1718635   7.611   1.417   0.566 -0.2232  1.6113 -1.7897
   30MOL    H1818636   7.694   1.303   0.483 -1.4862 -3.9765  0.6505
   30MOL    H1918637   7.522   1.341   0.273  0.6190  0.0108 -0.9452
   30MOL    H2018638   7.620   1.476   0.324 -0.0373  0.2388 -0.8917
   30MOL    H2118639   7.329   1.434   0.394  0.8670 -0.7791  1.1853
   30MOL    H2218640   7.395   1.551   0.280 -0.6596  0.6515 -0.2815
   30MOL    H2318641   7.205   1.575   0.491  0.3295 -1.3527  0.0836
   30MOL    H2418642   7.145   1.703   0.652 -0.2521  0.2242 -0.6739
   30MOL    H2518643   7.301   1.774   0.660 -0.7844  0.0777 -1.0677
   30MOL    H2618644   7.377   1.584   0.803 -0.2010 -1.7977  1.6033
   30MOL    H2718645   7.244   1.674   0.872 -1.0565  2.6426 -1.8248
   30MOL    H2818646   7.234   1.390   0.743  0.1698 -0.5617  0.5483
   30MOL    H2918647   7.097   1.471   0.790 -0.1639  0.0960 -0.0241
   30MOL    H3018648   7.153   1.330   0.984  0.1457 -0.9886 -2.1278
   30MOL    H3118649   7.174   1.489   1.034  1.4066 -0.7229  1.0686
   30MOL    H3218650   7.405   1.342   0.931 -2.8139 -0.9345 -1.3724
   30MOL    H3318651   7.554   1.057   0.682 -2.2377  0.8339 -1.5631
   30MOL    C3418652   7.415   1.448   1.098  0.3250  0.0544 -0.2437
   30MOL    O3518653   7.368   1.519   1.191  0.4121  0.1101  0.3212
   30MOL    C3618654   7.567   1.427   1.092  0.9017  0.2488  0.1206
   30MOL    C3718655   7.617   1.348   1.218 -0.3841 -0.4948 -0.2246
   30MOL    C3818656   7.586   1.199   1.224  0.3748 -0.0167  0.0042
   30MOL    C3918657   7.597   1.103   1.103 -0.7469 -0.4009  0.2831
   30MOL    C4018658   0.040   1.075   1.072  0.8332 -0.1474  0.2411
   30MOL    O4118659   0.114   1.014   1.152 -0.3079  0.4337 -0.0489
   30MOL    N4218660   0.079   1.113   0.950 -0.1300  0.4305 -0.6370
   30MOL    C4318661   0.221   1.110   0.909  0.4236 -0.6564 -0.3806
   30MOL    C4418662   0.245   1.188   0.788 -0.1456  0.3964 -0.4062
   30MOL    C4518663   0.394   1.217   0.756  0.7756 -0.5257 -0.0129
   30MOL    C4618664   0.406   1.288   0.627 -0.4361 -0.1895  0.6186
   30MOL    N4718665   0.322   1.408   0.612  0.2291  0.7558 -0.7021
   30MOL    H4818666   7.587   1.363   1.006 -0.0773  1.5791 -1.1095
   30MOL    H4918667   7.617   1.524   1.086  1.8669 -0.1804  1.0391
   30MOL    H5018668   0.024   1.349   1.225 -0.4254 -1.7627  0.9179
   30MOL    H5118669   7.572   1.404   1.300  1.6578  0.1596  0.4783
   30MOL    H5218670   7.480   1.206   1.249  0.5918  1.9371  0.4044
   30MOL    H5318671   7.628   1.160   1.317  1.4921  1.2960  0.0639
   30MOL    H5418672   7.550   1.155   1.020  0.5792  0.0854 -0.1784
   30MOL    H5518673   7.552   1.009   1.135 -1.1614 -1.0320 -2.1254
   30MOL    H5618674   0.018   1.165   0.888  0.6236  0.6108 -1.2422
   30MOL    H5718675   0.235   1.005   0.885  2.6667 -0.3366 -0.6430
   30MOL    H5818676   0.294   1.144   0.983  1.5692 -0.3063 -1.6361
   30MOL    H5918677   0.198   1.139   0.703 -1.4381  0.3139  0.3402
   30MOL    H6018678   0.192   1.282   0.807  0.6150  0.2007  3.0154
   30MOL    H6118679   0.453   1.125   0.744  0.6350 -0.6679  0.3919
   30MOL    H6218680   0.442   1.278   0.832 -0.3378 -0.8238  0.9432
   30MOL    H6318681   0.377   1.219   0.548 -0.2064  0.9183 -0.4533
   30MOL    H6418682   0.510   1.320   0.623 -0.5089 -0.0600 -0.5130
   30MOL    H6518683   0.311   1.471   0.690  1.2363 -1.9929  1.7623
   30MOL    C6618684   0.281   1.456   0.497  0.3328 -0.6981  0.1839
   30MOL    O6718685   0.300   1.399   0.385 -0.6864 -1.0174 -0.1967
   30MOL    C6818686   0.207   1.586   0.494  0.5566 -0.5600  0.1568
   30MOL    C6918687   0.264   1.714   0.421 -0.3175 -0.5997  0.7725
   30MOL    C7018688   0.163   1.842   0.447  0.4830  0.1730  0.0114
   30MOL    C7118689   0.205   1.965   0.369  0.4593 -0.2445 -0.9341
   30MOL    C7218690   0.193   1.951   0.221 -0.2510 -0.0215  0.4525
   30MOL    O7318691   0.083   1.917   0.169 -0.0179  0.0116 -0.3322
   30MOL    N7418692   0.300   1.990   0.155  0.1245 -0.4369 -0.2402
   30MOL    C7518693   0.314   1.998   0.011  0.4306  0.0453 -0.6612
   30MOL    C7618694   0.381   1.868   7.663  0.3811  0.6981  0.7999
   30MOL    C7718695   0.519   1.840   0.013  0.4124 -0.3361  1.0835
   30MOL    C7818696   0.614   1.769   7.619 -0.2233  0.4482 -0.0682
   30MOL    N7918697   0.753   1.767   7.665 -0.3445 -0.1643  1.5290
   30MOL    H8018698   0.105   1.576   0.456  1.0125  1.5274 -1.7048
   30MOL    H8118699   0.190   1.609   0.599 -2.8631 -1.1491 -0.2015
   30MOL    H8218700   0.354   1.738   0.478 -0.6120  2.1455  0.1916
   30MOL    H8318701   0.272   1.696   0.314 -1.5576  1.5721  0.2749
   30MOL    H8418702   0.156   1.876   0.550 -0.0794  1.3662 -0.4166
   30MOL    H8518703   0.062   1.806   0.425  1.4637 -2.2875 -0.6994
   30MOL    H8618704   0.308   1.988   0.394  0.2540  1.0072 -1.2342
   30MOL    H8718705   0.152   2.056   0.394  2.9705  1.2862 -1.0051
   30MOL    H8818706   0.385   2.018   0.202  0.0454 -1.4005  0.4868
   30MOL    H8918707   0.372   2.084   7.677  0.7155  0.2971  0.4036
   30MOL    H9018708   0.212   2.004   7.674 -0.0185  0.2839  0.5379
   30MOL    H9118709   0.319   1.780   7.675  1.0868 -0.0382 -0.7452
   30MOL    H9218710   0.390   1.886   7.556 -2.5931 -1.1286  0.1722
   30MOL    H9318711   0.518   1.783   0.106  1.5895 -0.6539  0.9081
   30MOL    H9418712   0.564   1.938   0.029 -2.5542  1.3854 -0.7733
   30MOL    H9518713   0.600   1.797   7.515 -0.3155  0.1483 -0.1375
   30MOL    H9618714   0.579   1.665   7.619  2.7773 -0.6142  1.5640
   30MOL    H9718715   0.789   1.709   0.038 -0.4747 -2.0401  0.1873
   30MOL    C9818716   0.837   1.850   7.606  0.6346 -0.7709  0.3051
   30MOL    O9918717   0.802   1.932   7.525 -0.0006  0.0962  0.2296
   30MOL   C10018718   0.980   1.834   7.656  0.9079  0.6169 -0.4678
   30MOL   C10118719   1.081   1.903   7.569  0.0303 -0.2697  0.3022
   30MOL   C10218720   1.081   2.062   7.556 -0.2455 -0.0990  1.0110
   30MOL   C10318721   1.132   2.116   7.422 -0.0082  0.8698 -0.7652
   30MOL   C10418722   1.275   2.062   7.409  0.6445 -0.2274  0.3526
   30MOL   O10518723   1.342   2.029   7.506  0.3043 -0.7347  0.0138
   30MOL   N10618724   1.327   2.045   7.288 -0.1532  0.4007 -0.2497
   30MOL   C10718725   1.465   2.000   7.255 -0.1757  0.7869  0.0015
   30MOL   C10818726   1.483   1.942   7.121 -0.1365  0.4789 -0.2424
   30MOL   C10918727   1.617   1.876   7.107 -0.2274 -0.4043 -0.0159
   30MOL   C11018728   1.726   1.976   7.110  0.6007 -0.2934 -0.4581
   30MOL   N11118729   1.731   2.049   6.983 -0.1895 -0.2688 -0.2617
   30MOL   H11218730   0.982   1.873   0.057  0.1824  1.0157 -0.6012
   30MOL   H11318731   0.997   1.728   7.677 -3.7145 -0.9499 -3.7928
   30MOL   H11418732   1.180   1.860   7.588 -0.3577 -0.1296  2.7988
   30MOL   H11518733   1.059   1.871   7.467  0.9298 -0.9184  0.2943
   30MOL   H11618734   1.153   2.101   7.627  0.6501  0.8420 -0.3725
   30MOL   H11718735   0.989   2.104   7.596 -0.1706  0.0685  1.0045
   30MOL   H11818736   1.120   2.224   7.422 -3.7214  0.5456 -0.6322
   30MOL   H11918737   1.069   2.084   7.339  0.2654 -0.8541 -0.3416
   30MOL   H12018738   1.264   2.054   7.209  0.4601  1.7763 -0.5995
   30MOL   H12118739   1.508   1.926   7.323  0.1526  0.7219 -0.2728
   30MOL   H12218740   1.531   2.087   7.260 -0.3677  0.9007  0.5679
   30MOL   H12318741   1.406   1.865   7.110 -0.5526  0.7445  0.7775
   30MOL   H12418742   1.459   2.015   7.043 -2.7490 -0.7632 -0.6741
   30MOL   H12518743   1.619   1.819   7.014  1.7957 -0.4373  0.0210
   30MOL   H12618744   1.641   1.806   7.187  0.4827  2.3980  2.3453
   30MOL   H12718745   1.820   1.926   7.135  0.1855 -1.2886 -0.8221
   30MOL   H12818746   1.713   2.052   7.186  0.3103  0.5232 -1.3125
   30MOL   H12918747   1.776   2.004   6.905  0.7310  0.9377 -0.4485
   30MOL   C13018748   1.706   2.180   6.964  0.5258  0.3304 -0.1053
   30MOL   O13118749   1.647   2.250   7.044 -0.3299 -0.0851  0.3334
   30MOL   C13218750   1.760   2.243   6.833 -0.2113 -0.3893  0.1735
   30MOL   C13318751   1.732   2.390   6.814 -0.2084  0.0958 -0.0450
   30MOL   C13418752   1.777   2.434   6.677 -0.5129  0.7941  0.8245
   30MOL   C13518753   1.740   2.577   6.637 -0.1756  0.3853 -0.2473
   30MOL   C13618754   1.774   2.680   6.744 -0.1946  0.4106 -0.3042
   30MOL   O13718755   1.873   2.666   6.814  0.3704  0.0009 -0.5539
   30MOL   N13818756   1.684   2.774   6.774 -0.0441  0.1471  0.5496
   30MOL   C13918757   1.655   2.833   6.900  0.4657 -0.6804 -0.1058
   30MOL   C14018758   1.588   2.724   6.990  0.2211  1.0075  0.3478
   30MOL   C14118759   1.495   2.775   7.107 -0.4869  0.3095 -0.0097
   30MOL   C14218760   1.360   2.841   7.071 -0.1894  0.0709 -1.2592
   30MOL   N14318761   1.306   2.903   7.194  0.0851 -0.3288 -0.3137
   30MOL   H14418762   1.868   2.232   6.825 -0.2702 -1.6634  0.8994
   30MOL   H14518763   1.719   2.191   6.747 -1.4036  1.9463 -0.7031
   30MOL   H14618764   1.625   2.414   6.810 -0.0799  0.7892  0.4609
   30MOL   H14718765   1.779   2.450   6.892  1.6351 -2.1419  0.6067
   30MOL   H14818766   1.735   2.376   6.594  2.4344 -1.2181  0.6510
   30MOL   H14918767   1.884   2.418   6.658 -0.7161  0.6778 -0.2791
   30MOL   H15018768   1.633   2.578   6.617 -0.9935 -1.0249  3.4510
   30MOL   H15118769   1.786   2.605   6.543  1.4590  0.0124  0.4046
   30MOL   H15218770   1.619   2.780   6.698 -0.0161 -0.4604  0.4732
   30MOL   H15318771   1.603   2.928   6.889 -0.8680 -1.5854 -2.1043
   30MOL   H15418772   1.751   2.851   6.947  1.3588  0.0117 -2.1396
   30MOL   H15518773   1.526   2.665   6.922 -0.8444  1.3365  1.0396
   30MOL   H15618774   1.662   2.651   7.025 -0.9775  0.8324  2.5829
   30MOL   H15718775   1.545   2.847   7.172 -1.5697  0.8947  0.1982
   30MOL   H15818776   1.468   2.689   7.168 -1.3903 -0.2839 -1.2133
   30MOL   H15918777   1.290   2.766   7.036 -0.3622 -0.1310 -0.4827
   30MOL   H16018778   1.377   2.913   6.991 -1.7369  0.0861 -1.5887
   30MOL   H16118779   1.370   2.920   7.270 -2.2532 -2.4007  2.2411
   30MOL   C16218780   1.178   2.949   7.204  0.3718  1.0017  0.5616
   30MOL   O16318781   1.092   2.945   7.111 -0.1598 -0.3688  0.0749
   30MOL   C16418782   1.143   3.005   7.342 -0.2244  0.2158 -0.2447
   30MOL   C16518783   1.099   3.157   7.330  0.0736 -0.3469 -0.5145
   30MOL   C16618784   1.084   3.221   7.468 -0.1667 -0.3538  0.2269
   30MOL   C16718785   1.047   3.374   7.446 -0.2031 -0.6744 -0.6868
   30MOL   C16818786   0.908   3.395   7.387  0.6120 -0.3054 -0.0950
   30MOL   O16918787   0.813   3.314   7.408 -0.2559 -0.0720  0.4756
   30MOL   N17018788   0.896   3.498   7.304  0.0877  0.1616  0.8745
   30MOL   C17118789   0.774   3.554   7.243 -0.1432 -0.1543  1.1733
   30MOL   C17218790   0.816   3.669   7.148  0.2663  0.2858 -0.7119
   30MOL   C17318791   0.703   3.767   7.104  0.0349 -0.3982 -0.4606
   30MOL   C17418792   0.739   3.864   6.993  0.6230 -0.1002  1.0197
   30MOL   N17518793   0.630   3.955   6.946 -0.5783 -0.1902  0.1823
   30MOL   H17618794   1.053   2.957   7.380  1.6769 -0.6156  3.3611
   30MOL   H17718795   1.224   2.986   7.411 -0.9684  0.9570  0.8419
   30MOL   H17818796   1.176   3.216   7.282 -1.3343 -1.1959 -3.9638
   30MOL   H17918797   1.014   3.171   7.264  0.1207 -0.6103 -0.6305
   30MOL   H18018798   1.177   3.210   7.523  0.0181  1.2827  0.2678
   30MOL   H18118799   1.003   3.171   7.521 -0.1671 -1.5255 -0.8479
   30MOL   H18218800   1.123   3.417   7.381  1.8386 -1.4625  1.0967
   30MOL   H18318801   1.057   3.429   7.540 -0.0038  0.4225 -1.3478
   30MOL   H18418802   0.983   3.543   7.279  0.2569 -0.4660  0.3113
   30MOL   H18518803   0.696   3.577   7.316 -0.8193 -0.5341  0.5696
   30MOL   H18618804   0.720   3.480   7.184 -2.2695  2.0717  0.2344
   30MOL   H18718805   0.886   3.734   7.199  0.1116  0.3426 -0.5711
   30MOL   H18818806   0.867   3.619   7.065 -0.7431  0.3145 -1.3673
   30MOL   H18918807   0.667   3.825   7.189 -2.8578 -0.5823 -1.5306
   30MOL   H19018808   0.613   3.716   7.071 -0.4426  1.2127 -1.6933
   30MOL   H19118809   0.762   3.816   6.898 -0.1536  0.8817  0.3190
   30MOL   H19218810   0.821   3.929   7.023  0.0998  0.9125  0.2852
   30MOL   H19318811   0.608   3.949   6.848 -0.9973  2.7922  0.0507
   30MOL   C19418812   0.569   4.059   7.009 -0.7225  0.2484 -0.4193
   30MOL   O19518813   0.604   4.084   7.125  0.0593  0.0408  0.4761
   30MOL   C19618814   0.455   4.132   6.928 -0.6970  0.0828  0.7024
   30MOL   C19718815   0.449   4.288   6.962  0.9478 -0.3426 -0.5722
   30MOL   C19818816   0.347   4.325   7.064 -0.9779 -0.6409 -0.0289
   30MOL   C19918817   0.198   4.352   7.012  0.5401  0.1091  0.4534
   30MOL   C20018818   0.133   4.231   6.936 -0.6163 -0.5281  0.2430
   30MOL   O20118819   0.160   4.216   6.818 -0.5492  0.0241 -0.0407
   30MOL   N20218820   0.046   4.156   7.006 -0.2770 -0.6965  0.5637
   30MOL   C20318821   7.693   4.027   6.963 -0.1352 -0.0635 -0.2342
   30MOL   C20418822   0.095   3.913   6.959 -0.0671  0.2923 -1.1673
   30MOL   C20518823   0.199   3.893   7.072 -0.7638  0.0285  1.2651
   30MOL   C20618824   0.298   3.780   7.032 -0.2304 -0.0865 -0.2333
   30MOL   N20718825   0.232   3.655   7.018 -0.3249 -0.0608  0.2776
   30MOL   H20818826   0.482   4.125   6.822 -2.8116 -1.8727  0.2390
   30MOL   H20918827   0.357   4.084   6.926 -0.2165 -0.9073  0.5762
   30MOL   H21018828   0.548   4.322   6.994  1.1772 -0.1764 -1.4426
   30MOL   H21118829   0.412   4.337   6.872 -0.0759 -0.8622 -0.4429
   30MOL   H21218830   0.369   4.421   7.110  1.0486 -0.1382 -1.9387
   30MOL   H21318831   0.352   4.246   7.139  1.3830 -0.8944 -0.4127
   30MOL   H21418832   0.195   4.445   6.954  1.4598  0.3675  0.8203
   30MOL   H21518833   0.136   4.374   7.099 -0.0710  1.5328 -0.3120
   30MOL   H21618834   0.024   4.187   7.099 -2.5990 -0.8947  0.1005
   30MOL   H21718835   7.659   4.027   6.859 -2.0484  1.9766  0.3438
   30MOL   H21818836   7.618   4.016   7.041  0.1535  2.6550  0.4798
   30MOL   H21918837   0.034   3.825   6.938 -1.1171  0.7681 -0.1239
   30MOL   H22018838   0.151   3.918   6.865  1.3368  0.0101 -0.3569
   30MOL   H22118839   0.152   3.881   7.169 -1.5665 -0.9111  0.7730
   30MOL   H22218840   0.259   3.984   7.078 -2.1735  1.2086 -1.7045
   30MOL   H22318841   0.386   3.772   7.096 -0.3973 -2.4077 -0.2397
   30MOL   H22418842   0.341   3.806   6.935 -0.4947  0.4473 -0.2087
   30MOL   H22518843   0.191   3.628   6.930  0.7771 -1.4192  0.1659
   30MOL   C22618844   0.224   3.567   7.122 -0.0736 -0.8919  0.3563
   30MOL   O22718845   0.259   3.599   7.237  0.2593  0.2360  0.1843
   30MOL   C22818846   0.150   3.437   7.095 -0.5550 -0.0450  0.9457
   30MOL   C22918847   0.234   3.311   7.122 -0.0658 -0.0706 -0.1399
   30MOL   C23018848   0.360   3.311   7.029  0.3727 -0.1085  0.2456
   30MOL   C23118849   0.327   3.299   6.876  0.0698  0.2153 -0.8619
   30MOL   C23218850   0.449   3.287   6.791 -0.4604  0.0124 -0.2455
   30MOL   O23318851   0.532   3.378   6.800  0.0100  0.2047  0.3101
   30MOL   N23418852   0.461   3.184   6.710 -0.2417 -0.0551  0.0320
   30MOL   C23518853   0.567   3.153   6.618 -0.3462 -0.4541  0.2002
   30MOL   C23618854   0.535   3.201   6.478 -0.0587  0.6922  0.5547
   30MOL   C23718855   0.646   3.149   6.381 -0.2043  0.7966 -0.6666
   30MOL   C23818856   0.635   3.195   6.237  0.3768 -0.0571 -0.2551
   30MOL   N23918857   0.541   3.112   6.165 -0.4489 -0.2863 -0.0930
   30MOL   H24018858   0.064   3.433   7.162 -0.7641 -0.2874  0.6628
   30MOL   H24118859   0.116   3.440   6.991  1.4301 -0.5585  0.2559
   30MOL   H24218860   0.251   3.291   7.228 -1.6925 -1.0323 -0.0423
   30MOL   H24318861   0.170   3.226   7.098 -0.8956  0.1448  1.2614
   30MOL   H24418862   0.419   3.222   7.048  0.5167 -0.2841 -1.0046
   30MOL   H24518863   0.418   3.398   7.060 -0.8367  1.7520 -2.4246
   30MOL   H24618864   0.267   3.385   6.846  1.5677  1.6179  0.0704
   30MOL   H24718865   0.273   3.205   6.861 -1.2085  0.6120  1.0912
   30MOL   H24818866   0.388   3.115   6.723 -0.5175  0.3630  0.7234
   30MOL   H24918867   0.562   3.045   6.634 -2.5158 -0.4882 -0.6268
   30MOL   H25018868   0.659   3.203   6.651 -2.3534  2.7123  1.2011
   30MOL   H25118869   0.446   3.146   6.448  0.0838  1.5508 -1.5871
   30MOL   H25218870   0.519   3.308   6.465 -0.6401  0.7497  1.7110
   30MOL   H25318871   0.653   3.040   6.379  0.1743  0.8116 -0.0290
   30MOL   H25418872   0.742   3.187   6.418  1.1198 -1.7123 -1.4126
   30MOL   H25518873   0.736   3.191   6.198 -0.0868  0.1579 -1.4935
   30MOL   H25618874   0.613   3.302   6.236  4.7884  0.9530  1.4514
   30MOL   H25718875   0.515   3.028   6.215 -0.5476  1.1042  2.2505
   30MOL   C25818876   0.487   3.142   6.045 -0.3826  0.0814 -0.4237
   30MOL   O25918877   0.516   3.243   5.989  0.1199  0.5737 -0.3117
   30MOL   C26018878   0.397   3.039   5.986 -0.4162  0.6923  0.6662
   30MOL   C26118879   0.349   3.065   5.839 -0.3237  0.5626 -0.1680
   30MOL   C26218880   0.268   3.193   5.828  0.2542  0.7096 -0.0882
   30MOL   C26318881   0.174   3.195   5.708  0.0691 -0.0267 -0.8457
   30MOL   C26418882   0.032   3.135   5.717  0.1158 -0.6153  0.3162
   30MOL   O26518883   7.671   3.147   5.815 -0.5225 -0.2498 -0.2971
   30MOL   N26618884   7.694   3.069   5.610  0.1932 -0.3002  0.1024
   30MOL   C26718885   7.558   3.026   5.585  0.9997 -0.7073  1.0490
   30MOL   C26818886   7.542   3.002   5.433  0.1611 -0.7235  0.3620
   30MOL   C26918887   7.397   2.983   5.391  0.5768 -0.2641 -0.7645
   30MOL   C27018888   7.382   2.954   5.237  0.8296 -0.2770  0.0401
   30MOL   N27118889   7.242   2.969   5.200  0.3103  0.4278  0.3256
   30MOL   H27218890   0.438   2.938   5.982  0.9116  1.2591 -0.4169
   30MOL   H27318891   0.312   3.028   6.053 -0.9795 -0.2447 -0.1946
   30MOL   H27418892   0.429   3.064   5.765  1.3457 -1.4002  1.5967
   30MOL   H27518893   0.286   2.985   5.800 -0.3424 -0.3703  1.7032
   30MOL   H27618894   0.339   3.275   5.827  0.4539  0.5388  0.0436
   30MOL   H27718895   0.211   3.209   5.920  1.9703 -0.5841  1.2429
   30MOL   H27818896   0.225   3.179   5.612 -1.5834  0.1268 -1.7618
   30MOL   H27918897   0.152   3.300   5.690  0.4423  0.0224 -1.0286
   30MOL   H28018898   0.054   3.051   5.532  0.9163  2.2042  0.0378
   30MOL   H28118899   7.493   3.106   5.619 -1.4136 -1.4695 -1.6163
   30MOL   H28218900   7.525   2.942   5.645 -1.7042  0.2859  1.0364
   30MOL   H28318901   7.569   3.087   5.371  1.3699 -0.3254  1.4226
   30MOL   H28418902   7.597   2.915   5.396 -1.1060 -1.2991 -0.2001
   30MOL   H28518903   7.332   3.065   5.423 -0.4502 -1.3856  0.0492
   30MOL   H28618904   7.367   2.894   5.447  1.9986 -0.8303 -0.8853
   30MOL   H28718905   7.421   2.857   5.205  0.7395 -0.3156  0.0469
   30MOL   H28818906   7.436   3.031   5.183  0.8661 -1.1915 -1.2598
   30MOL   H28918907   7.178   2.946   5.274  0.2676 -1.1488 -0.1743
   30MOL   C29018908   7.206   3.016   5.080 -0.1209 -0.8307 -0.2587
   30MOL   O29118909   7.292   3.026   4.992  0.0619  0.1207  0.5377
   30MOL   C29218910   7.062   3.055   5.048  0.2989  0.0241  0.0463
   30MOL   C29318911   7.051   3.196   4.986 -0.1496  0.2554  0.7710
   30MOL   C29418912   6.905   3.232   4.963 -0.0112 -0.6799  0.2087
   30MOL   C29518913   6.868   3.371   4.894 -0.5668 -0.0330  0.3063
   30MOL   C29618914   6.966   3.414   4.781  0.3027 -0.4859  0.0174
   30MOL   O29718915   6.971   3.346   4.682  0.0742  0.2431  0.1862
   30MOL   N29818916   7.043   3.520   4.800  0.2277 -0.0242  0.0407
   30MOL   C29918917   7.123   3.592   4.704  0.5860 -0.1495  0.1169
   30MOL   C30018918   7.157   3.731   4.757  0.6796  0.7275 -0.1916
   30MOL   C30118919   7.241   3.735   4.888 -0.1656 -0.1432  0.0293
   30MOL   C30218920   7.324   3.863   4.914 -0.0508  0.6021  0.3621
   30MOL   N30318921   7.372   3.882   5.052 -0.7612  0.2524  0.0284
   30MOL   H30418922   7.020   2.989   4.972 -1.0499  0.0904  0.7225
   30MOL   H30518923   7.003   3.037   5.138  1.4811  0.1373  0.8559
   30MOL   H30618924   7.094   3.282   5.038  1.5319  0.4722 -0.8858
   30MOL   H30718925   7.108   3.194   4.893  0.6188 -0.5155  1.2487
   30MOL   H30818926   6.851   3.248   5.056 -0.0798  0.3603 -0.0027
   30MOL   H30918927   6.854   3.155   4.904  0.2669  0.6319 -1.8216
   30MOL   H31018928   6.872   3.453   4.966 -1.4655 -1.8746  2.5200
   30MOL   H31118929   6.767   3.384   4.855 -0.6794  1.7618  1.1369
   30MOL   H31218930   7.026   3.560   4.891  1.5712  1.8710 -0.5180
   30MOL   H31318931   7.071   3.611   4.610 -1.3624  3.2213  1.8154
   30MOL   H31418932   7.216   3.540   4.678  0.9509  1.1990 -1.3560
   30MOL   H31518933   7.207   3.790   4.680  0.0207  0.6979 -0.6484
   30MOL   H31618934   7.061   3.780   4.774 -0.8058 -1.8615 -0.8904
   30MOL   H31718935   7.313   3.653   4.892 -0.7302 -0.6510 -0.0663
   30MOL   H31818936   7.177   3.716   4.974 -0.1613  0.5315  0.1882
   30MOL   H31918937   7.255   3.946   4.899 -1.5702 -0.7318 -0.1641
   30MOL   H32018938   7.401   3.875   4.837  0.3383  1.1376  0.8341
   30MOL   H32118939   7.320   3.940   5.115  0.3240  1.8937 -0.5310
   30MOL   C32218940   7.475   3.821   5.108  0.7359 -0.1870  0.0936
   30MOL   O32318941   7.541   3.740   5.049 -0.9896 -0.2998  0.2175
   30MOL   C32418942   7.507   3.864   5.254  0.4991 -0.6321  0.3037
   30MOL   C32518943   7.646   3.924   5.257 -0.1293  0.1352 -0.7776
   30MOL   C32618944   7.663   4.050   5.348 -0.7262 -0.5432  0.9268
   30MOL   C32718945   0.110   4.103   5.368 -0.5477 -0.3743 -0.1263
   30MOL   C32818946   0.169   4.175   5.250 -0.0927  0.0699  0.3144
   30MOL   O32918947   0.101   4.247   5.173 -0.1536  0.4301 -0.5142
   30MOL   N33018948   0.295   4.139   5.218 -0.4756  0.0755 -0.4356
   30MOL   C33118949   0.355   4.160   5.082  0.7738 -0.3681  0.0690
   30MOL   C33218950   0.407   4.027   5.028  0.2281  0.6464  0.9006
   30MOL   C33318951   0.459   4.037   4.880 -0.2782 -0.3455  0.0230
   30MOL   C33418952   0.502   3.900   4.818  0.5353  0.3866  0.5203
   30MOL   N33518953   0.594   3.930   4.715  0.1187 -0.5206 -0.7789
   30MOL   H33618954   7.423   3.930   5.276  1.8213  0.4566  2.1919
   30MOL   H33718955   7.496   3.777   5.318 -0.9116 -2.1926 -1.9779
   30MOL   H33818956   0.020   3.851   5.289 -0.1919  0.4107  0.0116
   30MOL   H33918957   7.678   3.958   5.159 -0.5890  0.8201 -0.6957
   30MOL   H34018958   7.632   4.018   5.447 -0.4526 -1.1997  0.7972
   30MOL   H34118959   7.602   4.133   5.313  1.7355  0.8891 -0.1389
   30MOL   H34218960   0.169   4.016   5.395  0.0827  1.0380  3.2568
   30MOL   H34318961   0.119   4.184   5.439 -0.3196  0.2574 -0.8634
   30MOL   H34418962   0.338   4.069   5.276 -1.6007 -1.4477 -1.3894
   30MOL   H34518963   0.443   4.223   5.099  1.1071 -0.6119 -0.7317
   30MOL   H34618964   0.291   4.214   5.012  1.2520 -0.4976 -0.4771
   30MOL   H34718965   0.487   3.992   5.094  0.6504 -0.4908 -0.2012
   30MOL   H34818966   0.329   3.951   5.027 -1.1978  1.9809 -4.1593
   30MOL   H34918967   0.528   4.121   4.871  1.9802 -1.9564  1.6372
   30MOL   H35018968   0.369   4.072   4.829 -2.2678 -2.8475  1.6675
   30MOL   H35118969   0.407   3.862   4.781  1.5939 -0.1252 -1.7984
   30MOL   H35218970   0.541   3.824   4.885 -0.8925  1.7701  2.9902
   30MOL   H35318971   0.655   4.010   4.713  1.9102 -1.8480 -1.2642
   30MOL   C35418972   0.624   3.855   4.610  0.5773  0.5627 -0.5740
   30MOL   O35518973   0.571   3.743   4.591  0.5387 -0.3506 -0.2527
   30MOL   C35618974   0.715   3.919   4.511  0.5528  0.7035 -0.4480
   30MOL   C35718975   0.695   3.855   4.372  0.3164 -0.3763 -0.0899
   30MOL   C35818976   0.791   3.909   4.274  0.3672 -0.5946 -0.4127
   30MOL   C35918977   0.942   3.878   4.288 -0.1403  0.3572 -0.3445
   30MOL   C36018978   1.020   3.913   4.163 -0.4909 -0.5361  0.5755
   30MOL   O36118979   0.959   3.956   4.061 -0.6240 -0.5038  0.1713
   30MOL   N36218980   1.152   3.889   4.163  0.1118  0.1662  0.3416
   30MOL   C36318981   1.244   3.886   4.051 -0.4405  0.5620 -0.5774
   30MOL   C36418982   1.286   4.020   4.004  0.1262 -0.0782 -0.3124
   30MOL   C36518983   1.416   4.016   3.914 -0.2475 -0.6102 -0.0875
   30MOL   C36618984   1.439   4.141   3.829  0.1422  0.4029 -0.2575
   30MOL   N36718985   1.332   4.165   3.733 -0.0899  0.2635 -0.5984
   30MOL   H36818986   0.702   4.027   4.507  1.5734  0.8754  0.4225
   30MOL   H36918987   0.818   3.911   4.547  0.2380  0.3052  0.3759
   30MOL   H37018988   0.712   3.748   4.379  1.4103 -0.1261  1.2825
   30MOL   H37118989   0.594   3.869   4.334  1.2688 -0.4983 -2.8098
   30MOL   H37218990   0.781   4.017   4.262 -0.7375 -0.5711  0.6127
   30MOL   H37318991   0.757   3.866   4.179 -0.3349  0.0321 -0.4496
   30MOL   H37418992   0.951   3.773   4.316  0.3174  0.3384 -0.5589
   30MOL   H37518993   0.977   3.940   4.371 -0.7884  0.6325 -0.2711
   30MOL   H37618994   1.184   3.845   4.248  1.6665  0.4774 -0.0666
   30MOL   H37718995   1.215   3.816   3.972  2.2460 -0.4788 -0.7136
   30MOL   H37818996   1.334   3.839   4.092 -1.0384 -0.5457 -0.5080
   30MOL   H37918997   1.203   4.066   3.951 -1.1345  1.0718  2.5163
   30MOL   H38018998   1.303   4.093   4.083 -0.8186 -1.2166  0.9848
   30MOL   H38118999   1.410   3.938   3.838  2.3257 -0.2397 -0.7214
   30MOL   H38219000   1.507   3.997   3.970 -0.4073 -1.7650 -0.2035
   30MOL   H38319001   1.537   4.138   3.781  0.5741 -1.2439  0.6992
   30MOL   H38419002   1.443   4.229   3.894  3.1113 -0.0239  0.1966
   30MOL   H38519003   1.321   4.092   3.663 -1.9781  2.3411 -2.5294
   30MOL   C38619004   1.266   4.278   3.701  0.2038  0.2679  0.1204
   30MOL   O38719005   1.265   4.374   3.777 -0.1600 -0.2385  0.4296
   30MOL   C38819006   1.182   4.275   3.574  0.2188  1.0384  0.2792
   30MOL   C38919007   1.027   4.248   3.603  0.2951  0.9749  1.1139
   30MOL   C39019008   1.005   4.095   3.615  0.2137  0.2698 -0.3834
   30MOL   C39119009   0.862   4.063   3.666  0.2030 -0.6161 -0.5887
   30MOL   C39219010   0.843   3.913   3.684  0.3324 -0.3549  0.4121
   30MOL   O39319011   0.804   3.853   3.584 -0.4960  0.6689  0.1058
   30MOL   N39419012   0.864   3.852   3.803  0.5030  0.1994 -0.3797
   30MOL   C39519013   0.884   3.702   3.810  0.2374  0.3257  0.1973
   30MOL   C39619014   1.040   3.677   3.789  0.4205 -0.0475 -0.0063
   30MOL   C39719015   1.073   3.533   3.756 -0.4031  0.2196  0.6613
   30MOL   C39819016   1.001   3.470   3.638  0.6016 -0.2997  0.4106
   30MOL   N39919017   1.070   3.343   3.592 -0.5694  0.1529 -0.3757
   30MOL   H40019018   1.205   4.373   3.531  1.0666 -0.0082 -1.6935
   30MOL   H40119019   1.213   4.213   3.490 -0.2945  2.0688 -0.6924
   30MOL   H40219020   0.999   4.298   3.696 -0.9874 -1.1247  1.8723
   30MOL   H40319021   0.954   4.278   3.527 -0.3635 -0.4607  1.1600
   30MOL   H40419022   1.079   4.047   3.679  0.7984  0.1295 -1.1487
   30MOL   H40519023   1.011   4.050   3.516  2.6468  1.3105 -0.7600
   30MOL   H40619024   0.780   4.102   3.606 -0.1888 -2.3012 -1.1561
   30MOL   H40719025   0.839   4.109   3.763  0.4055  2.3546 -1.8964
   30MOL   H40819026   0.891   3.908   3.882 -2.4863 -0.4941  1.2135
   30MOL   H40919027   0.826   3.660   3.728  1.9631 -0.0245 -0.8762
   30MOL   H41019028   0.835   3.665   3.899 -0.4005 -2.1521 -1.1263
   30MOL   H41119029   1.078   3.744   3.712  0.2356 -0.0951 -0.1401
   30MOL   H41219030   1.088   3.706   3.882  0.0603 -2.2427  0.9020
   30MOL   H41319031   1.071   3.470   3.845  0.1085  0.7325  1.0417
   30MOL   H41419032   1.180   3.527   3.738 -0.4725  1.1552 -0.0547
   30MOL   H41519033   0.994   3.541   3.556 -1.4790 -0.6509  0.2541
   30MOL   H41619034   0.898   3.448   3.664  0.1599  1.2177 -0.0244
   30MOL   H41719035   1.021   3.255   3.593 -1.8561  0.8519 -0.8567
   30MOL   C41819036   1.190   3.343   3.530 -0.2632  0.0308 -0.1570
   30MOL   O41919037   1.254   3.445   3.509  0.3911 -0.0900  0.0881
   30MOL   C42019038   1.244   3.212   3.474 -0.3978 -0.0541 -0.0500
   30MOL   C42119039   1.393   3.207   3.463 -0.1746  0.1291  0.2905
   30MOL   C42219040   1.456   3.195   3.602 -0.0781  0.2764  0.1066
   30MOL   C42319041   1.605   3.172   3.605 -0.7567  0.0198 -0.6880
   30MOL   C42419042   1.664   3.195   3.750  0.6474 -0.5621  0.1128
   30MOL   O42519043   1.612   3.144   3.848 -0.1199 -0.4929  0.5412
   30MOL   N42619044   1.767   3.278   3.750 -0.3218  0.3447 -0.2074
   30MOL   C42719045   1.861   3.297   3.861  0.0886 -0.5436 -0.6062
   30MOL   C42819046   1.893   3.448   3.893  0.4853  0.1302  0.1610
   30MOL   C42919047   1.790   3.510   3.988 -0.1298 -0.2159  0.0353
   30MOL   C43019048   1.825   3.653   4.035 -0.6049  1.0960 -0.8634
   30MOL   N43119049   1.731   3.708   4.130  0.4614  0.3246  0.9635
   30MOL   H43219050   1.207   3.130   3.535 -0.9870 -0.0218 -0.3541
   30MOL   H43319051   1.199   3.201   3.375  0.2489 -0.2237 -0.3257
   30MOL   H43419052   1.408   3.115   3.406  0.1465 -0.7190  1.7033
   30MOL   H43519053   1.424   3.293   3.404  1.0432 -0.6178 -0.1612
   30MOL   H43619054   1.405   3.118   3.659 -0.3958  1.5427  1.5734
   30MOL   H43719055   1.437   3.283   3.664  2.2215  1.6978 -1.1123
   30MOL   H43819056   1.666   3.232   3.537  0.0342 -0.1858 -0.1701
   30MOL   H43919057   1.626   3.066   3.589 -1.3634 -0.3160  0.6343
   30MOL   H44019058   1.809   3.309   3.663  0.2123  1.0804  0.3057
   30MOL   H44119059   1.954   3.253   3.826  0.1182 -0.9096 -0.0697
   30MOL   H44219060   1.826   3.252   3.954  0.7628  1.8193  0.8368
   30MOL   H44319061   1.993   3.451   3.936  1.0738 -1.5151 -1.0266
   30MOL   H44419062   1.905   3.497   3.796  1.8007  0.9799  0.7385
   30MOL   H44519063   1.777   3.438   4.069 -1.0655 -0.2651 -0.1578
   30MOL   H44619064   1.694   3.515   3.937  0.8841 -0.1696 -1.9058
   30MOL   H44719065   1.855   3.717   3.952  0.2908 -0.0388 -1.4370
   30MOL   H44819066   1.919   3.647   4.089 -2.3264  0.5254  2.1464
   30MOL   H44919067   1.666   3.651   4.182 -1.2362 -0.6108 -2.0697
   30MOL   C45019068   1.719   3.840   4.143 -0.4069  0.4958 -0.5722
   30MOL   O45119069   1.780   3.924   4.081  0.5288 -0.1149  1.0733
   30MOL   C45219070   1.635   3.885   4.265 -0.1016  0.6047  0.7149
   30MOL   C45319071   1.663   4.023   4.311 -0.6565 -0.5207  0.0895
   30MOL   C45419072   1.810   4.048   4.360  0.6982  0.2612  0.6854
   30MOL   C45519073   1.837   4.192   4.410  0.4506 -0.3939  0.0718
   30MOL   C45619074   1.794   4.211   4.556  0.3933 -0.1397  0.4977
   30MOL   O45719075   1.844   4.147   4.646 -0.0276  0.2418  0.5339
   30MOL   N45819076   1.693   4.297   4.569  0.4264 -0.0743 -0.1482
   30MOL   C45919077   1.609   4.301   4.686  0.2486 -0.3390  0.0073
   30MOL   C46019078   1.642   4.420   4.783  0.3403  0.1255  0.2700
   30MOL   C46119079   1.772   4.410   4.857  0.0244  0.2148 -0.0319
   30MOL   C46219080   1.807   4.536   4.938 -0.8905  0.9935  0.6212
   30MOL   N46319081   1.920   4.510   5.021 -0.3290 -0.0693 -0.6045
   30MOL   H46419082   1.532   3.856   4.248  0.9366 -1.9400 -1.6863
   30MOL   H46519083   1.663   3.828   4.354 -0.9355 -2.4027 -0.8875
   30MOL   H46619084   1.651   4.095   4.231 -2.1073 -0.5024  0.3253
   30MOL   H46719085   1.605   4.047   4.400 -1.1330  1.4077 -0.7392
   30MOL   H46819086   1.880   4.043   4.277  1.5094 -1.3499  1.4411
   30MOL   H46919087   1.824   3.980   4.444  1.0573  1.6145  1.7596
   30MOL   H47019088   1.789   4.270   4.351  1.2952  1.4788  1.7803
   30MOL   H47119089   1.943   4.218   4.407  0.0851  1.1401 -0.1251
   30MOL   H47219090   1.665   4.350   4.488  1.3379  0.1931 -0.2919
   30MOL   H47319091   1.626   4.204   4.734  0.3944  0.4926  1.6909
   30MOL   H47419092   1.505   4.315   4.659 -0.0868 -0.7673  1.0277
   30MOL   H47519093   1.632   4.515   4.731  2.5279 -0.2175 -0.8565
   30MOL   H47619094   1.568   4.408   4.862 -1.1437 -1.1304 -1.2465
   30MOL   H47719095   1.849   4.382   4.784  1.5500  0.7319  1.3618
   30MOL   H47819096   1.772   4.321   4.921 -0.4693  0.8387  0.8338
   30MOL   H47919097   1.726   4.588   4.988 -1.6122  1.3094 -0.8449
   30MOL   H48019098   1.848   4.601   4.860 -0.0726  1.4259  1.3997
   30MOL   H48119099   1.978   4.432   4.991 -2.3042 -1.3359 -1.2464
   30MOL   C48219100   1.951   4.577   5.132 -0.5627  0.3107  1.2290
   30MOL   O48319101   1.877   4.668   5.172  0.1013 -0.0083  0.5657
   30MOL   C48419102   2.081   4.537   5.202  1.2510 -0.1828 -0.0220
   30MOL   C48519103   2.054   4.465   5.338  0.0543 -0.2379 -0.3133
   30MOL   C48619104   2.029   4.563   5.443  0.1709 -0.1148  0.5346
   30MOL   C48719105   2.041   4.510   5.586 -0.2273 -0.5533 -0.1701
   30MOL   C48819106   1.945   4.399   5.617 -0.1350 -0.5599 -0.1102
   30MOL   O48919107   1.827   4.407   5.579  0.2710 -0.5039 -0.1782
   30MOL   N49019108   1.984   4.308   5.698 -0.3774 -0.3696 -1.2109
   30MOL   C49119109   1.902   4.201   5.752  0.4263  0.1974  0.0156
   30MOL   C49219110   1.986   4.112   5.848  0.1280 -0.2477 -0.0105
   30MOL   C49319111   2.080   4.018   5.776 -0.2239 -0.1554 -0.5215
   30MOL   C49419112   1.997   3.904   5.710  0.0299 -0.0163 -0.2691
   30MOL   N49519113   2.087   3.810   5.637  0.1597 -0.7776 -0.6279
   30MOL   H49619114   2.142   4.479   5.132 -0.6408 -2.7352  0.3781
   30MOL   H49719115   2.136   4.629   5.223 -1.3713  1.6745 -0.9730
   30MOL   H49819116   1.959   4.413   5.325 -0.0846 -0.5716  1.8470
   30MOL   H49919117   2.135   4.400   5.371  2.0255  1.9228 -0.7826
   30MOL   H50019118   1.934   4.617   5.440 -1.0337 -2.1441  0.7836
   30MOL   H50119119   2.092   4.651   5.433  0.4811 -0.3183  0.6980
   30MOL   H50219120   2.019   4.595   5.651  0.2490  1.0253 -2.0006
   30MOL   H50319121   2.143   4.478   5.607 -0.5759 -2.5488 -1.4325
   30MOL   H50419122   2.079   4.306   5.731 -0.6295 -1.5918 -0.4957
   30MOL   H50519123   1.853   4.137   5.678  1.9165 -0.2088 -0.6580
   30MOL   H50619124   1.822   4.254   5.802 -0.9711 -1.3498 -0.5596
   30MOL   H50719125   2.026   4.186   5.916  0.1643 -0.0058 -0.2955
   30MOL   H50819126   1.913   4.053   5.904 -0.8596 -0.9416 -1.9785
   30MOL   H50919127   2.143   3.983   5.857 -0.1871  3.3087  1.0580
   30MOL   H51019128   2.135   4.067   5.695  1.8920  0.9154  1.5125
   30MOL   H51119129   1.935   3.945   5.631  0.5531  1.7465  0.2015
   30MOL   H51219130   1.931   3.852   5.780 -0.5450  1.7053  0.4888
   30MOL   H51319131   2.185   3.836   5.635 -0.4171  1.4106 -2.0161
   30MOL   C51419132   2.042   3.693   5.594  0.3223  0.7122 -0.2962
   30MOL   O51519133   1.927   3.649   5.617 -0.6947  0.0951  0.0245
   30MOL   C51619134   2.138   3.600   5.516 -0.4230 -0.3165  0.9223
   30MOL   C51719135   2.072   3.545   5.384  0.1748  0.1092 -0.1939
   30MOL   C51819136   2.069   3.650   5.269 -0.6636  0.3890 -0.3719
   30MOL   C51919137   2.038   3.589   5.132  0.2584 -0.4405  0.1548
   30MOL   C52019138   2.051   3.691   5.016  0.4455  0.4094 -0.0499
   30MOL   O52119139   2.161   3.733   5.002 -0.2587 -0.2490  0.5774
   30MOL   N52219140   1.947   3.716   4.939  0.1378 -0.4731 -0.2456
   30MOL   C52319141   1.961   3.792   4.813  0.1648 -0.1953 -0.5736
   30MOL   C52419142   1.815   3.816   4.760  0.0622 -0.1698 -0.7151
   30MOL   C52519143   1.747   3.916   4.852  0.4902  0.3737 -0.2240
   30MOL   C52619144   1.594   3.918   4.827 -0.3461 -0.2056  0.2713
   30MOL   N52719145   1.534   3.998   4.934 -0.1569 -0.3431  0.5167
   30MOL   H52819146   2.233   3.651   5.501 -1.2543  1.0204  0.1018
   30MOL   H52919147   2.153   3.513   5.581 -0.9874 -0.9656  0.2095
   30MOL   H53019148   2.140   3.464   5.358  1.4432  1.1120 -0.0555
   30MOL   H53119149   1.971   3.509   5.404  0.2385 -0.2416 -0.5121
   30MOL   H53219150   2.172   3.683   5.254 -0.8927  0.0306 -3.0789
   30MOL   H53319151   2.010   3.736   5.299  1.5195  1.8995 -0.3098
   30MOL   H53419152   1.933   3.558   5.125  0.0421  0.4912 -0.9904
   30MOL   H53519153   2.093   3.496   5.124 -0.9638 -1.1487 -0.2155
   30MOL   H53619154   1.861   3.666   4.955  0.3899 -0.3196  1.6673
   30MOL   H53719155   2.011   3.733   4.737  0.3865 -1.2391  0.3629
   30MOL   H53819156   2.024   3.880   4.829  1.6932 -1.0970 -1.5473
   30MOL   H53919157   1.819   3.854   4.658 -0.1720  2.4174  0.2009
   30MOL   H54019158   1.764   3.720   4.754  0.7038 -0.5772  0.3940
   30MOL   H54119159   1.794   4.014   4.855 -1.9958  1.6169 -0.5540
   30MOL   H54219160   1.764   3.873   4.951  0.7026  0.0100 -0.4176
   30MOL   H54319161   1.547   3.821   4.824  1.4129 -1.0638 -0.4675
   30MOL   H54419162   1.574   3.955   4.726  1.7380 -0.9336 -0.4430
   30MOL   H54519163   1.597   4.058   4.986 -3.3882  2.9542  0.8705
   30MOL   C54619164   1.409   4.041   4.937 -0.7030  0.5909 -0.3772
   30MOL   O54719165   1.320   3.982   4.877 -0.5613  0.1302 -0.5299
   30MOL   C54819166   1.382   4.177   5.014  0.2008  0.5683 -0.5203
   30MOL   C54919167   1.254   4.249   4.972  0.3441 -0.3918  0.5272
   30MOL   C55019168   1.125   4.200   5.035 -0.0955  0.5337  0.0518
   30MOL   C55119169   0.991   4.271   4.975 -0.0980  1.0859  0.2124
   30MOL   C55219170   0.954   4.211   4.842  0.4116 -0.6178  0.3425
   30MOL   O55319171   0.898   4.104   4.836  0.7544  0.6249 -0.1752
   30MOL   N55419172   0.984   4.274   4.735 -0.2662 -0.0515  0.8110
   30MOL   C55519173   0.957   4.237   4.598  0.4062 -0.1446 -0.8296
   30MOL   C55619174   0.954   4.353   4.506  0.1155 -0.5853  0.4927
   30MOL   C55719175   0.848   4.470   4.537 -0.2762  0.6649 -0.3435
   30MOL   C55819176   0.873   4.600   4.461  0.0181 -0.6396  0.0900
   30MOL   N55919177   0.759   4.690   4.473 -0.6197 -0.4926 -0.1568
   30MOL   H56019178   1.376   4.151   5.119  1.8612 -0.9453 -0.7860
   30MOL   H56119179   1.469   4.242   5.009  0.1614  0.7671  1.2990
   30MOL   H56219180   1.274   4.355   4.991  1.9999 -0.3485 -1.2446
   30MOL   H56319181   1.256   4.244   4.863  3.4053  2.1562  0.3801
   30MOL   H56419182   1.138   4.217   5.142 -0.0697  1.5841 -0.1200
   30MOL   H56519183   1.122   4.092   5.020 -2.6984  0.7242 -0.9450
   30MOL   H56619184   0.993   4.378   4.991  0.0732  1.2440 -0.8117
   30MOL   H56719185   0.901   4.244   5.032  0.1752  0.8753  0.5453
   30MOL   H56819186   1.019   4.369   4.742 -3.8536  2.0454 -5.1306
   30MOL   H56919187   0.860   4.188   4.589  0.1565  0.3052 -0.6054
   30MOL   H57019188   1.035   4.169   4.565  2.3715  1.2597  0.7339
   30MOL   H57119189   1.054   4.396   4.495 -0.8460  1.4487 -0.4101
   30MOL   H57219190   0.941   4.322   4.402 -1.6914  0.3068  0.4477
   30MOL   H57319191   0.853   4.497   4.642 -1.0462  2.0964 -0.6586
   30MOL   H57419192   0.747   4.435   4.517  0.1074  0.1961 -1.5555
   30MOL   H57519193   0.894   4.570   4.358  2.8318  1.1762  0.0976
   30MOL   H57619194   0.968   4.636   4.499  0.2598  0.3014 -1.3483
   30MOL   H57719195   0.763   4.755   4.550 -1.6773 -0.3894 -0.1856
   30MOL   C57819196   0.660   4.707   4.388 -0.5007  0.3289 -0.4210
   30MOL   O57919197   0.646   4.632   4.286 -0.2729 -0.2294 -0.3270
   30MOL   C58019198   0.552   4.804   4.419  0.2387 -0.2190  0.8234
   30MOL   C58119199   0.554   4.921   4.314  0.0189  0.3674  0.3360
   30MOL   C58219200   0.443   5.020   4.333  0.0608 -0.7083  0.1050
   30MOL   C58319201   0.455   5.135   4.222  0.3721  0.5940 -0.0636
   30MOL   C58419202   0.428   5.073   4.087 -0.5012 -0.4497  0.2631
   30MOL   O58519203   0.325   5.010   4.070 -0.6360 -0.4461  0.4948
   30MOL   N58619204   0.519   5.090   3.990  0.1354  0.3999  0.0008
   30MOL   C58719205   0.518   5.029   3.855  0.2248 -0.9072 -0.4446
   30MOL   C58819206   0.571   4.885   3.852 -0.0714  0.1592 -0.4009
   30MOL   C58919207   0.607   4.838   3.710 -0.0221  0.3621  0.5478
   30MOL   C59019208   0.632   4.692   3.703 -0.3014  0.8288 -0.1192
   30MOL   N59119209   0.649   4.635   3.571 -0.0447  0.9541  0.2796
   30MOL   H59219210   0.461   4.748   4.398 -0.6771  1.4981  0.0909
   30MOL   H59319211   0.556   4.836   4.523 -0.4197  0.4345  0.6565
   30MOL   H59419212   0.644   4.981   4.324  2.4455 -2.8223 -1.5058
   30MOL   H59519213   0.558   4.871   4.217  0.7632  1.5382 -0.2423
   30MOL   H59619214   0.450   5.063   4.433 -0.2112 -2.5768  0.9537
   30MOL   H59719215   0.347   4.969   4.322 -1.5774  2.0634  1.0513
   30MOL   H59819216   0.555   5.177   4.204  0.4924  0.2880 -0.1139
   30MOL   H59919217   0.388   5.219   4.238 -0.5835 -0.0264 -0.7234
   30MOL   H60019218   0.605   5.131   4.024  0.5041  0.7973 -1.4042
   30MOL   H60119219   0.583   5.095   3.798 -0.1789  0.3479  0.5028
   30MOL   H60219220   0.418   5.027   3.813  0.3935  3.0298 -1.2092
   30MOL   H60319221   0.661   4.861   3.909 -0.3551 -1.6330 -0.6784
   30MOL   H60419222   0.504   4.816   3.902  1.6302 -0.7226  0.7165
   30MOL   H60519223   0.690   4.903   3.683 -0.5832  0.5299 -0.8232
   30MOL   H60619224   0.533   4.859   3.632  1.3673  1.3856 -0.5309
   30MOL   H60719225   0.551   4.635   3.749 -0.7245 -0.1309 -2.0064
   30MOL   H60819226   0.719   4.671   3.764 -0.6658 -0.5975 -0.0576
   30MOL   H60919227   0.567   4.629   3.513  0.6705  1.4876 -0.8128
   30MOL   C61019228   0.762   4.589   3.515 -0.2648  0.3670  0.8628
   30MOL   O61119229   0.869   4.598   3.570 -0.1129 -0.3961 -0.2818
   30MOL   C61219230   0.747   4.507   3.386 -0.3843 -0.0679  0.1011
   30MOL   C61319231   0.823   4.591   3.273  0.3790  0.2063  0.3038
   30MOL   C61419232   0.839   4.515   3.141 -0.3223  0.2791 -0.1020
   30MOL   C61519233   0.914   4.600   3.035 -0.5023 -0.5105  0.4840
   30MOL   C61619234   0.942   4.512   2.914 -0.8037  0.3105  0.0642
   30MOL   O61719235   0.871   4.414   2.891 -0.3389  0.3313  0.1648
   30MOL   N61819236   1.047   4.538   2.839 -0.1685 -0.3575  0.1075
   30MOL   C61919237   1.081   4.466   2.716  0.1723  0.3775  0.1787
   30MOL   C62019238   1.195   4.536   2.635 -0.0834  0.1342  0.2535
   30MOL   C62119239   1.314   4.595   2.719 -0.3113  0.3134  0.0575
   30MOL   C62219240   1.301   4.738   2.756 -0.2295  0.0652  0.4232
   30MOL   N62319241   1.210   4.749   2.873 -0.1843  1.1474 -0.4707
   30MOL   H62419242   0.800   4.414   3.406  1.4142  0.8713 -0.1074
   30MOL   H62519243   0.643   4.490   3.359 -1.0977  1.2595  1.9471
   30MOL   H62619244   0.766   4.681   3.249 -0.1525  0.6567  3.0967
   30MOL   H62719245   0.919   4.628   3.309  0.2503  1.4016 -0.5608
   30MOL   H62819246   0.743   4.501   3.090  0.1723  0.7487 -1.1728
   30MOL   H62919247   0.882   4.416   3.159  0.9199  0.8412  0.0317
   30MOL   H63019248   1.012   4.609   3.080 -0.4482 -2.4661  0.8240
   30MOL   H63119249   0.865   4.695   3.014  1.4026  0.7624  1.6926
   30MOL   H63219250   1.103   4.619   2.859 -0.0376  0.3165 -2.8374
   30MOL   H63319251   0.995   4.454   2.650  0.8279  1.6732 -0.9176
   30MOL   H63419252   1.119   4.366   2.734 -0.0253  0.4342  0.9328
   30MOL   H63519253   1.235   4.453   2.577  1.3537 -0.5090  2.1343
   30MOL   H63619254   1.159   4.612   2.566 -1.0164 -1.4648 -1.0686
   30MOL   H63719255   1.394   4.577   2.647 -0.9054  0.6157 -0.6842
   30MOL   H63819256   1.350   4.539   2.806  0.9139 -0.5051 -0.9518
   30MOL   H63919257   1.261   4.793   2.671  1.2478  2.5473  1.2696
   30MOL   H64019258   1.390   4.792   2.789  2.8133 -2.3351 -3.4766
   30MOL   H64119259   1.251   4.732   2.964  1.1953  2.7246 -0.7594
   30MOL   H64219260   1.167   4.841   2.880 -0.1483  0.9866  2.4705
   31MOL     C119261   2.524   0.398   2.800  0.7233  0.3919 -0.9953
   31MOL     O219262   2.431   0.328   2.845  0.6470 -0.3010  0.1740
   31MOL     C319263   2.652   0.338   2.745 -0.6530 -0.1102 -0.0800
   31MOL     C419264   2.641   0.195   2.691 -0.0825 -0.3743 -0.4346
   31MOL     C519265   2.682   0.089   2.794  0.2576 -0.2319 -0.5170
   31MOL     C619266   2.830   0.062   2.788  0.3435 -0.8284  0.0643
   31MOL     C719267   2.880   7.651   2.883 -0.9565 -0.4338 -0.1027
   31MOL     O819268   2.832   7.624   2.994 -0.3986  0.0934  0.2431
   31MOL     N919269   2.983   7.574   2.842 -0.6613 -0.3104  0.2682
   31MOL    C1019270   3.029   7.447   2.904 -0.1315  0.3577  0.2931
   31MOL    C1119271   3.170   7.472   2.969 -0.1812 -0.2632  0.0800
   31MOL    C1219272   3.244   7.356   3.044  0.2739 -0.0948  0.0132
   31MOL    C1319273   3.393   7.361   3.045 -0.4493 -0.1311 -0.5508
   31MOL    N1419274   3.437   7.494   3.088 -0.1286 -0.1619 -0.6858
   31MOL    H1519275   2.676   0.402   2.660  0.6191  1.5501  1.4993
   31MOL    H1619276   2.727   0.362   2.822 -0.4298 -1.4227  0.1204
   31MOL    H1719277   2.538   0.181   2.657  0.0557 -0.1177 -0.9696
   31MOL    H1819278   2.714   0.186   2.610  1.3688 -1.0070  0.9236
   31MOL    H1919279   2.622   7.701   2.776 -0.2153  0.0390 -0.3198
   31MOL    H2019280   2.646   0.124   2.891  1.0916 -1.7871  0.3588
   31MOL    H2119281   2.901   0.143   2.807  1.8180 -2.2319  0.6291
   31MOL    H2219282   2.850   0.040   2.684  0.8710  1.0928 -0.2684
   31MOL    H2319283   3.008   7.584   2.745 -1.4278  0.9013  0.1836
   31MOL    H2419284   3.030   7.366   2.831  0.2311  0.5242  0.1094
   31MOL    H2519285   2.962   7.417   2.985  0.2889 -0.6173  0.2900
   31MOL    H2619286   3.233   7.497   2.883 -2.3991 -0.5153 -1.6661
   31MOL    H2719287   3.168   7.557   3.037  1.7370 -0.4109  0.3566
   31MOL    H2819288   3.223   7.267   2.985  0.6794  0.5801 -1.1537
   31MOL    H2919289   3.200   7.325   3.140 -2.0905  1.2556 -0.5906
   31MOL    H3019290   3.430   7.343   2.944  0.8724  3.9081 -0.8325
   31MOL    H3119291   3.433   7.284   3.111 -2.5595  1.5587  2.8388
   31MOL    H3219292   3.430   7.567   3.018 -0.3283  3.3920  2.8534
   31MOL    H3319293   2.531   0.506   2.803  0.2356  0.3981  1.2171
   31MOL    C3419294   3.492   7.517   3.205 -0.4927 -0.1276 -0.6408
   31MOL    O3519295   3.495   7.442   3.301 -0.1517 -0.1903 -0.4526
   31MOL    C3619296   3.553   7.657   3.225  0.7784 -0.3069  0.5862
   31MOL    C3719297   3.707   7.663   3.241 -0.5352 -0.3278  0.7624
   31MOL    C3819298   3.744   0.113   3.249  0.1071 -0.3001  0.0635
   31MOL    C3919299   3.687   0.190   3.374  0.3325  0.3618 -0.4643
   31MOL    C4019300   3.722   0.116   3.506 -0.5546  0.2332  0.6776
   31MOL    O4119301   3.835   0.069   3.519 -0.3941  0.1015 -0.3456
   31MOL    N4219302   3.630   0.102   3.602 -0.1969  0.3757  0.3454
   31MOL    C4319303   3.649   0.039   3.722  0.1212 -0.4873 -0.1976
   31MOL    C4419304   3.568   7.607   3.714  0.5157  0.4381 -0.1542
   31MOL    C4519305   3.611   7.497   3.800 -0.0596  0.3131  0.2810
   31MOL    C4619306   3.536   7.371   3.773 -0.5127 -0.0938  0.1377
   31MOL    N4719307   3.571   7.264   3.872 -0.1683  0.0172 -0.2106
   31MOL    H4819308   3.525   0.020   3.142  0.0215  0.5311  1.4731
   31MOL    H4919309   3.498   0.000   3.308 -2.9062  0.0948 -1.9562
   31MOL    H5019310   3.742   7.609   3.329 -1.6134  0.0053  1.4093
   31MOL    H5119311   3.754   7.629   3.149 -1.1444 -2.2012  1.1147
   31MOL    H5219312   3.711   0.161   3.157 -0.4069 -1.8981 -0.6150
   31MOL    H5319313   3.851   0.133   3.247  0.8170 -3.8463 -2.3402
   31MOL    H5419314   3.580   0.209   3.374  0.0676 -1.0505  0.2780
   31MOL    H5519315   3.741   0.283   3.388  1.2830 -0.3041  0.4500
   31MOL    H5619316   3.541   0.148   3.592 -0.8236 -1.2018 -1.7018
   31MOL    H5719317   3.627   0.112   3.799  1.9670  1.6842 -1.6643
   31MOL    H5819318   3.756   0.018   3.733  0.4905  1.9942  1.0894
   31MOL    H5919319   3.463   7.625   3.735  0.2398 -2.1648  0.9761
   31MOL    H6019320   3.563   7.575   3.610  0.5970  0.9599 -0.3195
   31MOL    H6119321   3.613   7.517   3.907 -0.7768  2.1067 -0.0326
   31MOL    H6219322   3.714   7.474   3.770 -1.7759 -1.7431 -4.6339
   31MOL    H6319323   3.538   7.346   3.667  0.8296  0.4640  0.0228
   31MOL    H6419324   3.429   7.392   3.779 -0.8133 -1.3652 -0.5717
   31MOL    H6519325   3.585   7.294   3.968  0.0421  1.7376 -0.7644
   31MOL    C6619326   3.561   7.135   3.831 -0.1441 -0.8205  0.3871
   31MOL    O6719327   3.510   7.108   3.725  0.1012 -0.1509  0.5719
   31MOL    C6819328   3.612   7.022   3.921  0.4733  0.6366 -0.2029
   31MOL    C6919329   3.497   6.939   3.978 -0.2033 -0.4297 -0.0759
   31MOL    C7019330   3.532   6.843   4.091 -0.1660 -0.0799  0.1362
   31MOL    C7119331   3.424   6.737   4.126  0.1605 -0.1020  0.1148
   31MOL    C7219332   3.472   6.639   4.224  0.2128  0.0750 -0.3596
   31MOL    O7319333   3.549   6.672   4.315 -0.0138 -0.4050 -0.0299
   31MOL    N7419334   3.429   6.510   4.218  0.9746  0.2989  0.2276
   31MOL    C7519335   3.460   6.396   4.301  0.4507 -0.2902  0.6281
   31MOL    C7619336   3.390   6.409   4.433 -0.2495 -0.0993  0.0683
   31MOL    C7719337   3.364   6.282   4.517 -0.2770 -0.6807 -0.0567
   31MOL    C7819338   3.256   6.189   4.452 -0.0161 -0.2074 -0.4800
   31MOL    N7919339   3.257   6.056   4.520 -0.3508  0.6638 -0.3466
   31MOL    H8019340   3.681   6.953   3.874  0.8937  0.0748  1.2297
   31MOL    H8119341   3.662   7.082   3.998  1.3148  1.4617 -1.3681
   31MOL    H8219342   3.414   6.996   4.021 -1.1352 -1.4053 -0.5390
   31MOL    H8319343   3.451   6.879   3.899 -1.5245  1.6905 -0.9620
   31MOL    H8419344   3.585   6.886   4.176  0.5293 -0.7047  0.0298
   31MOL    H8519345   3.608   6.777   4.049  1.2954  1.3843  0.4092
   31MOL    H8619346   3.393   6.691   4.032 -1.7782  0.7595  0.3252
   31MOL    H8719347   3.329   6.769   4.168 -0.2433  0.2172 -1.0108
   31MOL    H8819348   3.344   6.489   4.169  0.7065 -1.2033  1.3041
   31MOL    H8919349   3.566   6.399   4.326  0.3152 -1.6177  1.3570
   31MOL    H9019350   3.453   6.302   4.247 -0.3506 -0.2282  0.6184
   31MOL    H9119351   3.457   6.472   4.492  0.8513 -2.1899  1.1033
   31MOL    H9219352   3.291   6.455   4.424 -0.4584 -0.7513 -1.1004
   31MOL    H9319353   3.323   6.316   4.613  0.8967 -2.1475  0.9837
   31MOL    H9419354   3.458   6.228   4.526  0.4941  0.6720  0.0890
   31MOL    H9519355   3.271   6.181   4.345  0.2731 -2.8844 -0.2831
   31MOL    H9619356   3.159   6.238   4.466 -0.3016 -0.8812 -0.0505
   31MOL    H9719357   3.201   6.045   4.603 -0.6915  0.3404 -0.6182
   31MOL    C9819358   3.314   5.945   4.470 -0.4196 -0.1108 -0.5315
   31MOL    O9919359   3.301   5.840   4.532 -0.2210  0.6112  0.5745
   31MOL   C10019360   3.415   5.962   4.357 -0.0192 -0.2490 -0.0905
   31MOL   C10119361   3.437   5.837   4.272 -0.2199 -0.5330  0.0434
   31MOL   C10219362   3.555   5.854   4.173  0.0038  0.0927  0.0796
   31MOL   C10319363   3.582   5.749   4.065  0.6347  0.2326  0.5771
   31MOL   C10419364   3.604   5.603   4.105  0.1428  0.4767 -0.3062
   31MOL   O10519365   3.636   5.567   4.220  0.0562  0.2073 -0.7368
   31MOL   N10619366   3.585   5.515   4.006 -0.5565 -0.1934  0.0577
   31MOL   C10719367   3.586   5.372   4.017  0.5052 -0.4971  0.1189
   31MOL   C10819368   3.487   5.301   3.915 -0.1877  0.1623  0.2096
   31MOL   C10919369   3.471   5.148   3.941 -0.3271  0.1305 -0.1267
   31MOL   C11019370   3.423   5.054   3.822  0.2200 -0.2996  0.0695
   31MOL   N11119371   3.496   5.088   3.699 -0.4812  0.0013  0.3837
   31MOL   H11219372   3.405   6.043   4.284 -2.4951 -1.2443 -0.8933
   31MOL   H11319373   3.505   5.973   4.418 -0.5740  1.0529  0.5114
   31MOL   H11419374   3.460   5.749   4.332  0.6838 -0.0580  0.3981
   31MOL   H11519375   3.346   5.810   4.219 -0.4035 -0.8456  0.5156
   31MOL   H11619376   3.649   5.852   4.228 -0.8858  0.2176  1.6457
   31MOL   H11719377   3.533   5.950   4.125 -2.1543 -0.5742 -0.3051
   31MOL   H11819378   3.651   5.773   3.984  0.2518 -0.3151  0.0890
   31MOL   H11919379   3.489   5.744   4.007  1.3226  0.5877 -0.5776
   31MOL   H12019380   3.563   5.554   3.915  0.4877 -0.9838 -0.5379
   31MOL   H12119381   3.566   5.342   4.120  1.5400  2.0602  1.1148
   31MOL   H12219382   3.690   5.349   3.995  1.4162  2.7958  0.6766
   31MOL   H12319383   3.395   5.358   3.929 -0.5184 -0.9687  2.9778
   31MOL   H12419384   3.528   5.318   3.816  0.7388  0.9764  0.7247
   31MOL   H12519385   3.390   5.138   4.013 -0.0433  0.0797  0.1865
   31MOL   H12619386   3.564   5.114   3.986 -1.0563 -2.1151 -0.2477
   31MOL   H12719387   3.316   5.072   3.806  0.0652 -1.4368 -0.1906
   31MOL   H12819388   3.430   4.949   3.850  0.3811 -0.1094  0.7584
   31MOL   H12919389   3.440   5.103   3.616 -2.7810 -1.6908  1.5835
   31MOL   C13019390   3.633   5.084   3.679 -0.7767  0.1996 -0.4422
   31MOL   O13119391   3.711   5.042   3.761 -0.1813  0.8018 -0.1114
   31MOL   C13219392   3.693   5.141   3.546  0.2212  1.0917 -0.0352
   31MOL   C13319393   3.801   5.260   3.564  0.6814  0.2587 -0.6354
   31MOL   C13419394   3.740   5.394   3.608 -0.0254 -0.6069  0.1739
   31MOL   C13519395   3.836   5.521   3.598 -0.4547  0.3105 -0.1018
   31MOL   C13619396   3.784   5.649   3.659 -0.0825 -0.6750 -0.1657
   31MOL   O13719397   3.718   5.646   3.764  0.2922  0.6490  0.3636
   31MOL   N13819398   3.806   5.767   3.594 -0.0354 -0.3259  0.1190
   31MOL   C13919399   3.757   5.901   3.622  0.2160 -0.2407  0.8964
   31MOL   C14019400   3.612   5.920   3.569 -0.0227  0.6342  0.3294
   31MOL   C14119401   3.503   5.851   3.656  0.5954 -0.4018 -0.2625
   31MOL   C14219402   3.355   5.891   3.627  0.0946  0.3348 -0.7535
   31MOL   N14319403   3.251   5.845   3.721 -0.4801 -0.0238 -0.5683
   31MOL   H14419404   3.742   5.060   3.491  1.7787  2.5103 -0.7591
   31MOL   H14519405   3.612   5.178   3.482 -1.0474  1.1428  1.5757
   31MOL   H14619406   3.877   5.235   3.638 -0.0421 -1.8835 -0.5838
   31MOL   H14719407   3.841   5.282   3.465 -0.4617  2.0504 -0.7152
   31MOL   H14819408   3.712   5.386   3.713 -2.2251  0.0916 -0.3270
   31MOL   H14919409   3.649   5.414   3.550  0.9732 -1.2752 -1.6825
   31MOL   H15019410   3.854   5.534   3.491 -0.4093 -0.8653 -0.2388
   31MOL   H15119411   3.935   5.509   3.642  0.1356 -0.6714 -1.6413
   31MOL   H15219412   3.857   5.746   3.509 -0.7731 -3.1983  0.3218
   31MOL   H15319413   3.826   5.965   3.565 -2.3418  2.0584  0.2773
   31MOL   H15419414   3.773   5.929   3.726 -0.4035 -0.9889  1.1897
   31MOL   H15519415   3.586   6.026   3.574 -3.3601 -0.0277 -1.1311
   31MOL   H15619416   3.610   5.903   3.462 -0.9142 -1.7001  0.6832
   31MOL   H15719417   3.521   5.871   3.762  2.2998  1.5541 -0.8890
   31MOL   H15819418   3.526   5.744   3.651  0.9427 -0.3476  0.1042
   31MOL   H15919419   3.332   5.860   3.525 -0.4357 -0.9924 -0.2234
   31MOL   H16019420   3.357   6.000   3.622  0.8209  0.4717  1.6603
   31MOL   H16119421   3.180   5.779   3.693  0.2160 -0.9059 -0.2612
   31MOL   C16219422   3.259   5.884   3.854  0.1233  0.0869  0.4941
   31MOL   O16319423   3.325   5.975   3.900  0.4383 -0.4400 -0.8855
   31MOL   C16419424   3.191   5.800   3.949 -0.2682  0.3850 -0.8493
   31MOL   C16519425   3.104   5.876   4.053 -0.3415  0.0027 -0.2237
   31MOL   C16619426   3.035   5.794   4.159  0.4658  0.1595  0.2043
   31MOL   C16719427   2.976   5.884   4.265 -0.8162  0.1588  0.2992
   31MOL   C16819428   2.878   5.810   4.357 -0.9159 -0.0946  0.0280
   31MOL   O16919429   2.919   5.718   4.421 -0.3006  0.3553 -0.4027
   31MOL   N17019430   2.750   5.848   4.349  1.0020 -0.5364 -0.2451
   31MOL   C17119431   2.653   5.796   4.440 -0.7826  0.4270 -0.7688
   31MOL   C17219432   2.622   5.900   4.552  0.3963  0.2828 -0.2758
   31MOL   C17319433   2.568   6.039   4.493 -0.9562 -0.2807 -0.9863
   31MOL   C17419434   2.511   6.119   4.606  0.3414  0.1024 -0.2916
   31MOL   N17519435   2.428   6.222   4.546 -0.4146  0.8508  0.1521
   31MOL   H17619436   3.121   5.736   3.896 -0.8370 -0.3827  0.7888
   31MOL   H17719437   3.269   5.734   3.986  0.6006  1.7816 -0.1361
   31MOL   H17819438   3.164   5.952   4.102  0.4694 -0.2461 -0.8262
   31MOL   H17919439   3.039   5.938   3.990 -1.0405 -1.0295 -0.5393
   31MOL   H18019440   3.111   5.729   4.202 -1.0324 -2.6300 -1.2398
   31MOL   H18119441   2.960   5.729   4.114  0.3743 -0.9076  1.8781
   31MOL   H18219442   2.919   5.961   4.213  0.4630  0.2634 -0.9644
   31MOL   H18319443   3.055   5.935   4.319  0.0035 -1.3732  0.5894
   31MOL   H18419444   2.732   5.915   4.275 -2.5192  0.5315  1.4827
   31MOL   H18519445   2.698   5.714   4.496 -1.1956  1.5281  1.2269
   31MOL   H18619446   2.559   5.776   4.389 -0.2950 -2.0897 -0.7469
   31MOL   H18719447   2.541   5.859   4.613  0.5792 -0.3480 -0.4512
   31MOL   H18819448   2.712   5.907   4.613 -1.2280 -0.9320  2.3538
   31MOL   H18919449   2.486   6.020   4.425  0.2279  1.3934 -2.9256
   31MOL   H19019450   2.645   6.093   4.437 -0.5773 -0.2905 -0.4842
   31MOL   H19119451   2.574   6.159   4.685  1.4441 -2.8657  0.3915
   31MOL   H19219452   2.436   6.058   4.655 -1.0129  2.1110  0.2111
   31MOL   H19319453   2.395   6.212   4.451  0.7942 -2.2817  0.0092
   31MOL   C19419454   2.414   6.345   4.601  0.6569 -1.0332  0.0241
   31MOL   O19519455   2.448   6.366   4.719 -0.5543 -0.2387  0.1846
   31MOL   C19619456   2.360   6.464   4.516 -0.0196 -0.3155 -0.1850
   31MOL   C19719457   2.432   6.601   4.550  1.0938 -0.5480 -0.1846
   31MOL   C19819458   2.583   6.597   4.501  0.9273 -0.2064 -0.5366
   31MOL   C19919459   2.650   6.729   4.534 -0.0242 -0.1637  0.1090
   31MOL   C20019460   2.799   6.728   4.520  0.2126 -0.2963 -0.0660
   31MOL   O20119461   2.862   6.622   4.493  0.2213 -0.6245 -0.7545
   31MOL   N20219462   2.855   6.854   4.517  0.0917  0.6170 -0.3239
   31MOL   C20319463   2.992   6.877   4.480  0.2112  0.2143  0.7048
   31MOL   C20419464   3.090   6.855   4.600  0.3720 -0.1316  0.0237
   31MOL   C20519465   3.228   6.888   4.559  0.7910  0.4672 -0.4877
   31MOL   C20619466   3.336   6.777   4.568 -0.2120  0.4403 -0.1260
   31MOL   N20719467   3.467   6.829   4.532 -0.0865  0.4636  0.3115
   31MOL   H20819468   2.359   6.445   4.408  1.5519 -0.4124 -0.1897
   31MOL   H20919469   2.255   6.476   4.545 -0.5216  4.0689 -3.3442
   31MOL   H21019470   2.397   6.684   4.489  2.5499  0.6810  0.6135
   31MOL   H21119471   2.418   6.633   4.653 -0.8595  0.9902 -0.8956
   31MOL   H21219472   2.594   6.566   4.397  0.0906 -0.0394 -0.6758
   31MOL   H21319473   2.628   6.512   4.552  1.8915  0.3346 -0.4731
   31MOL   H21419474   2.622   6.762   4.634 -0.5953  0.2487 -0.1834
   31MOL   H21519475   2.606   6.801   4.465 -1.0639 -0.0618  0.8665
   31MOL   H21619476   2.804   6.941   4.516 -1.5666 -0.3264 -0.0055
   31MOL   H21719477   3.000   6.979   4.442 -1.2283 -0.8797 -2.7034
   31MOL   H21819478   3.023   6.811   4.399 -0.1441  0.6909  0.1751
   31MOL   H21919479   3.055   6.923   4.678  2.2075  1.3590 -0.4062
   31MOL   H22019480   3.086   6.755   4.643  0.6914  0.6487  1.9408
   31MOL   H22119481   3.245   6.971   4.627 -0.6371 -0.1774  0.6903
   31MOL   H22219482   3.226   6.922   4.455 -1.6796 -1.5923 -1.1780
   31MOL   H22319483   3.311   6.689   4.508  0.3215  1.6114 -2.0952
   31MOL   H22419484   3.339   6.733   4.668 -2.2894  0.1140 -0.1732
   31MOL   H22519485   3.505   6.779   4.453 -0.1579 -2.1174  1.8543
   31MOL   C22619486   3.547   6.901   4.616 -0.5286  0.5915 -0.1258
   31MOL   O22719487   3.503   6.956   4.717 -0.8378 -0.3333 -0.4793
   31MOL   C22819488   3.698   6.886   4.602 -0.8480  0.1030  0.1657
   31MOL   C22919489   3.766   7.019   4.634 -0.1888 -0.3907 -0.5572
   31MOL   C23019490   3.918   7.027   4.600 -0.6277  0.0262  0.0039
   31MOL   C23119491   3.991   7.160   4.635 -0.4539 -0.3487  0.0408
   31MOL   C23219492   3.924   7.286   4.582 -0.4158 -0.6207 -0.1425
   31MOL   O23319493   3.907   7.293   4.462  0.5222  0.2820  0.4338
   31MOL   N23419494   3.903   7.387   4.670  0.0457 -0.6996 -0.3673
   31MOL   C23519495   3.819   7.502   4.650 -0.5987  0.7629  0.6152
   31MOL   C23619496   3.672   7.479   4.680 -0.2812 -0.0828  0.0681
   31MOL   C23719497   3.589   7.601   4.648 -0.0205 -0.5811 -0.0589
   31MOL   C23819498   3.446   7.595   4.713  0.2062 -0.2991 -0.2480
   31MOL   N23919499   3.368   0.012   4.701  0.0360 -0.2038 -0.1927
   31MOL   H24019500   3.721   6.800   4.665  3.7038  0.8793 -0.2832
   31MOL   H24119501   3.715   6.856   4.499 -1.7839 -3.1926  0.8914
   31MOL   H24219502   3.721   7.098   4.575  1.3978  1.0066  0.0617
   31MOL   H24319503   3.758   7.036   4.741 -0.1234 -0.5591 -0.5255
   31MOL   H24419504   3.922   7.013   4.492  2.5034 -1.3017  0.2475
   31MOL   H24519505   3.973   6.944   4.645 -0.5523 -0.6481 -1.2953
   31MOL   H24619506   4.095   7.164   4.603 -0.4261 -1.0868  0.0454
   31MOL   H24719507   3.995   7.162   4.744 -0.2178 -2.9276  0.1029
   31MOL   H24819508   3.949   7.382   4.759  0.0986  0.7499 -0.3083
   31MOL   H24919509   3.838   7.532   4.547  1.0907 -3.5460 -0.4490
   31MOL   H25019510   3.864   7.585   4.704 -0.5736 -0.1290  2.0139
   31MOL   H25119511   3.631   7.394   4.626 -1.1121  1.9740 -2.6161
   31MOL   H25219512   3.656   7.453   4.785 -0.0622  1.7944  0.5887
   31MOL   H25319513   3.582   7.633   4.544  0.9148 -1.3813 -0.3689
   31MOL   H25419514   3.638   7.688   4.692  1.1261 -0.0070 -2.3797
   31MOL   H25519515   3.461   7.593   4.821 -1.3164 -0.7304 -0.0395
   31MOL   H25619516   3.393   7.505   4.681 -0.1294 -0.0095 -0.5015
   31MOL   H25719517   3.372   0.072   4.782 -2.2669  0.0829 -0.2671
   31MOL   C25819518   3.285   0.036   4.601 -0.4296  0.1795  0.1618
   31MOL   O25919519   3.280   7.669   4.493 -0.3881 -0.0475 -0.3185
   31MOL   C26019520   3.204   0.165   4.612 -0.6330  0.4604 -0.3377
   31MOL   C26119521   3.118   0.185   4.489  0.2887 -0.6711  0.7910
   31MOL   C26219522   3.002   0.277   4.503  0.8355 -0.3119 -0.3948
   31MOL   C26319523   2.983   0.350   4.370  0.0523 -0.3963  0.7321
   31MOL   C26419524   2.936   0.268   4.252 -0.0272  0.2962  0.1662
   31MOL   O26519525   2.879   0.155   4.271 -0.8628 -0.6160 -0.2964
   31MOL   N26619526   2.955   0.326   4.137  0.1386  0.3450  0.1673
   31MOL   C26719527   2.929   0.257   4.003  0.1401  0.3773 -0.6157
   31MOL   C26819528   2.838   0.348   3.913  0.1832  0.3669 -0.5427
   31MOL   C26919529   2.809   0.298   3.769 -0.1887  0.4517 -0.2132
   31MOL   C27019530   2.937   0.295   3.684  0.3795  0.0854  0.2827
   31MOL   N27119531   2.916   0.216   3.564  0.0361  0.1692 -0.4028
   31MOL   H27219532   3.157   0.175   4.710  2.3124  2.2439  0.9797
   31MOL   H27319533   3.264   0.255   4.626  0.8259 -0.4985 -0.2096
   31MOL   H27419534   3.167   0.213   4.396 -1.6153  0.2591  0.0462
   31MOL   H27519535   3.071   0.089   4.468 -1.8020 -0.0290  2.3944
   31MOL   H27619536   3.013   0.363   4.570 -1.9030  1.2064 -1.8366
   31MOL   H27719537   2.907   0.229   4.525  0.0130  1.5184  0.1543
   31MOL   H27819538   3.076   0.397   4.340  1.1054 -2.3297  0.8804
   31MOL   H27919539   2.914   0.434   4.372 -0.7502 -1.0258 -0.0502
   31MOL   H28019540   2.984   0.423   4.133  1.6328 -0.1054  0.0123
   31MOL   H28119541   2.867   0.169   4.021 -0.1672  1.1401  2.1924
   31MOL   H28219542   3.017   0.224   3.947 -0.3916  0.8023 -1.7192
   31MOL   H28319543   2.748   0.353   3.974  1.5606 -1.0656  1.7027
   31MOL   H28419544   2.878   0.449   3.919  1.6008 -0.0802 -2.2278
   31MOL   H28519545   2.733   0.358   3.719  0.6464 -0.4374 -2.6426
   31MOL   H28619546   2.773   0.195   3.775  0.6658  0.0757 -1.2925
   31MOL   H28719547   3.023   0.250   3.733  0.8518  0.2155 -0.4231
   31MOL   H28819548   2.977   0.394   3.661  1.8923 -0.2390  1.4802
   31MOL   H28919549   2.918   0.265   3.476  1.6751 -1.8812 -1.5603
   31MOL   C29019550   2.922   0.083   3.560 -0.2660  0.0914 -0.4894
   31MOL   O29119551   2.942   0.022   3.662  0.1700 -0.4165 -0.0319
   31MOL   C29219552   2.908   0.017   3.427 -0.4363 -0.4275 -0.2123
   31MOL   C29319553   3.045   0.018   3.345  0.1789  0.3636 -0.4478
   31MOL   C29419554   3.156   7.636   3.410  0.1355  0.5842  0.6104
   31MOL   C29519555   3.237   7.695   3.523 -0.0492 -0.3916 -0.1996
   31MOL   C29619556   3.288   0.138   3.508 -0.1850  0.2368 -0.0639
   31MOL   O29719557   3.323   0.180   3.397  0.2045  0.5973 -0.2596
   31MOL   N29819558   3.314   0.187   3.623 -0.2993 -0.3362 -0.9136
   31MOL   C29919559   3.364   0.321   3.648  0.5723  0.0481 -0.1305
   31MOL   C30019560   3.286   0.386   3.760  0.4898 -0.0448 -0.3563
   31MOL   C30119561   3.350   0.511   3.821 -0.3093 -0.0223 -0.4653
   31MOL   C30219562   3.278   0.560   3.946  0.0307 -0.1932 -0.3552
   31MOL   N30319563   3.159   0.644   3.918  0.3685  0.3086 -0.0195
   31MOL   H30419564   2.894   7.611   3.439  0.8695 -0.2535  3.3082
   31MOL   H30519565   2.828   0.065   3.372 -2.1627  1.7719  3.9932
   31MOL   H30619566   3.026   7.672   3.249  1.9961 -1.7664  0.1957
   31MOL   H30719567   3.078   0.121   3.331  1.4772  0.3114  1.8657
   31MOL   H30819568   3.218   7.593   3.331 -0.8460 -2.1850  1.2904
   31MOL   H30919569   3.121   7.542   3.454  2.0167 -1.1878 -1.4905
   31MOL   H31019570   3.327   7.634   3.536  0.1276  0.0100  0.4995
   31MOL   H31119571   3.179   7.691   3.615 -0.3522 -2.0708 -0.4560
   31MOL   H31219572   3.285   0.133   3.703  2.3902  1.7302  1.5503
   31MOL   H31319573   3.355   0.375   3.554 -0.4224 -2.6769 -1.6542
   31MOL   H31419574   3.469   0.314   3.677  0.5118 -0.6532 -0.0823
   31MOL   H31519575   3.191   0.429   3.728  1.1513  0.9818 -0.9700
   31MOL   H31619576   3.264   0.310   3.835 -0.4752  0.5737 -0.0014
   31MOL   H31719577   3.366   0.595   3.754 -1.1322  1.0109  0.6238
   31MOL   H31819578   3.456   0.488   3.835 -0.7407 -1.2705  0.9235
   31MOL   H31919579   3.342   0.629   4.000 -1.1521  1.2906 -0.8218
   31MOL   H32019580   3.250   0.475   4.009  0.8834 -0.6174 -0.5386
   31MOL   H32119581   3.145   0.687   3.828  0.4480 -1.3733 -0.8516
   31MOL   C32219582   3.037   0.649   3.984  0.1611 -0.1557 -0.0053
   31MOL   O32319583   3.031   0.594   4.093 -0.3476 -0.3469  0.0758
   31MOL   C32419584   2.922   0.719   3.909  0.5981  0.3341  0.6721
   31MOL   C32519585   2.785   0.703   3.980  0.1735 -0.4372  0.1207
   31MOL   C32619586   2.668   0.676   3.881 -0.2541  0.3314 -0.0346
   31MOL   C32719587   2.531   0.673   3.936 -0.5122  0.6423  0.2545
   31MOL   C32819588   2.524   0.551   4.026 -0.5461 -0.2892  0.1172
   31MOL   O32919589   2.502   0.440   3.977 -0.9056  0.5405 -0.0453
   31MOL   N33019590   2.546   0.584   4.161 -0.1745  0.2849 -0.2354
   31MOL   C33119591   2.571   0.498   4.275  0.0227 -0.2176 -0.2280
   31MOL   C33219592   2.665   0.572   4.366 -0.4703 -0.8527  0.1322
   31MOL   C33319593   2.605   0.697   4.438  0.2027 -0.4195  0.4950
   31MOL   C33419594   2.701   0.801   4.491 -0.2395  0.4249  0.1669
   31MOL   N33519595   2.768   0.862   4.379 -0.4816  0.1540  0.4203
   31MOL   H33619596   2.949   0.824   3.910  2.0859 -0.0069 -1.4040
   31MOL   H33719597   2.920   0.680   3.808  0.0822 -2.0448  1.5627
   31MOL   H33819598   2.786   0.615   4.045  2.3163 -0.1124  0.5812
   31MOL   H33919599   2.760   0.791   4.039  2.2985 -0.4244  1.0696
   31MOL   H34019600   2.699   0.594   3.817 -1.1365  0.0808 -0.1400
   31MOL   H34119601   2.671   0.754   3.805  0.4466 -1.8612 -2.3323
   31MOL   H34219602   2.462   0.663   3.852 -1.9296 -0.9197  1.5636
   31MOL   H34319603   2.500   0.766   3.983  1.4039  2.0836 -1.2581
   31MOL   H34419604   2.578   0.679   4.172  0.2330  0.1699 -0.4190
   31MOL   H34519605   2.607   0.399   4.245 -1.2371 -0.2416 -1.7290
   31MOL   H34619606   2.482   0.483   4.336  0.7016  0.1598  0.8674
   31MOL   H34719607   2.695   0.499   4.442 -1.5521  0.1581  1.5484
   31MOL   H34819608   2.750   0.607   4.307 -0.6326 -1.4557 -0.4641
   31MOL   H34919609   2.527   0.672   4.510 -0.5855 -0.8978 -0.5116
   31MOL   H35019610   2.534   0.746   4.372  0.7371 -0.4022 -0.0704
   31MOL   H35119611   2.759   0.744   4.564 -1.3050  0.1470  0.8094
   31MOL   H35219612   2.653   0.868   4.561  1.4350  0.8590  0.9316
   31MOL   H35319613   2.706   0.912   4.317 -0.7036  1.3317  1.5812
   31MOL   C35419614   2.900   0.864   4.358  0.3535  0.1220 -0.2723
   31MOL   O35519615   2.982   0.818   4.442 -0.0263 -0.7607  0.0592
   31MOL   C35619616   2.951   0.929   4.229 -0.0483 -0.2770 -1.2760
   31MOL   C35719617   3.049   1.050   4.241  0.2819 -0.2541  0.3789
   31MOL   C35819618   2.999   1.174   4.317  0.3627  0.2215  0.2238
   31MOL   C35919619   2.924   1.275   4.233 -0.0354 -0.0198 -0.5791
   31MOL   C36019620   2.874   1.401   4.312 -0.1323  1.3144  0.7219
   31MOL   O36119621   2.841   1.387   4.432  0.2403  0.0258  0.7003
   31MOL   N36219622   2.866   1.518   4.245  0.1505  0.2310  0.0337
   31MOL   C36319623   2.835   1.645   4.316 -0.3052  0.6583 -0.5705
   31MOL   C36419624   2.769   1.752   4.230 -0.3213  0.2446  0.0361
   31MOL   C36519625   2.643   1.705   4.152  0.1502  0.1364 -0.6114
   31MOL   C36619626   2.509   1.681   4.235 -0.0838  0.3459 -0.1054
   31MOL   N36719627   2.394   1.660   4.146  0.2996  0.0957 -0.0626
   31MOL   H36819628   2.995   0.848   4.170 -3.0678 -1.8450 -1.4966
   31MOL   H36919629   2.868   0.966   4.168 -1.5195 -2.9341 -0.9735
   31MOL   H37019630   3.144   1.015   4.282  0.6153  1.0572  0.7628
   31MOL   H37119631   3.073   1.088   4.142  0.3916  0.3487  0.6295
   31MOL   H37219632   3.087   1.221   4.360  0.4384  0.6464 -0.3840
   31MOL   H37319633   2.950   1.135   4.407  1.2349 -0.3282  0.4641
   31MOL   H37419634   2.837   1.229   4.186 -0.5716 -0.6754  1.0172
   31MOL   H37519635   3.002   1.304   4.163  0.1326 -1.8481 -1.1763
   31MOL   H37619636   2.897   1.527   4.149 -0.0925  0.3622 -0.0352
   31MOL   H37719637   2.929   1.674   4.363  1.1323 -0.6552 -2.5658
   31MOL   H37819638   2.755   1.614   4.385  0.2839  1.5201  0.5232
   31MOL   H37919639   2.749   1.837   4.295  2.5410  1.0348 -0.0432
   31MOL   H38019640   2.838   1.797   4.159  0.1405  1.9727  1.5400
   31MOL   H38119641   2.675   1.622   4.089 -0.9984 -1.7635  1.2523
   31MOL   H38219642   2.623   1.786   4.082 -0.4087  0.8185  0.3328
   31MOL   H38319643   2.485   1.772   4.290 -3.2718 -0.4692 -0.0386
   31MOL   H38419644   2.516   1.599   4.305  1.5188  0.2416 -0.3671
   31MOL   H38519645   2.338   1.743   4.128  0.8196  0.5764  0.5043
   31MOL   C38619646   2.362   1.542   4.092  0.4263 -0.2961  0.8312
   31MOL   O38719647   2.429   1.442   4.107 -0.2677  0.4076  0.4276
   31MOL   C38819648   2.236   1.533   4.004  1.2341  0.2453  0.0508
   31MOL   C38919649   2.218   1.406   3.918  0.2985  0.0851 -0.3627
   31MOL   C39019650   2.169   1.285   3.999  0.0835 -0.1135  0.6956
   31MOL   C39119651   2.022   1.310   4.051  0.1264  0.0173  0.1640
   31MOL   C39219652   1.964   1.202   4.152 -0.3823  0.9364  0.2872
   31MOL   O39319653   1.954   1.083   4.116  0.5515  0.4878  0.3615
   31MOL   N39419654   1.930   1.246   4.272 -0.0076 -0.7194 -0.2641
   31MOL   C39519655   1.864   1.163   4.376 -0.2830 -0.5958 -0.0253
   31MOL   C39619656   1.715   1.133   4.333  0.2850 -0.0196 -0.0383
   31MOL   C39719657   1.622   1.061   4.436 -0.3629  0.0074 -0.0062
   31MOL   C39819658   1.478   1.035   4.378  0.8793  0.4489 -0.7995
   31MOL   N39919659   1.371   1.008   4.479  0.5631  0.0110 -0.0253
   31MOL   H40019660   2.149   1.550   4.068 -0.2042 -0.7090 -1.5891
   31MOL   H40119661   2.234   1.621   3.940 -1.0384  1.2008  1.3389
   31MOL   H40219662   2.141   1.416   3.841 -0.0155  1.6633  0.1353
   31MOL   H40319663   2.315   1.399   3.867 -1.2666 -1.2463 -3.3108
   31MOL   H40419664   2.238   1.254   4.078  0.4620  0.1627  0.4720
   31MOL   H40519665   2.167   1.203   3.927 -0.4407  0.1262  0.4403
   31MOL   H40619666   1.947   1.323   3.973 -1.2598 -0.0466  1.4513
   31MOL   H40719667   2.022   1.410   4.095 -1.9090  0.7552 -1.4331
   31MOL   H40819668   1.931   1.347   4.284 -0.8259 -0.6615 -0.6488
   31MOL   H40919669   1.874   1.225   4.464 -1.4442  0.2671 -0.4850
   31MOL   H41019670   1.912   1.066   4.386 -0.3583 -0.6465 -0.1512
   31MOL   H41119671   1.673   1.228   4.300  0.6751  0.5432  1.0814
   31MOL   H41219672   1.717   1.076   4.240  0.8518 -1.9012  1.1121
   31MOL   H41319673   1.615   1.125   4.523 -1.2891  1.5539 -1.1946
   31MOL   H41419674   1.679   0.969   4.452  0.9375  0.0612 -3.6508
   31MOL   H41519675   1.487   0.942   4.323 -0.7332 -0.9594  1.2603
   31MOL   H41619676   1.450   1.114   4.308 -1.2759  0.9298  0.5628
   31MOL   H41719677   1.364   0.915   4.518  2.0644 -0.2295 -0.2731
   31MOL   C41819678   1.261   1.079   4.506  0.5193  0.1544 -0.5449
   31MOL   O41919679   1.233   1.189   4.455  0.0259  0.0701  0.0555
   31MOL   C42019680   1.176   1.029   4.620  0.1644  0.3002 -0.6827
   31MOL   C42119681   1.027   1.074   4.616  0.6101 -0.3129 -0.5710
   31MOL   C42219682   0.948   1.004   4.503 -0.1338 -0.2359 -0.0726
   31MOL   C42319683   0.795   1.026   4.487 -0.0781  0.5021 -0.0514
   31MOL   C42419684   0.728   0.964   4.613 -0.0860 -0.1736  0.3071
   31MOL   O42519685   0.749   0.847   4.637  0.5393 -0.0444 -0.1153
   31MOL   N42619686   0.659   1.044   4.697  0.0895 -0.2448 -0.3908
   31MOL   C42719687   0.588   0.992   4.814  1.0695 -0.1965  0.6608
   31MOL   C42819688   0.668   1.006   4.943 -0.0779  0.2171  1.1306
   31MOL   C42919689   0.800   0.932   4.949 -0.2688  0.1085  0.8473
   31MOL   C43019690   0.869   0.910   5.084 -0.2545 -0.1724 -0.2821
   31MOL   N43119691   1.008   0.859   5.063  0.1875 -0.5464 -0.4963
   31MOL   H43219692   1.174   0.920   4.624 -1.2027  0.3159 -0.6646
   31MOL   H43319693   1.218   1.063   4.714  1.8496 -4.0283  0.2004
   31MOL   H43419694   0.967   1.051   4.704 -0.4728  0.6968 -1.0326
   31MOL   H43519695   1.019   1.182   4.602  1.4520 -0.1787 -0.0493
   31MOL   H43619696   0.962   0.896   4.514  1.7275  0.1076  1.2287
   31MOL   H43719697   0.990   1.020   4.403  0.1658 -0.8633 -0.0491
   31MOL   H43819698   0.764   0.973   4.396 -0.7012  1.3535 -0.3385
   31MOL   H43919699   0.774   1.131   4.465 -0.8842 -0.0753 -2.1890
   31MOL   H44019700   0.669   1.143   4.678  1.4521 -0.4033 -0.5344
   31MOL   H44119701   0.564   0.887   4.795  2.1382 -0.3393  0.0629
   31MOL   H44219702   0.490   1.041   4.819  0.1440 -1.9122  0.0367
   31MOL   H44319703   0.676   1.111   4.974  1.0838  1.3639 -2.8088
   31MOL   H44419704   0.603   0.967   5.022  2.0111  0.2865  2.9507
   31MOL   H44519705   0.872   0.978   4.882 -1.7165 -0.0329 -0.8472
   31MOL   H44619706   0.789   0.829   4.914 -2.1274  0.9614 -1.2366
   31MOL   H44719707   0.807   0.852   5.153  1.4810 -0.8359  0.7569
   31MOL   H44819708   0.880   1.006   5.134  0.5876 -0.3560 -0.1132
   31MOL   H44919709   1.083   0.924   5.046 -2.0476  2.2463 -0.1939
   31MOL   C45019710   1.036   0.726   5.060  0.8500 -0.1367 -0.7168
   31MOL   O45119711   0.961   0.638   5.088 -0.4495  0.2825  0.0454
   31MOL   C45219712   1.183   0.698   5.011  0.0741  0.4600 -0.0081
   31MOL   C45319713   1.180   0.655   4.863  0.0655 -0.5900 -0.2468
   31MOL   C45419714   1.326   0.634   4.813 -0.7515  0.1367  0.0801
   31MOL   C45519715   1.344   0.554   4.682 -0.7237  0.3333  0.1716
   31MOL   C45619716   1.290   0.629   4.555 -0.3979  0.3875 -0.9063
   31MOL   O45719717   1.319   0.746   4.539  0.8485  0.0282  0.0781
   31MOL   N45819718   1.220   0.550   4.469  0.0693 -0.5663  0.1967
   31MOL   C45919719   1.141   0.610   4.352  0.8164  0.0560  0.0049
   31MOL   C46019720   1.206   0.592   4.215  0.3975 -1.0984  0.7621
   31MOL   C46119721   1.330   0.677   4.197  0.2191 -0.0152 -0.0859
   31MOL   C46219722   1.400   0.636   4.070  1.0257 -0.1993  0.1827
   31MOL   N46319723   1.528   0.701   4.050  0.2694  0.4431  0.1672
   31MOL   H46419724   1.248   0.782   5.036 -1.8891  0.8697  4.0067
   31MOL   H46519725   1.209   0.609   5.069  0.4034  0.7738  0.3290
   31MOL   H46619726   1.122   0.563   4.851 -2.1547  0.6976  0.4113
   31MOL   H46719727   1.137   0.725   4.791  4.5897  1.8626 -0.7721
   31MOL   H46819728   1.385   0.577   4.885  0.3648 -0.6281 -1.4342
   31MOL   H46919729   1.367   0.734   4.799 -0.2287 -0.0472  0.2913
   31MOL   H47019730   1.295   0.457   4.685 -1.0184  0.4277 -1.2123
   31MOL   H47119731   1.451   0.546   4.662 -0.5660  3.8083 -0.7943
   31MOL   H47219732   1.210   0.450   4.474 -1.1534 -0.5874 -1.9903
   31MOL   H47319733   1.104   0.709   4.379  0.6155 -0.0728  0.1995
   31MOL   H47419734   1.038   0.575   4.353  0.1504  1.9469 -0.5684
   31MOL   H47519735   1.232   0.487   4.226 -1.3334 -1.4173  2.0472
   31MOL   H47619736   1.134   0.614   4.137 -0.6397 -0.7708  1.8033
   31MOL   H47719737   1.398   0.667   4.282  1.4688 -2.5193 -1.3378
   31MOL   H47819738   1.298   0.781   4.194 -0.1257 -0.0706  1.3334
   31MOL   H47919739   1.336   0.650   3.983  0.3310  0.7602  0.8417
   31MOL   H48019740   1.413   0.528   4.074 -0.7721 -0.4964 -1.4586
   31MOL   H48119741   1.546   0.777   3.986 -0.8069  0.4395 -0.1346
   31MOL   C48219742   1.636   0.657   4.122 -0.5581  0.4900  0.4198
   31MOL   O48319743   1.639   0.572   4.212  0.0353  0.0705  0.2042
   31MOL   C48419744   1.767   0.710   4.073  0.3399 -0.2783 -0.0458
   31MOL   C48519745   1.861   0.612   3.996 -0.2914  0.8352 -0.7311
   31MOL   C48619746   1.926   0.493   4.082  0.4235  0.1691  0.1064
   31MOL   C48719747   2.042   0.439   4.001  0.0791  0.4668  0.1321
   31MOL   C48819748   2.162   0.400   4.081  0.1688  0.9349 -0.2462
   31MOL   O48919749   2.204   0.461   4.180 -0.2352 -0.2524 -0.0899
   31MOL   N49019750   2.224   0.283   4.047  0.4146 -0.4832 -1.0645
   31MOL   C49119751   2.324   0.226   4.132  0.0203  0.6072 -0.9539
   31MOL   C49219752   2.424   0.127   4.073  0.7577  0.4667 -0.2917
   31MOL   C49319753   2.550   0.101   4.157 -0.0050  0.1682  0.2850
   31MOL   C49419754   2.534   0.007   4.280  0.0410 -0.1254 -0.0476
   31MOL   N49519755   2.655   7.691   4.358  0.4196 -0.8181 -0.2873
   31MOL   H49619756   1.739   0.795   4.011 -1.9053 -1.9718 -1.4627
   31MOL   H49719757   1.829   0.753   4.151  1.0297  0.2221 -0.8693
   31MOL   H49819758   1.811   0.559   3.915 -0.3926  0.8427 -0.6738
   31MOL   H49919759   1.943   0.677   3.966 -0.1582  2.7116  3.3227
   31MOL   H50019760   1.848   0.418   4.096  1.0603 -0.5600 -0.2491
   31MOL   H50119761   1.956   0.524   4.181  0.3842  0.5439  0.0007
   31MOL   H50219762   2.086   0.513   3.935 -2.4349  2.5054  0.6296
   31MOL   H50319763   2.009   0.356   3.938 -2.9351  0.2667  1.8443
   31MOL   H50419764   2.231   0.267   3.947  2.3322  0.4446 -1.1051
   31MOL   H50519765   2.276   0.193   4.224  0.1373 -0.1701 -1.1675
   31MOL   H50619766   2.388   0.311   4.154  0.8662 -0.4982  0.9952
   31MOL   H50719767   2.372   0.032   4.060 -2.2410  1.9810  0.1988
   31MOL   H50819768   2.464   0.153   3.975  1.2551 -1.5590 -0.6346
   31MOL   H50919769   2.585   0.200   4.184  1.2627  0.1426 -1.2067
   31MOL   H51019770   2.628   0.057   4.095  1.2567  3.2398 -0.3702
   31MOL   H51119771   2.499   7.607   4.257 -0.6968  0.0625  0.2293
   31MOL   H51219772   2.451   0.045   4.341  0.7504 -0.3273  1.0644
   31MOL   H51319773   2.722   0.061   4.333 -1.5495  1.5634  1.0505
   31MOL   C51419774   2.684   7.596   4.445 -0.3933 -0.0276 -0.4212
   31MOL   O51519775   2.608   7.514   4.493 -0.4840 -0.0601  0.7153
   31MOL   C51619776   2.839   7.582   4.478  0.1113 -0.0734 -0.4047
   31MOL   C51719777   2.866   7.611   4.625  0.8839 -0.1610  1.3492
   31MOL   C51819778   2.984   7.537   4.686 -0.3154 -0.2567  0.5449
   31MOL   C51919779   3.020   7.581   4.831  0.2472 -0.0794 -0.4091
   31MOL   C52019780   2.937   7.509   4.932 -0.0290  0.5310 -0.3466
   31MOL   O52119781   2.953   7.393   4.964  0.1398  0.1647  0.0723
   31MOL   N52219782   2.834   7.582   4.983 -0.1149  0.4082 -0.0822
   31MOL   C52319783   2.715   7.537   5.055 -0.2395 -0.3296 -0.1619
   31MOL   C52419784   2.576   7.561   4.990  0.1567 -0.2526 -0.0236
   31MOL   C52519785   2.558   7.469   4.867 -0.2958  0.1309  0.2209
   31MOL   C52619786   2.422   7.454   4.801 -0.8375  0.2423 -0.6576
   31MOL   N52719787   2.398   7.317   4.739  0.1292 -0.4270  0.3287
   31MOL   H52819788   2.874   7.481   4.455 -1.3264 -0.9273  1.0692
   31MOL   H52919789   2.896   7.656   4.421  1.6728 -1.6610 -0.9476
   31MOL   H53019790   2.870   0.018   4.637 -2.0437  0.1553 -0.0089
   31MOL   H53119791   2.781   7.596   4.692 -0.1048  1.9352  0.6056
   31MOL   H53219792   3.070   7.563   4.624 -1.4249  1.4500 -0.3343
   31MOL   H53319793   2.978   7.428   4.689 -2.0406 -0.1547  1.4256
   31MOL   H53419794   3.014   7.688   4.852 -0.9997  0.1236 -1.7463
   31MOL   H53519795   3.115   7.531   4.852 -0.6083 -1.4001  0.4196
   31MOL   H53619796   2.841   7.680   4.959 -0.9844  0.8058  1.2958
   31MOL   H53719797   2.726   7.585   5.152  2.3411  2.4974 -1.7965
   31MOL   H53819798   2.727   7.431   5.081 -1.9809 -1.6085 -4.1353
   31MOL   H53919799   2.500   7.533   5.063  0.1017 -1.1001 -0.4001
   31MOL   H54019800   2.559   7.666   4.970 -2.7427 -0.7381 -0.2730
   31MOL   H54119801   2.598   7.371   4.895  0.2802  0.6227  1.1464
   31MOL   H54219802   2.637   7.495   4.797 -0.0843 -1.3240 -0.1005
   31MOL   H54319803   2.414   7.521   4.715  2.2621 -1.2735 -2.2102
   31MOL   H54419804   2.349   7.470   4.880 -1.1101 -0.4079 -0.7730
   31MOL   H54519805   2.478   7.257   4.751 -0.1231 -0.6884  0.7166
   31MOL   C54619806   2.279   7.271   4.688 -0.0000 -0.5146  0.4393
   31MOL   O54719807   2.178   7.334   4.686 -0.0764 -0.1964  0.2158
   31MOL   C54819808   2.279   7.133   4.625  0.7657 -0.6146 -0.2991
   31MOL   C54919809   2.179   7.107   4.513  0.1852  0.4567  0.6799
   31MOL   C55019810   2.200   6.956   4.469 -0.1625  0.1830  0.0735
   31MOL   C55119811   2.115   6.920   4.340 -0.3487 -0.2089  0.0804
   31MOL   C55219812   2.169   6.783   4.290  0.6464  0.5359  0.5823
   31MOL   O55319813   2.164   6.685   4.360 -0.5538  0.4961 -0.0524
   31MOL   N55419814   2.217   6.785   4.165  0.0581 -0.0035 -0.0466
   31MOL   C55519815   2.273   6.672   4.086  0.5086  0.4940 -1.1544
   31MOL   C55619816   2.419   6.632   4.120  0.2541 -0.2015 -0.1896
   31MOL   C55719817   2.515   6.750   4.099 -0.2734 -0.0267  0.5374
   31MOL   C55819818   2.655   6.736   4.161 -0.1853  0.4938  0.0569
   31MOL   N55919819   2.731   6.858   4.140  0.2535 -0.4929 -0.1006
   31MOL   H56019820   2.381   7.108   4.594  0.2489 -2.2866 -0.7206
   31MOL   H56119821   2.255   7.074   4.714  1.7960 -0.1628  0.2931
   31MOL   H56219822   2.077   7.124   4.548  1.2543  3.5212  2.4532
   31MOL   H56319823   2.217   7.164   4.428  0.2264 -0.5455  0.0148
   31MOL   H56419824   2.166   6.883   4.542 -0.8549  1.9844  1.5897
   31MOL   H56519825   2.307   6.939   4.458 -0.1197 -1.1286  2.3624
   31MOL   H56619826   2.132   6.989   4.258 -0.5794 -0.9540 -0.6004
   31MOL   H56719827   2.009   6.904   4.357 -0.2186 -0.1767  0.9572
   31MOL   H56819828   2.210   6.871   4.112 -1.0141 -0.1293 -0.1176
   31MOL   H56919829   2.265   6.694   3.980 -1.1989 -0.2751 -1.2065
   31MOL   H57019830   2.218   6.580   4.104  0.2073  1.1498  1.5331
   31MOL   H57119831   2.426   6.587   4.219  1.6935  2.3987  0.9457
   31MOL   H57219832   2.448   6.563   4.040  0.1019  1.2179 -1.4902
   31MOL   H57319833   2.480   6.840   4.150  0.3819  0.1166  0.7407
   31MOL   H57419834   2.514   6.779   3.994 -1.2414  0.3916  0.6575
   31MOL   H57519835   2.708   6.648   4.125  1.2124  0.7849  1.3606
   31MOL   H57619836   2.629   6.718   4.266 -0.4506  0.8175  0.0444
   31MOL   H57719837   2.688   6.949   4.146 -0.7451 -1.0581  1.6645
   31MOL   C57819838   2.860   6.865   4.128 -0.3289 -0.2906 -0.2371
   31MOL   O57919839   2.931   6.768   4.139  0.4269  0.0101 -0.2080
   31MOL   C58019840   2.919   7.005   4.122 -0.2753 -0.1130  0.4853
   31MOL   C58119841   3.017   7.023   4.013 -0.3922 -0.0447  0.2265
   31MOL   C58219842   3.107   7.153   4.028 -0.2779 -0.5478 -0.2659
   31MOL   C58319843   3.203   7.166   3.909  0.2923 -0.3579 -0.2380
   31MOL   C58419844   3.143   7.203   3.780  0.2072 -0.5272 -0.0701
   31MOL   O58519845   3.026   7.244   3.767  0.0431  0.3458  0.1354
   31MOL   N58619846   3.228   7.192   3.673 -0.0686  0.5240 -0.2539
   31MOL   C58719847   3.211   7.258   3.544 -0.2965  0.3998 -0.1789
   31MOL   C58819848   3.326   7.227   3.450  0.3002 -0.0273 -0.0875
   31MOL   C58919849   3.337   7.074   3.415 -0.5517  0.4375 -0.7450
   31MOL   C59019850   3.232   7.021   3.320 -0.3538 -0.1869 -0.0299
   31MOL   N59119851   3.265   6.885   3.269  0.5273 -0.1976 -0.5747
   31MOL   H59219852   2.835   7.072   4.103 -1.0518 -1.7907 -2.3060
   31MOL   H59319853   2.969   7.043   4.211 -0.3870  1.6548 -0.2034
   31MOL   H59419854   3.081   6.935   4.011  0.6628  0.7051  0.6780
   31MOL   H59519855   2.969   7.032   3.915  0.6266  0.9778 -0.1839
   31MOL   H59619856   3.161   7.137   4.121  0.6762  1.8067 -0.3762
   31MOL   H59719857   3.042   7.241   4.035 -0.4724 -0.7913  1.0166
   31MOL   H59819858   3.259   7.074   3.892  0.0108 -0.5676 -0.0309
   31MOL   H59919859   3.281   7.240   3.926  1.2686 -1.1135 -1.3803
   31MOL   H60019860   3.319   7.163   3.705 -0.6841 -1.5977 -0.3471
   31MOL   H60119861   3.209   7.364   3.571  3.4797  0.5331 -0.1048
   31MOL   H60219862   3.111   7.230   3.511 -0.3050 -0.4721  0.5931
   31MOL   H60319863   3.297   7.287   3.363 -2.3088  0.9712  1.4045
   31MOL   H60419864   3.420   7.270   3.484  1.0231 -2.2175  0.7445
   31MOL   H60519865   3.346   7.008   3.501 -0.7207 -0.1286 -1.1568
   31MOL   H60619866   3.434   7.055   3.369  0.0352  0.9443  0.2667
   31MOL   H60719867   3.240   7.085   3.232 -0.7700  0.8302  0.6558
   31MOL   H60819868   3.137   7.033   3.372  0.6138 -2.4913  2.3937
   31MOL   H60919869   3.351   6.872   3.218  0.6379  1.9688 -0.9613
   31MOL   C61019870   3.166   6.793   3.266 -0.1442  0.0159  0.2499
   31MOL   O61119871   3.059   6.816   3.323 -0.1383 -0.2395  0.2650
   31MOL   C61219872   3.202   6.663   3.201 -0.3258  0.0724  0.2888
   31MOL   C61319873   3.125   6.538   3.252  0.9557 -0.4801  0.1771
   31MOL   C61419874   3.163   6.497   3.395  0.5889 -0.3309 -0.3600
   31MOL   C61519875   3.095   6.367   3.437  0.8084  0.6903  0.3809
   31MOL   C61619876   3.155   6.289   3.548  0.3518 -0.2668  0.7028
   31MOL   O61719877   3.267   6.236   3.524  0.1713 -0.4208  0.6792
   31MOL   N61819878   3.078   6.280   3.660 -0.0239 -0.3427  0.2319
   31MOL   C61919879   3.126   6.192   3.768 -0.2667  0.2975 -0.5865
   31MOL   C62019880   3.084   6.249   3.897  0.4293  0.1779  0.1572
   31MOL   C62119881   3.137   6.389   3.932 -0.4432  0.1602 -0.4853
   31MOL   C62219882   3.049   6.457   4.037 -0.3738 -0.3098 -0.2944
   31MOL   N62319883   3.116   6.572   4.096  0.9641  0.2244 -0.7332
   31MOL   H62419884   3.208   6.665   3.092  0.6235 -0.2555  0.3320
   31MOL   H62519885   3.309   6.648   3.215 -0.0328  0.4725 -1.3446
   31MOL   H62619886   3.017   6.551   3.250  1.2938  2.3355 -1.9614
   31MOL   H62719887   3.144   6.457   3.182  1.7611 -1.4767  1.5196
   31MOL   H62819888   3.150   6.572   3.472  0.1259 -0.2041 -0.5619
   31MOL   H62919889   3.271   6.488   3.395  0.4644 -2.0701  0.6784
   31MOL   H63019890   3.083   6.306   3.348  0.6276 -0.8546  1.4373
   31MOL   H63119891   2.990   6.394   3.453  1.3121  3.2099 -0.3785
   31MOL   H63219892   2.987   6.323   3.664 -0.0183 -0.3880  0.8031
   31MOL   H63319893   3.235   6.181   3.769 -0.4947 -2.0718  1.2873
   31MOL   H63419894   3.078   6.095   3.762  0.9271 -0.2945 -0.8126
   31MOL   H63519895   2.975   6.243   3.890  0.4789 -1.1911  0.4340
   31MOL   H63619896   3.123   6.186   3.976  1.5050 -0.1632 -0.6340
   31MOL   H63719897   3.133   6.453   3.844  0.3675  1.1237  0.1731
   31MOL   H63819898   3.236   6.388   3.978 -2.0070 -0.5922  3.0259
   31MOL   H63919899   3.025   6.386   4.116 -0.0145 -0.0143  0.0867
   31MOL   H64019900   2.949   6.478   3.999 -0.1358 -2.7539 -2.4092
   31MOL   H64119901   3.047   6.636   4.132  3.2629  1.6424  1.2279
   31MOL   H64219902   3.157   6.634   4.028  0.8340  1.2819  0.1546
   32MOL     C119903   6.215   7.533   2.940 -0.6930 -0.3908  0.1519
   32MOL     O219904   6.105   7.489   2.978  0.0143 -0.1046 -0.2186
   32MOL     C319905   6.283   7.481   2.812  0.1080  0.7685  0.2660
   32MOL     C419906   6.245   7.327   2.771 -0.0635 -0.0756 -0.3255
   32MOL     C519907   6.319   7.269   2.652  0.7198 -0.0424 -0.5417
   32MOL     C619908   6.338   7.114   2.655  0.6388  0.5887 -0.4744
   32MOL     C719909   6.448   7.051   2.751 -0.3253  0.3561 -0.2891
   32MOL     O819910   6.484   7.119   2.850 -0.5073 -0.3055 -0.0877
   32MOL     N919911   6.484   6.931   2.716 -0.2161  0.2124  0.3763
   32MOL    C1019912   6.593   6.854   2.772 -0.2476  0.2367 -0.0045
   32MOL    C1119913   6.567   6.713   2.834  0.6468 -0.7184 -0.3443
   32MOL    C1219914   6.535   6.712   2.989  0.1128 -0.0313  0.4518
   32MOL    C1319915   6.395   6.767   3.024  0.1079 -0.1358 -0.2648
   32MOL    N1419916   6.279   6.683   2.984  0.0434 -0.2800 -0.4764
   32MOL    H1519917   6.264   7.547   2.727  1.4495 -1.8510 -2.1386
   32MOL    H1619918   6.389   7.483   2.839  0.1730  0.7089  0.0129
   32MOL    H1719919   6.271   7.267   2.858 -0.0363  2.7442  1.6871
   32MOL    H1819920   6.138   7.311   2.759 -0.1385  0.3747 -0.2547
   32MOL    H1919921   6.416   7.319   2.646  1.9687 -2.1488  1.1386
   32MOL    H2019922   6.267   7.289   2.559 -0.8152 -0.3732  0.2361
   32MOL    H2119923   6.380   7.093   2.557  0.8892  1.3310 -0.5300
   32MOL    H2219924   6.249   7.055   2.673 -0.7086  3.0754  1.3700
   32MOL    H2319925   6.424   6.903   2.639 -1.0664  1.4200  0.5794
   32MOL    H2419926   6.656   6.910   2.841  2.0316 -2.5368  0.2457
   32MOL    H2519927   6.663   6.842   2.689 -0.1627  2.6732 -0.3176
   32MOL    H2619928   6.494   6.654   2.777  0.9161 -0.5311 -0.8904
   32MOL    H2719929   6.654   6.647   2.826  0.8323 -0.4479 -0.5787
   32MOL    H2819930   6.603   6.779   3.041  2.3563 -1.0951 -0.9718
   32MOL    H2919931   6.537   6.615   3.040 -1.7195  0.3838  1.3350
   32MOL    H3019932   6.380   6.864   2.978  0.9353 -0.9252 -2.2489
   32MOL    H3119933   6.395   6.776   3.133 -1.0484  3.3151 -0.4851
   32MOL    H3219934   6.210   6.721   2.921 -2.5320  0.2367  2.5291
   32MOL    H3319935   6.269   7.606   3.001  4.2653 -1.7841 -2.3200
   32MOL    C3419936   6.241   6.572   3.043  0.2796  0.2273 -0.7448
   32MOL    O3519937   6.316   6.509   3.117  0.0349 -0.4338 -0.8664
   32MOL    C3619938   6.103   6.516   3.014  0.1507  0.2808 -0.0295
   32MOL    C3719939   6.107   6.381   2.939  0.5697 -0.6404 -0.4831
   32MOL    C3819940   6.157   6.392   2.798  0.5926 -0.0236  0.2157
   32MOL    C3919941   6.059   6.466   2.700  0.8055  0.7709 -0.4358
   32MOL    C4019942   6.046   6.396   2.567 -0.1352 -0.3439 -0.1000
   32MOL    O4119943   6.123   6.315   2.519  0.8832  0.7003  0.2786
   32MOL    N4219944   5.929   6.429   2.510 -0.6098  0.1858  0.2865
   32MOL    C4319945   5.876   6.384   2.389 -0.1503  0.1462  0.0671
   32MOL    C4419946   5.848   6.225   2.395 -0.4681  0.6261  0.7195
   32MOL    C4519947   5.750   6.169   2.283 -0.3762  0.7318 -0.0962
   32MOL    C4619948   5.735   6.016   2.282  0.0430 -0.6299 -0.1006
   32MOL    N4719949   5.692   5.974   2.415 -0.1637  0.3671  0.2112
   32MOL    H4819950   6.051   6.505   3.110 -0.2400  0.7071 -0.1943
   32MOL    H4919951   6.053   6.591   2.953 -3.2921 -0.7499  1.4047
   32MOL    H5019952   6.167   6.309   2.993 -0.1864 -0.2633  0.8854
   32MOL    H5119953   6.001   6.359   2.949  0.9105 -3.2647 -2.2143
   32MOL    H5219954   6.159   6.286   2.773 -2.0903  0.6296 -3.0220
   32MOL    H5319955   6.253   6.442   2.783  0.2721  1.1147  1.8401
   32MOL    H5419956   6.116   6.555   2.671  0.0987  1.6824  0.9234
   32MOL    H5519957   5.967   6.504   2.744  1.6289  2.5546 -0.1955
   32MOL    H5619958   5.867   6.487   2.564  1.2393 -0.2513  3.0193
   32MOL    H5719959   5.944   6.403   2.306  1.2178 -2.3958  0.5336
   32MOL    H5819960   5.779   6.430   2.374 -1.6734 -2.2667  2.1334
   32MOL    H5919961   5.945   6.179   2.376 -0.8997 -0.3946  0.9862
   32MOL    H6019962   5.807   6.193   2.491  0.1355  0.7067  1.0129
   32MOL    H6119963   5.766   6.201   2.180  0.2087 -2.5563 -1.1185
   32MOL    H6219964   5.655   6.214   2.311 -0.4795 -1.4063  3.3104
   32MOL    H6319965   5.834   5.983   2.250  0.5209  1.1948 -0.6023
   32MOL    H6419966   5.669   5.990   2.199  0.8073  1.8140 -1.5388
   32MOL    H6519967   5.621   6.031   2.459  0.6457  4.2077 -3.1553
   32MOL    C6619968   5.718   5.853   2.468 -0.4740  0.0992 -1.0729
   32MOL    O6719969   5.791   5.766   2.408  0.4307 -0.7854  0.4091
   32MOL    C6819970   5.645   5.818   2.605 -0.1242 -0.5990  0.9837
   32MOL    C6919971   5.697   5.674   2.653  0.6742 -0.8188 -0.8481
   32MOL    C7019972   5.618   5.619   2.773  0.4185 -0.5677  0.3425
   32MOL    C7119973   5.679   5.662   2.904  0.1316 -0.0117  0.5476
   32MOL    C7219974   5.678   5.811   2.938 -0.1292 -0.3475 -0.3472
   32MOL    O7319975   5.572   5.870   2.959 -0.1610  0.3013 -0.6657
   32MOL    N7419976   5.794   5.875   2.966 -0.1310 -0.0918  0.4446
   32MOL    C7519977   5.822   6.002   3.043  0.1378 -0.4128 -0.1915
   32MOL    C7619978   5.837   6.127   2.944 -0.0834 -0.3331 -0.7063
   32MOL    C7719979   5.718   6.155   2.846  0.0344  0.2891  0.6800
   32MOL    C7819980   5.731   6.289   2.759  0.2778  0.2281 -0.0696
   32MOL    N7919981   5.725   6.406   2.847 -0.7558 -0.0947  0.1083
   32MOL    H8019982   5.670   5.898   2.675 -0.5450  2.1281 -1.8799
   32MOL    H8119983   5.538   5.813   2.586  0.2714 -2.7905 -0.9586
   32MOL    H8219984   5.679   5.598   2.578 -1.7689 -2.3679  1.2323
   32MOL    H8319985   5.801   5.691   2.679  0.0919  0.0319  1.0522
   32MOL    H8419986   5.617   5.510   2.776 -0.6037 -0.5846 -0.6368
   32MOL    H8519987   5.515   5.655   2.770  0.2282 -1.2763 -2.8241
   32MOL    H8619988   5.785   5.637   2.910  0.6721  1.8522 -0.9354
   32MOL    H8719989   5.633   5.607   2.986  1.2521  1.9236  2.5185
   32MOL    H8819990   5.881   5.832   2.938 -0.2129 -0.2307  0.4026
   32MOL    H8919991   5.902   5.985   3.115 -0.8143 -1.5745  0.5903
   32MOL    H9019992   5.734   6.016   3.105  0.0202  2.3401 -0.8962
   32MOL    H9119993   5.853   6.210   3.014  2.0731  0.3966 -2.0058
   32MOL    H9219994   5.939   6.127   2.904  1.2414 -0.5020  2.4408
   32MOL    H9319995   5.622   6.145   2.896 -0.2948 -1.1086 -0.1903
   32MOL    H9419996   5.705   6.069   2.780 -1.8131 -1.1656  2.8664
   32MOL    H9519997   5.652   6.300   2.685  1.8486  0.3629 -1.7318
   32MOL    H9619998   5.820   6.283   2.698 -0.0704 -0.7540 -0.5026
   32MOL    H9719999   5.721   6.385   2.946  0.4668 -1.3699 -0.0970
   32MOL    C9820000   5.720   6.536   2.812 -0.2091  0.0076 -0.7143
   32MOL    O9920001   5.726   6.580   2.693 -0.3430  0.0471  0.2560
   32MOL   C10020002   5.705   6.638   2.925 -0.1740 -0.5106 -0.1720
   32MOL   C10120003   5.633   6.769   2.883  0.1239 -0.1199 -0.4837
   32MOL   C10220004   5.607   6.855   3.013  0.0217  0.4028  0.3685
   32MOL   C10320005   5.555   6.989   2.967  0.5325 -0.7144  0.2864
   32MOL   C10420006   5.651   7.104   2.921  0.3472  0.4261  0.0652
   32MOL   O10520007   5.756   7.083   2.860  0.6411 -0.1157  0.3129
   32MOL   N10620008   5.610   7.233   2.945 -0.3158 -0.5682 -0.6100
   32MOL   C10720009   5.486   7.286   2.990 -0.3329 -0.6998  0.2428
   32MOL   C10820010   5.421   7.368   2.870 -0.6131 -0.7620  0.1579
   32MOL   C10920011   5.507   7.474   2.792 -0.0266  0.1228  0.3809
   32MOL   C11020012   5.424   7.570   2.703  0.2596 -0.0204 -0.4055
   32MOL   N11120013   5.308   7.509   2.631 -0.0973  0.3774 -0.0254
   32MOL   H11220014   5.655   6.588   3.007 -0.6644 -2.8366 -1.8380
   32MOL   H11320015   5.798   6.680   2.963  0.4127 -2.3244  0.3986
   32MOL   H11420016   5.692   6.819   2.806 -3.0507  2.0225 -1.6297
   32MOL   H11520017   5.533   6.749   2.845 -0.4448 -0.6429  1.2508
   32MOL   H11620018   5.700   6.865   3.069  0.1082  0.9126  0.1398
   32MOL   H11720019   5.542   6.797   3.079  0.3819 -0.9629 -0.4589
   32MOL   H11820020   5.494   7.022   3.051  0.4546  1.2044 -0.4953
   32MOL   H11920021   5.480   6.971   2.890  0.3338 -1.2863  0.6075
   32MOL   H12020022   5.682   7.302   2.927  0.9707 -2.1236 -1.6388
   32MOL   H12120023   5.516   7.356   3.068 -0.9786  0.1424 -0.2403
   32MOL   H12220024   5.412   7.214   3.023 -1.1578  0.1551  0.2894
   32MOL   H12320025   5.381   7.293   2.801 -1.3423  1.2424 -1.6879
   32MOL   H12420026   5.328   7.421   2.893 -1.1726 -0.8247 -1.8087
   32MOL   H12520027   5.583   7.426   2.731  0.0487 -1.4142  1.6567
   32MOL   H12620028   5.578   7.531   2.852  1.9184 -2.3529  0.5274
   32MOL   H12720029   5.492   7.615   2.630 -0.2715  3.4436  1.1439
   32MOL   H12820030   5.390   7.656   2.759  1.0371  1.8424 -2.6926
   32MOL   H12920031   5.253   7.434   2.670 -0.5097 -0.0752 -1.4249
   32MOL   C13020032   5.284   7.523   2.501 -0.0803 -0.0687 -0.4204
   32MOL   O13120033   5.341   7.597   2.421  0.0317 -0.1940 -0.2964
   32MOL   C13220034   5.165   7.442   2.442  0.3124 -0.0846  0.5537
   32MOL   C13320035   5.127   7.478   2.295 -0.6691  0.3721 -0.0784
   32MOL   C13420036   5.068   7.621   2.277 -0.1013  0.0963  0.1886
   32MOL   C13520037   5.021   7.653   2.136  0.1341  0.8795  0.1721
   32MOL   C13620038   5.137   7.670   2.038 -0.9789 -0.7331 -0.2918
   32MOL   O13720039   5.244   0.012   2.076  0.5526 -0.4814  0.0768
   32MOL   N13820040   5.127   7.611   1.921  0.0229  0.6377  0.4180
   32MOL   C13920041   5.224   7.613   1.811 -1.0516 -0.0447  0.3980
   32MOL   C14020042   5.181   7.515   1.704 -0.1044 -0.0022  0.1367
   32MOL   C14120043   5.282   7.511   1.590 -0.2091 -0.7276  0.5946
   32MOL   C14220044   5.245   7.416   1.478  0.3786  0.3943  0.7208
   32MOL   N14320045   5.121   7.457   1.414  0.7157 -0.2519  0.0348
   32MOL   H14420046   5.194   7.337   2.440 -1.8464 -0.6995  0.0307
   32MOL   H14520047   5.078   7.442   2.508 -1.8746  0.2750 -2.2199
   32MOL   H14620048   5.212   7.475   2.226 -1.4729  3.4805 -1.2871
   32MOL   H14720049   5.056   7.404   2.257 -0.5485  1.2912 -2.1469
   32MOL   H14820050   5.149   7.687   2.307  1.1556 -1.1281 -0.4388
   32MOL   H14920051   4.981   7.627   2.342 -1.2380 -1.2915 -1.1709
   32MOL   H15020052   4.974   0.050   2.130 -2.1886 -0.3357 -2.1635
   32MOL   H15120053   4.951   7.581   2.095 -1.2914  2.4016 -0.1071
   32MOL   H15220054   5.038   7.573   1.891 -0.2015  1.5818 -0.1707
   32MOL   H15320055   5.319   7.569   1.843  0.4946  1.8374 -1.4363
   32MOL   H15420056   5.239   0.010   1.766  2.5474 -1.3418 -1.3891
   32MOL   H15520057   5.181   7.419   1.756 -2.3015  0.2660  0.7037
   32MOL   H15620058   5.084   7.541   1.660  1.4158  2.2199 -2.0127
   32MOL   H15720059   5.382   7.483   1.624  1.1438  0.3101 -2.3377
   32MOL   H15820060   5.289   7.612   1.551  3.2881  0.0725  3.0363
   32MOL   H15920061   5.245   7.316   1.523  1.2425 -0.2204 -0.6291
   32MOL   H16020062   5.321   7.422   1.400  0.0313 -0.6359  0.2927
   32MOL   H16120063   5.134   7.546   1.368  1.0414 -0.0204  0.5732
   32MOL   C16220064   5.014   7.377   1.382 -0.1587  0.2892 -0.0945
   32MOL   O16320065   4.995   7.278   1.448 -0.5618  0.8679 -0.4991
   32MOL   C16420066   4.928   7.422   1.269  0.1439 -0.1437 -0.0946
   32MOL   C16520067   4.822   7.318   1.234  0.5405 -0.0608 -0.2980
   32MOL   C16620068   4.709   7.318   1.334  0.6019  0.2037  0.0970
   32MOL   C16720069   4.618   7.192   1.313 -0.1806  0.4219  0.6171
   32MOL   C16820070   4.489   7.189   1.392 -0.2741  0.7386 -0.2771
   32MOL   O16920071   4.448   7.285   1.465 -0.3221 -0.1491 -0.3396
   32MOL   N17020072   4.405   7.078   1.379 -0.9788  0.1461 -0.8204
   32MOL   C17120073   4.278   7.061   1.448  0.0025 -0.1676  0.2232
   32MOL   C17220074   4.205   6.926   1.420 -0.1045 -1.1247 -0.6100
   32MOL   C17320075   4.084   6.901   1.512 -0.3590  0.0204 -1.0508
   32MOL   C17420076   3.988   7.020   1.521  0.3448 -0.5431 -0.3319
   32MOL   N17520077   3.870   6.986   1.597 -0.2748 -0.1830 -0.2557
   32MOL   H17620078   4.889   7.523   1.276  0.5079  0.0437 -0.7260
   32MOL   H17720079   4.999   7.419   1.187 -0.5808  3.3564 -0.9286
   32MOL   H17820080   4.772   7.347   1.141 -0.1404  0.6119  0.2612
   32MOL   H17920081   4.871   7.223   1.213 -0.8239 -0.6492 -0.9319
   32MOL   H18020082   4.639   7.395   1.301 -0.1855  0.4557  2.2550
   32MOL   H18120083   4.745   7.332   1.436 -0.8740  0.5433  0.5878
   32MOL   H18220084   4.676   7.104   1.339  0.9916  0.1115 -2.7804
   32MOL   H18320085   4.604   7.183   1.205  0.7502  0.9582  0.4438
   32MOL   H18420086   4.425   7.013   1.305 -1.0745 -2.6927  1.5696
   32MOL   H18520087   4.207   7.136   1.411  0.2521 -0.7590 -1.5166
   32MOL   H18620088   4.298   7.090   1.551  0.0920 -1.4136  0.5667
   32MOL   H18720089   4.192   6.919   1.311 -0.6181  0.7322 -0.6819
   32MOL   H18820090   4.273   6.843   1.437  0.6185 -0.5672 -0.7623
   32MOL   H18920091   4.107   6.867   1.613  1.1373 -2.4726 -2.1824
   32MOL   H19020092   4.038   6.812   1.467 -0.5681 -1.0330  1.1571
   32MOL   H19120093   3.958   7.065   1.427 -0.4787 -0.9028 -0.2469
   32MOL   H19220094   4.035   7.106   1.568 -1.8189  0.5660 -0.1829
   32MOL   H19320095   3.840   7.047   1.671 -0.9231 -0.7094 -0.0803
   32MOL   C19420096   3.770   6.916   1.541 -0.3178 -0.1860 -0.3252
   32MOL   O19520097   3.779   6.861   1.429  0.2735 -0.4396 -0.0993
   32MOL   C19620098   3.641   6.906   1.614 -0.3855 -0.4518  0.2726
   32MOL   C19720099   3.595   6.763   1.646 -1.0945 -0.4331 -0.0099
   32MOL   C19820100   3.703   6.688   1.733  0.6963  0.2684 -0.7966
   32MOL   C19920101   3.652   6.545   1.762 -0.3561 -0.3108 -0.4349
   32MOL   C20020102   3.620   6.447   1.649  0.2743  0.4798 -0.4165
   32MOL   O20120103   3.687   6.451   1.545 -0.4010  0.7706 -0.3142
   32MOL   N20220104   3.511   6.371   1.673 -0.1689 -0.0951  0.2017
   32MOL   C20320105   3.451   6.281   1.574  0.3571  0.2762 -0.3514
   32MOL   C20420106   3.364   6.175   1.649  0.0477 -0.5669  0.1842
   32MOL   C20520107   3.341   6.036   1.594  0.0458  0.2935  0.1806
   32MOL   C20620108   3.293   5.945   1.711  0.1529 -0.0171  0.1661
   32MOL   N20720109   3.270   5.807   1.670  0.1914 -0.3106  0.1727
   32MOL   H20820110   3.640   6.959   1.709 -1.0019 -1.8293  1.0479
   32MOL   H20920111   3.558   6.960   1.568  0.6617  1.1600  0.2430
   32MOL   H21020112   3.501   6.766   1.701 -0.6153 -0.3740  0.8215
   32MOL   H21120113   3.584   6.707   1.553 -2.4446  0.0801 -0.1669
   32MOL   H21220114   3.725   6.736   1.828 -0.4792  1.1225 -0.9456
   32MOL   H21320115   3.793   6.682   1.672  0.4569 -1.6196 -1.0015
   32MOL   H21420116   3.558   6.552   1.817 -1.8271 -1.2158 -2.7774
   32MOL   H21520117   3.711   6.493   1.838 -0.1387  1.1195  0.4027
   32MOL   H21620118   3.450   6.395   1.750  0.8693 -1.3226  1.4408
   32MOL   H21720119   3.523   6.217   1.524 -0.5295 -0.1017 -1.1561
   32MOL   H21820120   3.398   6.326   1.491  0.3375 -0.6227 -0.8266
   32MOL   H21920121   3.422   6.161   1.740  0.1102  0.0927  0.2500
   32MOL   H22020122   3.269   6.227   1.667 -0.8711 -2.3778  0.7027
   32MOL   H22120123   3.429   6.000   1.542 -0.1756  1.3197 -0.9221
   32MOL   H22220124   3.264   6.034   1.518  1.0389  1.1121 -0.8564
   32MOL   H22320125   3.197   5.974   1.755 -0.6116  0.1081 -1.5503
   32MOL   H22420126   3.367   5.947   1.791 -1.1482 -0.0613  1.3903
   32MOL   H22520127   3.190   5.800   1.609  1.9376  2.1694 -2.5590
   32MOL   C22620128   3.329   5.702   1.724 -0.8285  0.3584  0.5803
   32MOL   O22720129   3.428   5.712   1.796  0.2376  0.1417  0.3322
   32MOL   C22820130   3.279   5.563   1.687 -0.5117 -0.5021  0.2769
   32MOL   C22920131   3.354   5.508   1.566  0.0069 -0.0764  0.2977
   32MOL   C23020132   3.284   5.535   1.428  0.2964  0.3818  0.1521
   32MOL   C23120133   3.354   5.505   1.296 -0.4178  0.0894  0.4590
   32MOL   C23220134   3.469   5.602   1.261  0.5786 -1.0510  0.0796
   32MOL   O23320135   3.550   5.636   1.345  0.3900  0.3940 -0.0236
   32MOL   N23420136   3.471   5.642   1.135 -0.0829 -0.1066 -0.1732
   32MOL   C23520137   3.539   5.759   1.083  0.5313  0.0070  0.4139
   32MOL   C23620138   3.633   5.720   0.973 -0.0749  0.2108  0.7540
   32MOL   C23720139   3.760   5.812   0.956  0.4466  0.1909 -0.2579
   32MOL   C23820140   3.867   5.754   0.865  0.2516 -0.3886 -0.8676
   32MOL   N23920141   3.820   5.722   0.734 -0.1937  0.0776  0.0540
   32MOL   H24020142   3.287   5.494   1.771  0.3877 -0.0630  0.5488
   32MOL   H24120143   3.174   5.561   1.656 -1.0734 -0.9241  2.1409
   32MOL   H24220144   3.459   5.536   1.579 -0.3588  1.6388 -0.3381
   32MOL   H24320145   3.353   5.400   1.580  0.9994 -0.0773  0.4103
   32MOL   H24420146   3.239   5.634   1.417 -1.2972 -0.5012 -1.5701
   32MOL   H24520147   3.190   5.479   1.427  0.5476 -0.0473  0.3367
   32MOL   H24620148   3.281   5.517   1.215 -1.2503  0.1414  1.2178
   32MOL   H24720149   3.385   5.400   1.295  1.0839  0.5151  1.7556
   32MOL   H24820150   3.396   5.595   1.088  0.4451  0.3043 -1.4414
   32MOL   H24920151   3.582   5.819   1.163 -1.6472  0.2584  1.4529
   32MOL   H25020152   3.459   5.821   1.041 -0.7571 -1.1697  1.0806
   32MOL   H25120153   3.672   5.621   0.994  2.2190  0.7408 -0.8482
   32MOL   H25220154   3.582   5.714   0.877  0.6527 -0.0239  0.3812
   32MOL   H25320155   3.796   5.816   1.059  0.3247 -0.2284 -0.1962
   32MOL   H25420156   3.743   5.915   0.927  0.6492  0.4074  0.3738
   32MOL   H25520157   3.888   5.653   0.899  0.4971 -0.5400 -1.4555
   32MOL   H25620158   3.961   5.809   0.862 -0.2847  0.7177  1.3606
   32MOL   H25720159   3.820   5.625   0.705 -1.3721  0.7881 -2.3762
   32MOL   C25820160   3.778   5.805   0.639 -0.0016  0.0942 -0.0585
   32MOL   O25920161   3.788   5.926   0.644  0.4854  0.3185  0.2690
   32MOL   C26020162   3.705   5.739   0.525  0.5708 -0.5611  0.4135
   32MOL   C26120163   3.699   5.812   0.390  0.0389 -0.1686 -0.2348
   32MOL   C26220164   3.605   5.937   0.400 -0.6564 -0.0766  0.3170
   32MOL   C26320165   3.580   6.013   0.260 -0.0403 -0.4251  0.7017
   32MOL   C26420166   3.711   6.076   0.221  0.1306 -0.0965 -0.1528
   32MOL   O26520167   3.790   6.025   0.149 -0.2662  0.3538 -0.1433
   32MOL   N26620168   3.731   6.201   0.265 -0.4671 -0.0928  0.3733
   32MOL   C26720169   3.841   6.282   0.216 -0.7300 -0.3104 -0.0228
   32MOL   C26820170   3.917   6.338   0.340  0.2856 -0.2417 -0.2653
   32MOL   C26920171   4.039   6.434   0.320  0.1773 -0.2720  0.2813
   32MOL   C27020172   3.997   6.578   0.286 -0.0535  0.3612  0.4390
   32MOL   N27120173   4.091   6.682   0.304 -0.5358 -0.1130  0.3197
   32MOL   H27220174   3.760   5.650   0.496  1.7405 -0.3729  2.0083
   32MOL   H27320175   3.603   5.709   0.552 -0.8472  2.0588 -1.7407
   32MOL   H27420176   3.802   5.845   0.379  0.8065 -1.5199  2.5000
   32MOL   H27520177   3.663   5.745   0.312  1.1186  0.8506 -1.6334
   32MOL   H27620178   3.639   6.013   0.470  0.7552  0.0442 -0.4729
   32MOL   H27720179   3.503   5.914   0.432 -0.2778 -1.5816  0.4753
   32MOL   H27820180   3.503   6.089   0.275  0.6032  0.6062 -1.0259
   32MOL   H27920181   3.557   5.940   0.182  1.0968 -0.8011  0.7035
   32MOL   H28020182   3.661   6.246   0.322  0.9968  1.2095  1.1851
   32MOL   H28120183   3.789   6.367   0.172 -1.8139 -0.8758  0.1518
   32MOL   H28220184   3.912   6.227   0.153  1.1679  1.7140  0.2719
   32MOL   H28320185   3.853   6.383   0.415  1.2640 -1.8950  1.5919
   32MOL   H28420186   3.951   6.247   0.390  1.0847 -0.2799 -0.8696
   32MOL   H28520187   4.088   6.400   0.229 -0.6419  1.3627 -0.7978
   32MOL   H28620188   4.110   6.437   0.402 -0.6108  1.6395  0.9260
   32MOL   H28720189   3.909   6.589   0.350 -1.2693  0.4829 -1.2348
   32MOL   H28820190   3.958   6.577   0.184  0.2254 -0.9579  0.3296
   32MOL   H28920191   4.049   6.766   0.342 -0.3757  0.0111  0.2261
   32MOL   C29020192   4.219   6.681   0.264  0.0780 -0.4335  0.2302
   32MOL   O29120193   4.278   6.587   0.210 -0.2723  0.3145 -0.6089
   32MOL   C29220194   4.300   6.807   0.273 -1.0560 -0.1020 -0.1002
   32MOL   C29320195   4.298   6.861   0.413 -0.6220  0.0786 -0.0008
   32MOL   C29420196   4.408   6.970   0.442  0.1722 -0.4407  0.4346
   32MOL   C29520197   4.350   7.111   0.436 -0.0298 -0.1549 -0.4828
   32MOL   C29620198   4.256   7.150   0.542  0.4942 -0.4633  0.4389
   32MOL   O29720199   4.244   7.081   0.643  0.0873  0.2182 -0.6171
   32MOL   N29820200   4.182   7.259   0.517  0.0155 -0.6567  0.3074
   32MOL   C29920201   4.071   7.311   0.601 -0.0288  0.2510 -0.1984
   32MOL   C30020202   3.935   7.311   0.519 -0.1086 -0.3615  0.1631
   32MOL   C30120203   3.888   7.168   0.505  0.3637 -0.2396  0.6282
   32MOL   C30220204   3.796   7.147   0.377  0.2165  0.4290  0.6941
   32MOL   N30320205   3.725   7.026   0.364  0.2947  0.3835  0.5650
   32MOL   H30420206   4.402   6.805   0.235 -0.0968  1.2621  2.2624
   32MOL   H30520207   4.257   6.887   0.213 -2.6494 -1.1167 -0.3409
   32MOL   H30620208   4.200   6.906   0.422 -0.2561  0.3919  2.5249
   32MOL   H30720209   4.310   6.781   0.486  0.1769 -0.2202 -0.4458
   32MOL   H30820210   4.489   6.975   0.369 -0.9754 -0.5152 -0.8440
   32MOL   H30920211   4.452   6.948   0.539  0.0777 -1.7197  0.1984
   32MOL   H31020212   4.309   7.140   0.340 -0.6763 -0.0967 -0.1936
   32MOL   H31120213   4.438   7.175   0.445 -0.3376  0.2158 -0.0471
   32MOL   H31220214   4.203   7.326   0.444  2.7630 -1.2261  0.5449
   32MOL   H31320215   4.101   7.409   0.637 -0.9181  0.9600 -1.3667
   32MOL   H31420216   4.053   7.261   0.696  0.5342  0.3808 -0.0226
   32MOL   H31520217   3.867   7.388   0.553 -1.8067 -1.4869 -0.6158
   32MOL   H31620218   3.948   7.347   0.417 -2.0819 -3.3382 -1.2098
   32MOL   H31720219   3.832   7.147   0.596  0.7785 -1.6740  0.5573
   32MOL   H31820220   3.976   7.105   0.492 -0.2008 -0.8747 -0.1955
   32MOL   H31920221   3.856   7.158   0.287  0.0709 -1.3881  0.3574
   32MOL   H32020222   3.722   7.226   0.371 -0.7848 -0.6889 -2.0839
   32MOL   H32120223   3.625   7.037   0.370 -0.0719 -1.4720 -1.7660
   32MOL   C32220224   3.777   6.903   0.365 -0.2197  0.2952  0.1256
   32MOL   O32320225   3.896   6.878   0.371 -1.0643 -0.3109 -0.2503
   32MOL   C32420226   3.671   6.791   0.361 -0.3797 -0.0136 -0.0785
   32MOL   C32520227   3.612   6.772   0.219 -0.1156 -0.0880  0.3145
   32MOL   C32620228   3.720   6.706   0.122 -0.1678  0.7696  0.2578
   32MOL   C32720229   3.660   6.686   7.682 -0.3659  0.3603  0.5956
   32MOL   C32820230   3.763   6.619   7.587 -0.0336 -0.0270  0.1172
   32MOL   O32920231   3.833   6.525   7.625  0.6611  0.4274  0.0610
   32MOL   N33020232   3.775   6.660   7.461  0.4604 -0.2882  0.2529
   32MOL   C33120233   3.858   6.602   7.355 -0.2388 -0.1381 -0.4440
   32MOL   C33220234   3.790   6.618   7.225 -0.0084 -0.3743  1.2006
   32MOL   C33320235   3.875   6.578   7.102 -0.6553 -0.4663 -0.6345
   32MOL   C33420236   3.816   6.581   6.965  0.2486  0.0011  0.2386
   32MOL   N33520237   3.906   6.510   6.876 -0.1796  0.5269  0.0616
   32MOL   H33620238   3.720   6.702   0.402  0.8875  0.0684 -1.4015
   32MOL   H33720239   3.593   6.810   0.435 -1.0502  0.7094 -0.9591
   32MOL   H33820240   3.522   6.712   0.227 -1.3717  1.4080 -2.1876
   32MOL   H33920241   3.578   6.862   0.167  0.4329 -1.0501 -1.7765
   32MOL   H34020242   3.728   6.609   0.171 -0.5763  0.9239  0.6321
   32MOL   H34120243   3.819   6.752   0.121 -0.0495  0.5326 -1.9575
   32MOL   H34220244   3.621   6.780   7.642  0.0714  0.3517  0.1386
   32MOL   H34320245   3.573   6.623   7.691 -1.4742  1.5378 -1.4927
   32MOL   H34420246   3.731   6.748   7.438 -1.9458 -2.3746 -3.9320
   32MOL   H34520247   3.879   6.495   7.361 -0.3283 -0.1409 -0.1395
   32MOL   H34620248   3.950   6.659   7.346  0.4802 -1.1279  0.5206
   32MOL   H34720249   3.700   6.556   7.227 -0.9933  0.9827  0.5646
   32MOL   H34820250   3.755   6.721   7.210 -0.1283 -0.8030 -1.8505
   32MOL   H34920251   3.907   6.477   7.127 -0.9990 -0.6398 -0.8885
   32MOL   H35020252   3.964   6.641   7.090  0.2871 -1.5905  0.3132
   32MOL   H35120253   3.817   6.683   6.926  1.1807  0.2980  1.0168
   32MOL   H35220254   3.711   6.555   6.953 -0.1754  1.7226  0.1185
   32MOL   H35320255   4.001   6.504   6.911 -0.2567  0.9114  0.3311
   32MOL   C35420256   3.863   6.445   6.769  0.4799 -0.2099 -0.2141
   32MOL   O35520257   3.745   6.445   6.727  0.6616 -0.2387  0.3484
   32MOL   C35620258   3.963   6.351   6.699 -0.2827 -0.0927 -1.1040
   32MOL   C35720259   3.973   6.210   6.756  0.5111 -0.1857  0.1832
   32MOL   C35820260   3.924   6.092   6.663 -0.5921 -0.0103  0.2656
   32MOL   C35920261   3.778   6.096   6.632  0.1675  0.1590 -0.2703
   32MOL   C36020262   3.729   5.956   6.593 -0.3356 -0.6011  0.3471
   32MOL   O36120263   3.749   5.861   6.666 -0.2218  0.1234 -0.4292
   32MOL   N36220264   3.665   5.949   6.478 -0.1043 -0.4075 -0.4252
   32MOL   C36320265   3.587   5.838   6.433  0.3636 -0.1178 -0.6574
   32MOL   C36420266   3.486   5.868   6.321 -0.0793  0.4576 -0.3183
   32MOL   C36520267   3.379   5.759   6.287  0.5904  0.5553  0.1760
   32MOL   C36620268   3.280   5.821   6.186  0.4539  0.7030  0.2918
   32MOL   N36720269   3.209   5.720   6.107 -0.3026  0.2154  0.0659
   32MOL   H36820270   3.945   6.340   6.592  1.3893 -0.4150 -1.3586
   32MOL   H36920271   4.057   6.406   6.703 -1.6266  2.1498  1.1861
   32MOL   H37020272   4.080   6.205   6.775  0.2632 -1.5670  1.2341
   32MOL   H37120273   3.927   6.195   6.853  0.6742  2.4696  0.7156
   32MOL   H37220274   3.947   5.993   6.702 -4.2054 -0.5692  1.2017
   32MOL   H37320275   3.983   6.099   6.571 -0.9824 -1.6410 -0.1175
   32MOL   H37420276   3.770   6.162   6.545 -0.3036  0.7653  0.2295
   32MOL   H37520277   3.712   6.133   6.710  0.3429 -0.9040  0.3893
   32MOL   H37620278   3.667   6.027   6.413  1.7749  0.9333  1.1739
   32MOL   H37720279   3.527   5.801   6.515 -0.0018  0.9165 -0.4569
   32MOL   H37820280   3.645   5.757   6.388 -0.3005 -0.6907 -0.4863
   32MOL   H37920281   3.441   5.961   6.357  1.1825  0.3076  1.7098
   32MOL   H38020282   3.541   5.864   6.227  3.2162  0.1916  1.5366
   32MOL   H38120283   3.330   5.728   6.380  2.0374 -0.6343  0.5684
   32MOL   H38220284   3.421   5.668   6.243 -2.4232 -0.2877 -1.0999
   32MOL   H38320285   3.341   5.876   6.115  2.0767 -1.4104  0.0001
   32MOL   H38420286   3.217   5.901   6.225  1.7803  1.4660  0.8911
   32MOL   H38520287   3.213   5.623   6.137 -0.1859 -0.3970 -1.8739
   32MOL   C38620288   3.140   5.730   5.994  0.2523 -0.0492 -0.5641
   32MOL   O38720289   3.116   5.833   5.930  0.5818 -0.1457  0.0236
   32MOL   C38820290   3.075   5.599   5.959 -0.1918  0.0796  0.6082
   32MOL   C38920291   3.118   5.543   5.827 -0.2708  0.1015 -0.0927
   32MOL   C39020292   3.258   5.488   5.830  0.2051 -0.0197 -0.4677
   32MOL   C39120293   3.269   5.328   5.837  0.2193 -0.3230  0.2296
   32MOL   C39220294   3.282   5.275   5.980 -0.3003  0.2464 -0.1654
   32MOL   O39320295   3.213   5.329   6.072 -0.3621  0.7963  0.0966
   32MOL   N39420296   3.349   5.158   5.995  0.1100 -0.4610 -0.0680
   32MOL   C39520297   3.346   5.077   6.117  0.0903  0.4466 -0.3693
   32MOL   C39620298   3.475   5.097   6.205  0.5454 -0.2566 -0.1657
   32MOL   C39720299   3.507   5.240   6.250  0.2010  0.1798 -0.9290
   32MOL   C39820300   3.561   5.234   6.391 -0.2752  0.0415 -0.1638
   32MOL   N39920301   3.615   5.354   6.451 -0.1501  0.0479 -0.0385
   32MOL   H40020302   3.082   5.525   6.039 -2.4260  0.4001  1.1356
   32MOL   H40120303   2.969   5.621   5.955  0.6108  4.0071 -1.6515
   32MOL   H40220304   3.042   5.468   5.806 -0.9076  0.5401  0.6135
   32MOL   H40320305   3.120   5.625   5.756 -1.5688 -0.7133 -1.0819
   32MOL   H40420306   3.320   5.533   5.907  0.2351 -1.7718  0.5731
   32MOL   H40520307   3.307   5.517   5.737  1.4099  1.8797  0.7346
   32MOL   H40620308   3.362   5.299   5.787 -0.5505 -0.6260 -1.0281
   32MOL   H40720309   3.186   5.285   5.782  0.4263  0.4247 -0.6765
   32MOL   H40820310   3.418   5.129   5.928 -1.4737 -1.4747 -1.3235
   32MOL   H40920311   3.339   4.972   6.090  0.1602  0.1635  0.6846
   32MOL   H41020312   3.257   5.087   6.179  0.8781 -4.4917  1.7634
   32MOL   H41120313   3.453   5.039   6.295  2.2193 -2.8840 -1.3776
   32MOL   H41220314   3.570   5.055   6.172  0.3041 -1.9448  1.1881
   32MOL   H41320315   3.418   5.304   6.253  0.4870  0.5130  0.6200
   32MOL   H41420316   3.581   5.283   6.183  1.2256  1.2839  0.8918
   32MOL   H41520317   3.650   5.171   6.389 -1.1098 -1.3156  2.2544
   32MOL   H41620318   3.485   5.176   6.444 -1.6301  0.0042 -2.1321
   32MOL   H41720319   3.691   5.413   6.419 -1.4016  1.8695  0.2440
   32MOL   C41820320   3.570   5.399   6.571 -0.7323  0.6773 -0.2313
   32MOL   O41920321   3.479   5.348   6.633 -0.4136  0.4610 -0.8889
   32MOL   C42020322   3.642   5.516   6.636  0.3503  0.3155 -0.4505
   32MOL   C42120323   3.755   5.461   6.722  0.4699  0.1988  0.2728
   32MOL   C42220324   3.707   5.418   6.870 -0.4301  1.1808  0.1057
   32MOL   C42320325   3.813   5.334   6.948 -0.1821  0.4242 -0.0388
   32MOL   C42420326   3.928   5.415   7.007 -0.3495  0.0009  0.2563
   32MOL   O42520327   3.919   5.538   7.025 -0.6305 -0.5553  0.2653
   32MOL   N42620328   4.033   5.350   7.045 -0.4967 -0.0144 -0.0393
   32MOL   C42720329   4.153   5.404   7.110 -0.6802  0.0904  0.6701
   32MOL   C42820330   4.255   5.289   7.137  0.6799 -0.3775  0.1703
   32MOL   C42920331   4.381   5.343   7.225  1.0122 -0.0928  0.5284
   32MOL   C43020332   4.474   5.234   7.277  0.5762  0.2858  0.3181
   32MOL   N43120333   4.499   5.139   7.169  0.5054  0.0185  0.5602
   32MOL   H43220334   3.682   5.567   6.547 -0.8967 -1.2710 -1.9416
   32MOL   H43320335   3.568   5.570   6.695  0.8765 -0.7377  1.2042
   32MOL   H43420336   3.811   5.396   6.655  0.0430 -1.1336  1.1947
   32MOL   H43520337   3.829   5.539   6.743 -0.4596  1.4282 -0.9538
   32MOL   H43620338   3.620   5.354   6.851 -0.6098  1.0820  1.2432
   32MOL   H43720339   3.664   5.509   6.912  0.4261  0.7070  2.0581
   32MOL   H43820340   3.854   5.264   6.875 -2.2940 -1.4290  0.4905
   32MOL   H43920341   3.762   5.281   7.029 -1.3785  0.8114 -0.5235
   32MOL   H44020342   4.028   5.249   7.039  0.7794 -0.0707 -0.3188
   32MOL   H44120343   4.116   5.451   7.201  0.4741  0.0198  1.1904
   32MOL   H44220344   4.204   5.468   7.038  1.9353 -1.5830  0.9792
   32MOL   H44320345   4.196   5.211   7.185  0.0462 -0.0890 -0.1472
   32MOL   H44420346   4.294   5.240   7.048  0.9053  0.0757  0.0214
   32MOL   H44520347   4.346   5.393   7.315  1.6711  0.7546  0.3185
   32MOL   H44620348   4.433   5.428   7.180 -0.6443  0.5823 -0.1638
   32MOL   H44720349   4.428   5.171   7.352 -1.9203  0.4868 -0.9791
   32MOL   H44820350   4.565   5.275   7.320  0.6082 -2.3442  2.8532
   32MOL   H44920351   4.534   5.184   7.085 -1.3664  1.5869  0.5965
   32MOL   C45020352   4.463   5.014   7.154  0.2038  0.4227  0.8196
   32MOL   O45120353   4.429   4.945   7.255  0.3055  0.2036  0.3773
   32MOL   C45220354   4.468   4.965   7.007  0.6490  0.7303 -0.7146
   32MOL   C45320355   4.325   4.946   6.953  0.0775 -0.1872  0.1170
   32MOL   C45420356   4.303   4.957   6.799 -0.4911  0.3381  0.4165
   32MOL   C45520357   4.156   4.925   6.757 -0.3858 -0.0897  0.1053
   32MOL   C45620358   4.123   4.775   6.756  0.3467 -0.5750 -0.2716
   32MOL   O45720359   4.205   4.690   6.779  0.0807  0.1825  0.4491
   32MOL   N45820360   4.000   4.739   6.704  0.2229  0.4740  0.1929
   32MOL   C45920361   3.963   4.602   6.657 -0.8629 -0.2500 -0.0654
   32MOL   C46020362   3.813   4.607   6.637 -0.0776  0.4678 -0.5401
   32MOL   C46120363   3.766   4.695   6.521  0.6294  0.7159  0.6066
   32MOL   C46220364   3.631   4.763   6.535 -0.0995  0.4189  0.6560
   32MOL   N46320365   3.629   4.874   6.628  0.6632  0.1620  0.2271
   32MOL   H46420366   4.519   5.029   6.935  0.8039  0.2429 -1.0382
   32MOL   H46520367   4.518   4.869   6.995 -2.0518 -0.5903 -1.7755
   32MOL   H46620368   4.286   4.849   6.980 -0.3182  0.1796  0.8888
   32MOL   H46720369   4.252   5.020   6.987 -0.5479 -1.2449  1.1044
   32MOL   H46820370   4.362   4.878   6.753 -2.9842 -2.7782  2.3297
   32MOL   H46920371   4.335   5.053   6.758  0.8018  0.1201  0.8730
   32MOL   H47020372   4.148   4.961   6.655 -0.3656 -2.4561 -0.7595
   32MOL   H47120373   4.087   4.979   6.823 -0.2363  1.3100 -0.8601
   32MOL   H47220374   3.940   4.816   6.679 -1.3191 -1.1057 -1.0800
   32MOL   H47320375   3.991   4.529   6.734 -0.3545 -0.6678 -0.6381
   32MOL   H47420376   4.025   4.565   6.575  0.2274 -1.0035  1.0694
   32MOL   H47520377   3.765   4.512   6.614  0.2545  0.1787 -0.0538
   32MOL   H47620378   3.765   4.643   6.728  0.8373  1.3472 -0.3965
   32MOL   H47720379   3.777   4.636   6.430  0.3934  1.7679 -0.1154
   32MOL   H47820380   3.844   4.772   6.522  0.2399  1.1628 -1.2679
   32MOL   H47920381   3.551   4.694   6.564 -0.5762 -0.4057 -2.4700
   32MOL   H48020382   3.599   4.799   6.437 -0.4864 -1.4181  0.0875
   32MOL   H48120383   3.689   4.954   6.615 -0.4382  1.0646  0.6299
   32MOL   C48220384   3.557   4.888   6.736 -0.9702  0.3100 -0.3403
   32MOL   O48320385   3.474   4.807   6.778 -0.5164 -0.3862 -0.0334
   32MOL   C48420386   3.573   5.019   6.812  0.6396  0.1617  0.1163
   32MOL   C48520387   3.656   5.001   6.931 -0.3021 -0.6414 -0.3334
   32MOL   C48620388   3.801   4.943   6.908  0.5205 -0.0902 -0.3866
   32MOL   C48720389   3.871   4.896   7.039 -0.7097 -0.4461  0.4008
   32MOL   C48820390   3.925   5.002   7.132 -0.5999 -0.4663 -0.2985
   32MOL   O48920391   4.009   5.080   7.088 -0.3724 -0.0200  0.3067
   32MOL   N49020392   3.880   5.011   7.256 -0.5584 -0.5067 -0.6601
   32MOL   C49120393   3.935   5.097   7.365 -0.1209  0.1231  0.0611
   32MOL   C49220394   3.895   5.250   7.353 -0.1020 -0.4028  0.0105
   32MOL   C49320395   3.962   5.337   7.458 -0.2312 -0.1114 -0.7949
   32MOL   C49420396   3.881   5.356   7.587  1.1868 -0.5901 -0.0959
   32MOL   N49520397   3.954   5.456   7.668  0.0367  0.5033 -0.4812
   32MOL   H49620398   3.605   5.099   6.744 -1.2012 -0.0827 -1.0751
   32MOL   H49720399   3.471   5.042   6.841  0.6677 -1.3924  1.4659
   32MOL   H49820400   3.653   5.092   6.991  0.5430 -0.9140  0.1348
   32MOL   H49920401   3.600   4.935   6.997  1.0882 -1.1370  0.3589
   32MOL   H50020402   3.864   5.021   6.865  0.5185  0.3176  0.3362
   32MOL   H50120403   3.798   4.849   6.853  0.8853  0.3774 -1.2153
   32MOL   H50220404   3.957   4.834   7.013 -0.7646 -1.0261  1.5730
   32MOL   H50320405   3.818   4.820   7.095 -0.5193 -2.7600 -2.4631
   32MOL   H50420406   3.814   4.941   7.286  1.4220 -2.1682 -0.0090
   32MOL   H50520407   4.041   5.072   7.359 -1.0708 -4.6456  0.6358
   32MOL   H50620408   3.893   5.049   7.453 -4.5842  1.7388 -1.0731
   32MOL   H50720409   3.919   5.278   7.250  0.5397  1.5327  0.6512
   32MOL   H50820410   3.788   5.271   7.343  0.1898  0.7302 -0.8505
   32MOL   H50920411   3.970   5.438   7.418  2.2028  0.8171  1.8667
   32MOL   H51020412   4.063   5.300   7.475  0.0446  1.1228  0.3810
   32MOL   H51120413   3.864   5.263   7.641 -1.1150 -0.1802 -0.0879
   32MOL   H51220414   3.790   5.396   7.544  1.7554  0.4399 -0.3617
   32MOL   H51320415   4.053   5.470   7.652  0.3246  0.3448  1.0143
   32MOL   C51420416   3.890   5.534   0.065  0.5872  0.1173  1.0014
   32MOL   O51520417   3.772   5.532   0.092 -0.2208  0.2583 -0.0243
   32MOL   C51620418   3.973   5.633   0.147  0.0707  0.6747  0.6825
   32MOL   C51720419   4.045   5.572   0.275 -0.1742  0.7962  0.1561
   32MOL   C51820420   4.136   5.450   0.252  0.1339 -0.1443  0.4076
   32MOL   C51920421   4.186   5.396   0.391  0.3884 -0.3394 -0.1470
   32MOL   C52020422   4.228   5.250   0.384  1.3548 -0.4291  1.0964
   32MOL   O52120423   4.144   5.172   0.334  0.0781 -0.4039 -0.0204
   32MOL   N52220424   4.350   5.213   0.422 -0.3008 -0.6386 -0.6989
   32MOL   C52320425   4.407   5.080   0.419  0.3093 -0.1396  0.1894
   32MOL   C52420426   4.553   5.075   0.476  0.0401 -0.3529 -0.3394
   32MOL   C52520427   4.616   4.937   0.475 -0.6461 -0.4976 -0.3651
   32MOL   C52620428   4.761   4.931   0.527  0.9597  0.0346  0.3117
   32MOL   N52720429   4.827   4.805   0.542 -0.6187 -0.0493 -0.2058
   32MOL   H52820430   4.043   5.681   0.078 -0.0181 -0.4853 -0.2280
   32MOL   H52920431   3.899   5.703   0.186  0.5520  0.3512  2.2041
   32MOL   H53020432   4.104   5.654   0.317  0.9467 -0.4060  0.9503
   32MOL   H53120433   3.966   5.551   0.347 -1.0273 -1.8797 -1.5211
   32MOL   H53220434   4.207   5.477   0.173 -2.1490  2.9904 -0.6746
   32MOL   H53320435   4.074   5.376   0.201 -0.0521 -0.0662  0.5222
   32MOL   H53420436   4.125   5.414   0.479 -0.8478  2.1683 -1.4310
   32MOL   H53520437   4.277   5.451   0.415 -0.0185  0.0302  0.5816
   32MOL   H53620438   4.397   5.283   0.478 -1.6165  0.6742 -1.2069
   32MOL   H53720439   4.405   5.052   0.313 -0.7410  0.1678  0.1170
   32MOL   H53820440   4.342   5.019   0.481 -1.0921 -0.4093 -1.4891
   32MOL   H53920441   4.620   5.149   0.431  0.8002 -0.2994  0.8616
   32MOL   H54020442   4.548   5.100   0.582  0.3734  0.4039 -0.4964
   32MOL   H54120443   4.614   4.899   0.373 -1.3754 -0.0327 -0.5278
   32MOL   H54220444   4.550   4.885   0.544 -0.8602  2.3239  1.5977
   32MOL   H54320445   4.761   4.977   0.626  2.8778 -0.0060  0.3376
   32MOL   H54420446   4.824   4.992   0.462  0.1444  1.0466  0.4555
   32MOL   H54520447   4.803   4.738   0.471  0.6515 -0.9008  0.1621
   32MOL   C54620448   4.911   4.761   0.639 -0.3555  0.3648 -0.1647
   32MOL   O54720449   4.963   4.836   0.722 -0.3454  0.9618 -0.0823
   32MOL   C54820450   4.968   4.621   0.635  0.7123 -0.0639  0.0761
   32MOL   C54920451   5.111   4.610   0.691 -0.0384 -0.3283  0.0485
   32MOL   C55020452   5.149   4.466   0.693 -0.5564 -0.1597 -0.1013
   32MOL   C55120453   5.304   4.457   0.685 -0.5473 -0.7066  0.0869
   32MOL   C55220454   5.387   4.499   0.800  0.8697 -0.0283  0.8821
   32MOL   O55320455   5.348   4.469   0.912 -0.4094  0.0268  0.0324
   32MOL   N55420456   5.494   4.574   0.766 -0.1645 -1.0082  0.0358
   32MOL   C55520457   5.583   4.630   0.871  0.0984  0.0202  0.2026
   32MOL   C55620458   5.557   4.775   0.895 -0.2916 -0.1305  0.0554
   32MOL   C55720459   5.683   4.845   0.941  0.3970  0.3542  0.1013
   32MOL   C55820460   5.800   4.889   0.834  0.8157  0.0447 -0.2211
   32MOL   N55920461   5.739   4.933   0.704  0.8951  0.5709  0.0439
   32MOL   H56020462   4.906   4.553   0.694  0.3091  1.8692  1.9398
   32MOL   H56120463   4.963   4.590   0.530  0.1875  1.7492 -0.4576
   32MOL   H56220464   5.175   4.674   0.631  0.2751 -1.4355 -0.8190
   32MOL   H56320465   5.118   4.649   0.793 -1.1127 -0.9053  0.3518
   32MOL   H56420466   5.110   4.408   0.610 -2.6619 -1.3965  1.6737
   32MOL   H56520467   5.107   4.431   0.788  0.5261  1.3574  0.9708
   32MOL   H56620468   5.334   4.498   0.589 -1.4128 -0.7466 -0.2043
   32MOL   H56720469   5.321   4.349   0.682 -3.4870 -1.2672  1.4352
   32MOL   H56820470   5.516   4.590   0.669 -2.2163  1.2872 -0.0841
   32MOL   H56920471   5.682   4.605   0.834  0.2981  1.3208 -0.1408
   32MOL   H57020472   5.582   4.570   0.962  0.5205 -1.6831 -0.9000
   32MOL   H57120473   5.521   4.819   0.802  1.0837 -2.0279 -1.4201
   32MOL   H57220474   5.482   4.801   0.970 -0.3565  1.5089 -0.5661
   32MOL   H57320475   5.717   4.796   1.031 -0.8491  0.5869  0.7109
   32MOL   H57420476   5.644   4.935   0.988  0.9799 -0.5683  2.3844
   32MOL   H57520477   5.868   4.805   0.823  0.1824 -0.2172 -2.3525
   32MOL   H57620478   5.854   4.973   0.877 -0.2663  0.1741  0.9320
   32MOL   H57720479   5.710   4.870   0.631 -1.0137 -0.5050  1.7115
   32MOL   C57820480   5.711   5.053   0.662 -0.3277  0.4028 -0.3181
   32MOL   O57920481   5.751   5.159   0.724  0.1030  0.1987 -0.4771
   32MOL   C58020482   5.642   5.062   0.527 -0.2325  0.2524  0.4554
   32MOL   C58120483   5.700   5.168   0.429  0.5856  0.0916 -0.0087
   32MOL   C58220484   5.671   5.134   0.277 -0.2670  0.4258 -0.0527
   32MOL   C58320485   5.728   5.235   0.181 -0.4765 -0.4997 -0.1375
   32MOL   C58420486   5.872   5.225   0.166 -0.1286  0.1455 -0.0191
   32MOL   O58520487   5.938   5.267   0.257  0.3695 -0.5151  0.2440
   32MOL   N58620488   5.907   5.176   0.047 -0.2101 -0.3429 -0.5534
   32MOL   C58720489   6.042   5.192   7.688  0.0758  0.3494  0.4380
   32MOL   C58820490   6.030   5.247   7.543  0.6634 -0.0910  0.9463
   32MOL   C58920491   5.997   5.394   7.535 -0.5509 -0.6424 -0.4483
   32MOL   C59020492   5.845   5.430   7.525  0.1427  0.2698 -0.2887
   32MOL   N59120493   5.821   5.563   7.575  0.5607  0.2550  0.4931
   32MOL   H59220494   5.627   4.974   0.465 -0.8258  0.8876 -0.3324
   32MOL   H59320495   5.543   5.099   0.554 -0.3043  0.1306  0.3577
   32MOL   H59420496   5.651   5.263   0.452 -1.3496 -1.0047  0.5106
   32MOL   H59520497   5.804   5.174   0.461  1.3191 -0.0520 -2.2862
   32MOL   H59620498   5.565   5.112   0.265  0.2716 -2.2712 -0.3235
   32MOL   H59720499   5.714   5.037   0.251 -0.1182  0.3860  0.3310
   32MOL   H59820500   5.694   5.334   0.210 -1.4450 -0.8101 -0.1941
   32MOL   H59920501   5.677   5.215   0.087 -0.0691 -3.0256  0.1388
   32MOL   H60020502   5.832   5.147   7.688 -0.0716 -0.6074 -0.6003
   32MOL   H60120503   6.083   5.091   7.686  2.4404  1.2813  0.9111
   32MOL   H60220504   6.111   5.247   0.050  0.0435  1.6930 -0.6721
   32MOL   H60320505   6.124   5.239   7.490 -0.2850 -1.3649 -0.5668
   32MOL   H60420506   5.955   5.186   7.494 -0.2247  0.1935  1.9128
   32MOL   H60520507   6.046   5.438   7.448 -0.8676 -0.4344 -0.5209
   32MOL   H60620508   6.048   5.433   7.623  1.2413 -3.5995 -0.1087
   32MOL   H60720509   5.784   5.351   7.568 -0.6843  0.2432 -1.4860
   32MOL   H60820510   5.809   5.423   7.423 -1.7001 -0.7398  0.4001
   32MOL   H60920511   5.898   5.628   7.570  0.2607  0.4560 -2.6881
   32MOL   C61020512   5.713   5.612   7.634  0.9740  0.6219  0.1162
   32MOL   O61120513   5.615   5.543   7.649  0.1384 -0.5077 -0.3278
   32MOL   C61220514   5.708   5.765   7.663  0.3182 -0.0716 -0.0726
   32MOL   C61320515   5.603   5.855   7.589  0.0995 -0.0535 -0.5263
   32MOL   C61420516   5.639   5.907   7.452 -0.2756 -0.2426  0.9791
   32MOL   C61520517   5.692   5.807   7.351 -0.1100  0.0207  0.2962
   32MOL   C61620518   5.581   5.723   7.285  0.2195 -0.1908  0.1255
   32MOL   O61720519   5.470   5.760   7.267  0.4632 -0.5421 -0.2708
   32MOL   N61820520   5.628   5.603   7.241 -0.4933 -0.4088 -0.6160
   32MOL   C61920521   5.545   5.495   7.190 -0.4105  0.0417 -0.5803
   32MOL   C62020522   5.462   5.424   7.299  0.0503  0.5350 -0.2612
   32MOL   C62120523   5.376   5.307   7.248  0.0479 -0.0304 -0.4329
   32MOL   C62220524   5.304   5.245   7.369  0.0455  0.7982 -0.3233
   32MOL   N62320525   5.205   5.145   7.316 -0.2695  0.4121 -0.4570
   32MOL   H62420526   5.707   5.768   0.071 -2.5823  0.3706 -0.0797
   32MOL   H62520527   5.804   5.812   7.642  0.4093  0.3242  1.1672
   32MOL   H62620528   5.503   5.810   7.584 -0.7946  1.8369  0.2219
   32MOL   H62720529   5.582   5.941   7.651  0.2676 -0.4802  0.1275
   32MOL   H62820530   5.721   5.977   7.471  0.6854 -1.0661 -0.0284
   32MOL   H62920531   5.550   5.958   7.414 -0.5891 -0.8185  0.9476
   32MOL   H63020532   5.778   5.749   7.387  0.3363 -1.1837 -2.5948
   32MOL   H63120533   5.733   5.870   7.273 -2.7205  1.4396  0.0122
   32MOL   H63220534   5.722   5.571   7.257 -1.3787 -2.4124  0.6954
   32MOL   H63320535   5.603   5.423   7.133  1.1167  0.5628  0.2868
   32MOL   H63420536   5.463   5.538   7.133 -1.0332  1.4254  1.3065
   32MOL   H63520537   5.528   5.392   7.379  0.4623 -2.0936 -1.6195
   32MOL   H63620538   5.397   5.494   7.352 -0.6851  0.2941 -0.8458
   32MOL   H63720539   5.438   5.228   7.206 -1.0433 -0.5513 -1.1015
   32MOL   H63820540   5.309   5.337   7.167 -2.4069 -2.7007  0.5520
   32MOL   H63920541   5.241   5.322   7.415 -1.0997  1.0973 -2.3541
   32MOL   H64020542   5.366   5.190   7.440 -0.1856 -0.1005 -0.8102
   32MOL   H64120543   5.263   5.079   7.268 -2.5320  0.3241 -3.2169
   32MOL   H64220544   5.181   5.086   7.395 -0.1295  0.3760 -0.4421
   33MOL     C120545   2.136   2.247   0.487  0.2926  0.5163 -0.3754
   33MOL     O220546   2.219   2.154   0.512 -0.0051  0.1032 -0.8386
   33MOL     C320547   2.016   2.273   0.583 -0.1815 -0.0399  0.3279
   33MOL     C420548   2.037   2.399   0.665  0.4491 -0.4371 -0.1926
   33MOL     C520549   2.056   2.515   0.574 -0.0458  0.4402 -0.6668
   33MOL     C620550   2.056   2.652   0.648  0.5835  0.2049 -1.0188
   33MOL     C720551   2.178   2.666   0.738  0.1773 -0.0834 -0.6447
   33MOL     O820552   2.286   2.608   0.721 -0.3460  0.4133 -0.3193
   33MOL     N920553   2.169   2.761   0.834  0.1848 -0.2361 -0.4926
   33MOL    C1020554   2.277   2.807   0.925  0.1852  0.4512  0.4465
   33MOL    C1120555   2.277   2.711   1.049 -0.7400  0.2317  0.1138
   33MOL    C1220556   2.396   2.737   1.139  0.3909 -0.3538  0.7048
   33MOL    C1320557   2.401   2.641   1.256 -0.1446  0.1379  0.0981
   33MOL    N1420558   2.394   2.502   1.207  0.3606 -0.2182 -0.3034
   33MOL    H1520559   1.923   2.273   0.527 -0.5094 -0.0334  0.8667
   33MOL    H1620560   2.011   2.191   0.655  1.9947  0.4706  1.1081
   33MOL    H1720561   1.951   2.411   0.732 -0.0244 -1.2545 -0.6421
   33MOL    H1820562   2.128   2.377   0.721  0.6499  1.1524  0.1183
   33MOL    H1920563   1.974   2.509   0.502 -0.7424  0.7743  0.0885
   33MOL    H2020564   2.144   2.519   0.510  0.9630 -2.6795  0.4536
   33MOL    H2120565   1.966   2.683   0.701 -0.3054 -0.2046 -2.2629
   33MOL    H2220566   2.055   2.732   0.574 -0.6721 -0.3973 -1.6735
   33MOL    H2320567   2.078   2.803   0.846 -0.7044 -2.1810 -0.2743
   33MOL    H2420568   2.255   2.906   0.966 -1.2053  1.0385 -1.6321
   33MOL    H2520569   2.374   2.813   0.875  0.2011  1.1636  0.5535
   33MOL    H2620570   2.192   2.718   1.118 -0.6351  1.1913  0.1546
   33MOL    H2720571   2.270   2.605   1.023 -1.8835 -1.1535  5.3847
   33MOL    H2820572   2.403   2.841   1.173  0.6532 -0.0892 -0.1526
   33MOL    H2920573   2.483   2.719   1.077  0.5773  1.6397  0.3474
   33MOL    H3020574   2.324   2.663   1.330 -2.0904  3.6751 -2.8098
   33MOL    H3120575   2.494   2.648   1.313  0.5997 -1.2156 -0.9115
   33MOL    H3220576   2.302   2.459   1.212 -0.5254  1.8637  2.3076
   33MOL    H3320577   2.138   2.301   0.393 -0.2423  1.9741  0.4395
   33MOL    C3420578   2.501   2.432   1.167  0.3763  0.5595 -0.2172
   33MOL    O3520579   2.615   2.482   1.160  0.0717  0.4135  0.2362
   33MOL    C3620580   2.492   2.284   1.144  0.1017 -0.3328  0.1103
   33MOL    C3720581   2.463   2.247   1.001 -0.3629 -0.0018  0.4073
   33MOL    C3820582   2.586   2.207   0.928  0.1703 -0.0155  0.5255
   33MOL    C3920583   2.556   2.155   0.787 -0.3851  0.0327 -0.1272
   33MOL    C4020584   2.489   2.016   0.785  0.0372  0.1053 -0.3736
   33MOL    O4120585   2.535   1.931   0.862 -0.5314  0.1164 -0.5569
   33MOL    N4220586   2.394   1.994   0.694 -0.0449  0.2410 -0.2746
   33MOL    C4320587   2.345   1.870   0.649  0.8478 -0.1913  0.1835
   33MOL    C4420588   2.231   1.818   0.736 -0.8330  0.0565 -0.4772
   33MOL    C4520589   2.119   1.925   0.733 -0.4496 -0.3497 -0.2177
   33MOL    C4620590   1.986   1.866   0.776  0.5354  0.2366  0.4169
   33MOL    N4720591   1.886   1.979   0.790 -0.0688  0.5939  0.5110
   33MOL    H4820592   2.588   2.243   1.173  0.0223  0.7764  1.9761
   33MOL    H4920593   2.408   2.236   1.195 -0.9522 -0.1930 -1.4244
   33MOL    H5020594   2.399   2.159   1.005 -2.9386  1.7555 -0.9433
   33MOL    H5120595   2.395   2.320   0.958 -1.2471 -0.4079  1.0944
   33MOL    H5220596   2.647   2.141   0.989 -0.7488 -1.7503 -0.3854
   33MOL    H5320597   2.643   2.299   0.916  0.1002 -0.5171 -5.0685
   33MOL    H5420598   2.648   2.145   0.730 -0.2796 -0.0914  0.0611
   33MOL    H5520599   2.498   2.227   0.729  1.1409  1.3007 -0.1186
   33MOL    H5620600   2.357   2.071   0.639 -1.9497  0.0113  0.6346
   33MOL    H5720601   2.424   1.796   0.654  1.9191  0.9782  0.7691
   33MOL    H5820602   2.314   1.883   0.545  2.1977  1.5835 -0.0092
   33MOL    H5920603   2.201   1.723   0.693  2.3625 -1.0362 -0.4044
   33MOL    H6020604   2.255   1.796   0.840  1.5693  2.1746 -0.5256
   33MOL    H6120605   2.112   1.972   0.634  0.3483  0.9636  0.3381
   33MOL    H6220606   2.142   1.999   0.809 -2.8595  1.8081 -1.5138
   33MOL    H6320607   1.992   1.821   0.875  1.7180  1.5299  0.9510
   33MOL    H6420608   1.961   1.776   0.720  1.3147 -0.4648  1.1609
   33MOL    H6520609   1.822   2.006   0.716  2.5314 -0.0209 -2.0365
   33MOL    C6620610   1.884   2.046   0.904 -0.1972 -0.0080 -0.8992
   33MOL    O6720611   1.959   2.020   1.001 -0.0919  0.1248 -0.6836
   33MOL    C6820612   1.794   2.171   0.904  0.3623 -0.8696 -0.6139
   33MOL    C6920613   1.787   2.257   1.039 -0.5666 -0.6451  0.4072
   33MOL    C7020614   1.868   2.385   1.039 -0.4875 -0.4244  0.7080
   33MOL    C7120615   2.021   2.375   1.032  0.3941 -0.6094  0.4919
   33MOL    C7220616   2.093   2.316   1.160 -0.8493  0.1430  0.0518
   33MOL    O7320617   2.119   2.400   1.250 -0.3450  0.3873  0.4302
   33MOL    N7420618   2.131   2.189   1.171  0.2721  0.4666 -0.3976
   33MOL    C7520619   2.177   2.131   1.299  0.3096 -0.3874  0.4444
   33MOL    C7620620   2.192   1.979   1.287 -0.4086  0.6311  0.3450
   33MOL    C7720621   2.297   1.941   1.181 -0.2155 -0.6823 -0.3715
   33MOL    C7820622   2.299   1.789   1.146  0.5045  0.2898 -0.0467
   33MOL    N7920623   2.325   1.726   1.278  0.1740  0.2301 -0.8214
   33MOL    H8020624   1.825   2.238   0.824  2.2215 -0.6575  0.2492
   33MOL    H8120625   1.692   2.132   0.896  0.3308 -0.9054 -0.0643
   33MOL    H8220626   1.681   2.284   1.044 -0.4034 -0.0403  0.5627
   33MOL    H8320627   1.808   2.199   1.129  0.4529  1.2706  1.4364
   33MOL    H8420628   1.847   2.426   1.138 -0.4894  0.6119  0.2816
   33MOL    H8520629   1.828   2.454   0.964  0.7452 -0.2285  0.2258
   33MOL    H8620630   2.069   2.468   1.001  0.2091 -0.6492  0.0801
   33MOL    H8720631   2.056   2.300   0.960  0.7816 -2.2169  2.3056
   33MOL    H8820632   2.090   2.131   1.099 -1.1994 -0.0652  0.8182
   33MOL    H8920633   2.108   2.154   1.380 -0.2981 -0.2729 -0.1015
   33MOL    H9020634   2.267   2.178   1.339  0.2940  1.2596 -1.3492
   33MOL    H9120635   2.224   1.937   1.382  1.4855  0.8892 -0.1384
   33MOL    H9220636   2.109   1.919   1.251  1.0699  0.0243 -2.2475
   33MOL    H9320637   2.395   1.977   1.215 -0.2587 -0.5092 -0.4281
   33MOL    H9420638   2.294   1.996   1.086  1.6151  1.2488  0.6318
   33MOL    H9520639   2.373   1.757   1.072 -0.2104 -0.8391 -0.2815
   33MOL    H9620640   2.203   1.759   1.104 -0.2555  1.5975  0.7087
   33MOL    H9720641   2.419   1.714   1.314 -0.9981 -0.2634  2.2280
   33MOL    C9820642   2.241   1.661   1.354 -0.0568  0.8770 -0.1850
   33MOL    O9920643   2.122   1.646   1.322 -0.2131  0.9657 -0.3445
   33MOL   C10020644   2.300   1.591   1.480 -0.4243 -0.5153  0.1282
   33MOL   C10120645   2.295   1.435   1.473  0.4212  0.1961  0.2993
   33MOL   C10220646   2.416   1.372   1.400 -0.3551 -0.1081 -0.0377
   33MOL   C10320647   2.408   1.217   1.374 -0.3764  0.5047 -0.0107
   33MOL   C10420648   2.442   1.136   1.496  0.4193 -0.6538  0.3764
   33MOL   O10520649   2.559   1.137   1.530  0.0019  0.4544  0.1064
   33MOL   N10620650   2.347   1.073   1.560  0.0942  0.3150  0.1012
   33MOL   C10720651   2.365   1.047   1.704 -0.1908 -0.2649  0.1034
   33MOL   C10820652   2.251   0.960   1.757  0.4756  0.1249 -0.4243
   33MOL   C10920653   2.231   0.945   1.910  0.0267  0.7067  0.1611
   33MOL   C11020654   2.106   0.867   1.949 -0.0229 -0.4950 -0.3540
   33MOL   N11120655   2.101   0.829   2.085 -0.8973 -0.1330 -0.0280
   33MOL   H11220656   2.397   1.631   1.508 -1.2576  1.4576  0.2978
   33MOL   H11320657   2.244   1.632   1.564 -0.2631 -1.0112  0.4816
   33MOL   H11420658   2.290   1.394   1.574  0.8857  0.2913  0.3609
   33MOL   H11520659   2.211   1.389   1.422 -0.5252  0.4740  1.5767
   33MOL   H11620660   2.512   1.387   1.451 -0.1765  1.8644 -0.9319
   33MOL   H11720661   2.425   1.413   1.300 -0.4274  0.7348  0.2888
   33MOL   H11820662   2.465   1.182   1.289 -0.0030 -2.1483  1.3062
   33MOL   H11920663   2.300   1.209   1.358 -0.5709  3.4033 -0.4824
   33MOL   H12020664   2.254   1.078   1.522  0.1644  1.1770  0.0435
   33MOL   H12120665   2.379   1.145   1.749  0.3140 -0.5874  0.6678
   33MOL   H12220666   2.465   1.006   1.721 -0.4970 -0.8020  0.6532
   33MOL   H12320667   2.164   1.003   1.706  0.8151  2.8138  1.1504
   33MOL   H12420668   2.265   0.864   1.707 -0.1256  0.4999 -1.3184
   33MOL   H12520669   2.232   1.045   1.954  2.9271  1.0800 -0.6466
   33MOL   H12620670   2.319   0.898   1.953 -1.6372 -2.2840  0.4073
   33MOL   H12720671   2.120   0.779   1.885 -3.0106 -1.6549  0.5292
   33MOL   H12820672   2.015   0.920   1.924  0.7842  0.5560 -1.1252
   33MOL   H12920673   2.136   0.894   2.153 -0.9572 -2.6545  2.4778
   33MOL   C13020674   2.062   0.707   2.134 -0.4947 -0.0597 -0.1375
   33MOL   O13120675   2.017   0.616   2.067  0.1411 -0.1062 -0.3927
   33MOL   C13220676   2.095   0.685   2.282  0.2914  0.4855 -0.7267
   33MOL   C13320677   1.986   0.608   2.354  0.3845 -0.3648 -0.1279
   33MOL   C13420678   1.864   0.695   2.378 -0.6888 -0.4501  0.2885
   33MOL   C13520679   1.761   0.627   2.470 -0.1191 -0.1288 -0.2054
   33MOL   C13620680   1.640   0.712   2.503 -0.5428 -0.0411  0.5132
   33MOL   O13720681   1.636   0.836   2.487  0.0112  0.3593  0.0291
   33MOL   N13820682   1.538   0.645   2.549 -0.5261  0.2506 -0.2310
   33MOL   C13920683   1.406   0.703   2.562 -0.5190 -0.5093 -0.6780
   33MOL   C14020684   1.303   0.593   2.548 -0.2706 -0.3011 -0.5727
   33MOL   C14120685   1.169   0.643   2.616  0.4022  0.4754  0.0106
   33MOL   C14220686   1.066   0.530   2.642  0.4596  0.2623 -0.4792
   33MOL   N14320687   0.953   0.592   2.710  0.1056 -1.0493 -0.1744
   33MOL   H14420688   2.189   0.630   2.290  1.2843  2.2709  0.1483
   33MOL   H14520689   2.109   0.782   2.330  1.0939  0.0474 -0.0576
   33MOL   H14620690   1.956   0.520   2.296  1.7214 -0.7767 -0.1938
   33MOL   H14720691   2.024   0.568   2.448  0.4540  1.2001  0.5250
   33MOL   H14820692   1.813   0.712   2.283 -0.1760 -1.1970 -0.1284
   33MOL   H14920693   1.894   0.786   2.429 -0.2559 -0.9196  0.8774
   33MOL   H15020694   1.802   0.604   2.568 -0.9932  0.0401  0.1998
   33MOL   H15120695   1.724   0.535   2.425  1.2710 -1.3912  1.1770
   33MOL   H15220696   1.544   0.544   2.556  0.9202  0.3768  0.4638
   33MOL   H15320697   1.386   0.783   2.491  0.4648 -0.1287 -0.5406
   33MOL   H15420698   1.408   0.754   2.659 -1.0696  2.9605 -2.4128
   33MOL   H15520699   1.277   0.564   2.446  0.6472 -0.6753 -0.7108
   33MOL   H15620700   1.326   0.494   2.588 -1.1628 -0.0991  0.4668
   33MOL   H15720701   1.120   0.717   2.552 -1.4458  0.7597  1.7202
   33MOL   H15820702   1.198   0.681   2.714  1.8748 -1.1932  0.2449
   33MOL   H15920703   1.109   0.448   2.699  0.2256  0.2898 -0.2599
   33MOL   H16020704   1.032   0.487   2.548  0.5410 -0.7818 -0.0392
   33MOL   H16120705   0.939   0.689   2.686  0.4925 -1.4498 -2.0782
   33MOL   C16220706   0.881   0.530   2.804 -0.1123 -0.6346  0.4897
   33MOL   O16320707   0.883   0.409   2.825  0.1656 -0.5170  0.0391
   33MOL   C16420708   0.785   0.621   2.893  0.1401  0.3552  0.4157
   33MOL   C16520709   0.653   0.543   2.922  0.2937 -0.5726  0.4751
   33MOL   C16620710   0.548   0.557   2.809  0.7864  0.9333  0.5893
   33MOL   C16720711   0.407   0.530   2.856  0.0724  0.9347 -0.2322
   33MOL   C16820712   0.295   0.541   2.749 -0.1411  0.3343  0.5532
   33MOL   O16920713   0.322   0.539   2.630  0.0031  0.3833  0.3349
   33MOL   N17020714   0.169   0.566   2.802  0.1409  0.4719 -0.0405
   33MOL   C17120715   0.041   0.587   2.738 -0.1597 -0.4921 -0.0349
   33MOL   C17220716   7.644   0.482   2.788 -0.1925 -0.8003 -0.3347
   33MOL   C17320717   7.516   0.473   2.708  0.8557  0.3448  0.3324
   33MOL   C17420718   7.430   0.339   2.740  0.4409  0.3012 -0.7831
   33MOL   N17520719   7.503   0.224   2.694  0.3180 -0.0222  0.1440
   33MOL   H17620720   0.839   0.623   2.987 -1.2610 -1.8250  1.3128
   33MOL   H17720721   0.771   0.717   2.844  0.3578 -0.7552 -1.8943
   33MOL   H17820722   0.664   0.438   2.949  1.7808 -1.3105 -2.7293
   33MOL   H17920723   0.611   0.577   3.016  1.5235 -2.6812  1.8226
   33MOL   H18020724   0.569   0.479   2.736  2.2902 -0.0131  1.9723
   33MOL   H18120725   0.556   0.656   2.765 -0.0674  0.8205  0.1808
   33MOL   H18220726   0.373   0.608   2.924 -1.9747  1.0080 -1.3031
   33MOL   H18320727   0.397   0.436   2.911  1.7189  0.8379 -0.0878
   33MOL   H18420728   0.176   0.566   2.902 -2.2836  1.9059  0.1753
   33MOL   H18520729   0.056   0.579   2.630 -2.8767 -1.4406 -0.3764
   33MOL   H18620730   0.017   0.692   2.753  0.3727 -0.5493  1.2595
   33MOL   H18720731   7.701   0.389   2.787  0.4054 -0.4315 -2.4532
   33MOL   H18820732   7.622   0.512   2.890  0.1864 -0.7801 -0.2565
   33MOL   H18920733   7.556   0.465   2.607 -0.2910  0.1918 -0.1077
   33MOL   H19020734   7.456   0.564   2.718  0.2360 -0.0771  0.4765
   33MOL   H19120735   7.339   0.356   2.683  0.4630 -1.7035 -1.4905
   33MOL   H19220736   7.389   0.329   2.840  3.3595 -1.2556  0.3119
   33MOL   H19320737   7.535   0.159   2.765  1.8225  0.1404 -0.3651
   33MOL   C19420738   7.506   0.162   2.574 -0.0575  0.4060 -0.3116
   33MOL   O19520739   7.590   0.080   2.544  0.2705  0.3683 -0.3658
   33MOL   C19620740   7.405   0.207   2.467  0.9662 -0.2487 -0.4080
   33MOL   C19720741   7.381   0.108   2.351  0.4428  0.5796 -0.3606
   33MOL   C19820742   7.243   0.118   2.290  0.5348 -0.4006 -0.4820
   33MOL   C19920743   7.208   0.253   2.213  0.4742 -0.1482  0.1718
   33MOL   C20020744   7.289   0.261   2.077 -0.1643 -0.0161  0.6190
   33MOL   O20120745   7.275   0.174   1.989 -0.4378 -0.0250  0.0794
   33MOL   N20220746   7.353   0.374   2.050  0.0678 -0.0717 -0.3855
   33MOL   C20320747   7.430   0.414   1.933 -0.0187 -0.0617  0.7008
   33MOL   C20420748   7.339   0.442   1.809 -0.2667  0.1971  0.2186
   33MOL   C20520749   7.407   0.529   1.706 -0.2772  0.8223  0.1260
   33MOL   C20620750   7.329   0.568   1.575 -0.0049  0.7677 -0.2287
   33MOL   N20720751   7.296   0.452   1.498 -1.2659  0.1937  0.1314
   33MOL   H20820752   7.308   0.220   2.515  2.2507  0.6975  2.0412
   33MOL   H20920753   7.452   0.293   2.419  2.2256 -1.1336 -0.8121
   33MOL   H21020754   7.451   0.123   2.269 -1.2518  1.2726 -1.7236
   33MOL   H21120755   7.390   0.006   2.389 -1.0963 -0.5198 -2.7322
   33MOL   H21220756   7.171   0.107   2.372  0.3979  1.2884 -0.3532
   33MOL   H21320757   7.238   0.027   2.231  1.9627 -0.8714  0.1082
   33MOL   H21420758   7.229   0.340   2.276 -2.6652  2.8696 -2.7422
   33MOL   H21520759   7.100   0.258   2.204  0.4188 -2.0337 -0.3646
   33MOL   H21620760   7.349   0.447   2.120  0.1645  0.3122 -0.7790
   33MOL   H21720761   7.508   0.339   1.918 -0.0570 -0.2873  1.6087
   33MOL   H21820762   7.483   0.508   1.952 -0.5967  0.0772  1.6556
   33MOL   H21920763   7.289   0.352   1.773 -0.2101  0.3428 -0.2252
   33MOL   H22020764   7.254   0.495   1.851 -1.4501 -0.3095 -1.4846
   33MOL   H22120765   7.499   0.474   1.686 -0.6593  0.8970 -1.9405
   33MOL   H22220766   7.412   0.625   1.758 -1.6795  1.2590 -0.5160
   33MOL   H22320767   7.400   0.621   1.511  0.5227  1.8269  1.2051
   33MOL   H22420768   7.252   0.645   1.587  1.1576  2.0562 -0.9624
   33MOL   H22520769   7.375   0.393   1.474 -0.9091  1.5620 -2.2267
   33MOL   C22620770   7.180   0.398   1.483  0.2631  0.2567  0.1933
   33MOL   O22720771   7.075   0.459   1.511 -0.1725  0.5316  0.3477
   33MOL   C22820772   7.177   0.253   1.455  0.0017 -0.2560 -0.1143
   33MOL   C22920773   7.147   0.232   1.302 -0.1543 -0.0697  0.2870
   33MOL   C23020774   7.001   0.265   1.257 -0.5291 -0.7867 -0.1262
   33MOL   C23120775   6.892   0.184   1.334  0.0574  0.2408 -0.0138
   33MOL   C23220776   6.895   0.035   1.303 -0.4059 -0.8126 -0.7399
   33MOL   O23320777   6.887   7.698   1.184  0.4085  0.3194  0.5310
   33MOL   N23420778   6.894   7.653   1.403  0.1989  0.7490  0.5028
   33MOL   C23520779   6.919   7.508   1.393 -1.0367 -0.5072 -0.3899
   33MOL   C23620780   6.795   7.420   1.379  0.0193 -0.6336  0.6713
   33MOL   C23720781   6.833   7.274   1.368  0.0573 -0.1796  0.3901
   33MOL   C23820782   6.713   7.178   1.370  0.3045 -0.5331  0.4057
   33MOL   N23920783   6.753   7.036   1.351  0.3728 -0.4322 -0.1063
   33MOL   H24020784   7.276   0.218   1.482 -0.5764 -0.8493  1.3047
   33MOL   H24120785   7.121   0.185   1.519  2.2144 -2.0356  0.0041
   33MOL   H24220786   7.215   0.285   1.235 -0.7805  2.6704  1.7231
   33MOL   H24320787   7.157   0.126   1.283 -2.8773 -0.1013 -1.1981
   33MOL   H24420788   6.990   0.248   1.150 -1.0085 -3.3341  0.2927
   33MOL   H24520789   6.984   0.371   1.275 -0.7633 -0.9748  0.8088
   33MOL   H24620790   6.791   0.208   1.301  0.8031  0.7257 -2.0141
   33MOL   H24720791   6.890   0.202   1.442  2.0137  1.8288 -0.2115
   33MOL   H24820792   6.900   7.691   1.497 -1.1157  0.7730  0.5796
   33MOL   H24920793   6.969   7.479   1.485 -1.9041 -0.1345  0.1950
   33MOL   H25020794   6.985   7.484   1.309  2.0181 -0.3986  1.8864
   33MOL   H25120795   6.719   7.443   1.453  0.1396 -2.1054  1.2555
   33MOL   H25220796   6.740   7.461   1.294  1.4394 -0.8206 -0.3675
   33MOL   H25320797   6.912   7.248   1.439 -0.2479 -2.7522 -0.1844
   33MOL   H25420798   6.881   7.269   1.270  0.7282 -0.5998  0.7324
   33MOL   H25520799   6.643   7.201   1.289 -2.4991  1.2379  3.2344
   33MOL   H25620800   6.653   7.189   1.460  0.3054  0.2237  0.3194
   33MOL   H25720801   6.795   7.005   1.264  1.1343  1.0127 -0.2743
   33MOL   C25820802   6.736   6.932   1.430 -0.1741 -0.4491 -0.0834
   33MOL   O25920803   6.676   6.948   1.538  0.1274 -0.1024 -0.2142
   33MOL   C26020804   6.786   6.797   1.375 -0.5834 -0.3753 -0.3908
   33MOL   C26120805   6.692   6.677   1.409 -0.6117  0.8466 -0.1032
   33MOL   C26220806   6.547   6.663   1.347 -0.0725 -0.1692 -0.2403
   33MOL   C26320807   6.448   6.782   1.368  0.3039 -0.3840  0.1629
   33MOL   C26420808   6.299   6.742   1.344  0.4307 -0.3501  0.7134
   33MOL   O26520809   6.252   6.632   1.372  0.4830 -0.6183  0.0536
   33MOL   N26620810   6.218   6.837   1.292 -0.0698 -0.2823  0.3225
   33MOL   C26720811   6.079   6.829   1.289 -0.0481  0.1050  0.0459
   33MOL   C26820812   6.005   6.861   1.420 -0.3679 -0.4558  0.7085
   33MOL   C26920813   6.021   7.004   1.471 -0.0312  0.1340 -0.1340
   33MOL   C27020814   6.146   7.019   1.556  0.1328 -0.5073  0.0398
   33MOL   N27120815   6.218   7.146   1.535  0.0294 -0.0401 -0.4185
   33MOL   H27220816   6.801   6.809   1.268  2.4626  2.5120  0.2684
   33MOL   H27320817   6.883   6.787   1.425 -0.4849 -0.8356 -0.6664
   33MOL   H27420818   6.758   6.596   1.379 -2.5529 -0.6669 -0.3736
   33MOL   H27520819   6.680   6.677   1.518 -0.7040  2.8166 -0.0798
   33MOL   H27620820   6.496   6.572   1.378 -1.1451  0.8302  1.0003
   33MOL   H27720821   6.564   6.654   1.239 -0.1363  1.8534 -0.4383
   33MOL   H27820822   6.477   6.860   1.298  0.8905  0.3806  1.2486
   33MOL   H27920823   6.455   6.814   1.472 -0.5171  1.1136 -0.2323
   33MOL   H28020824   6.259   6.928   1.279  0.8777 -0.2624  3.1858
   33MOL   H28120825   6.047   6.727   1.272 -1.3550  0.4589  0.3274
   33MOL   H28220826   6.033   6.888   1.211 -0.6021 -1.7304 -1.0352
   33MOL   H28320827   5.904   6.830   1.397 -0.5828 -2.0868  3.6639
   33MOL   H28420828   6.038   6.797   1.502  1.5302 -0.5677 -0.1191
   33MOL   H28520829   5.932   7.043   1.521 -1.0308  1.0438 -2.5722
   33MOL   H28620830   6.022   7.060   1.378 -0.7353 -0.9438 -0.8100
   33MOL   H28720831   6.220   6.942   1.535  0.6185 -0.4510  1.5068
   33MOL   H28820832   6.119   7.013   1.661 -0.1718  1.1686  0.0778
   33MOL   H28920833   6.198   7.220   1.600  0.7183 -1.5268  1.5361
   33MOL   C29020834   6.310   7.168   1.442 -0.7584  0.4359  0.1204
   33MOL   O29120835   6.349   7.077   1.367  0.1934  0.1152  0.1809
   33MOL   C29220836   6.362   7.307   1.419 -0.0013 -0.3634  0.2300
   33MOL   C29320837   6.321   7.356   1.279  0.1201 -0.3925  0.1143
   33MOL   C29420838   6.420   7.462   1.214  0.2527  0.1133 -0.3355
   33MOL   C29520839   6.409   7.594   1.289 -0.0585 -0.7079 -0.3753
   33MOL   C29620840   6.269   7.657   1.291 -0.0244 -0.4649  0.8704
   33MOL   O29720841   6.206   7.667   1.185 -0.3747  0.2169 -0.0658
   33MOL   N29820842   6.221   0.007   1.407  0.0775  0.2680 -0.0036
   33MOL   C29920843   6.108   0.096   1.409  0.3570 -0.0290 -0.1372
   33MOL   C30020844   6.162   0.240   1.377 -0.1955 -0.2449  0.2591
   33MOL   C30120845   6.050   0.337   1.352 -0.3802 -0.0359 -0.1025
   33MOL   C30220846   6.087   0.477   1.310 -0.3821  0.3176  0.4648
   33MOL   N30320847   6.187   0.480   1.203  0.4803 -0.2777  0.2373
   33MOL   H30420848   6.330   7.376   1.497 -0.2155 -0.5299  0.2897
   33MOL   H30520849   6.470   7.299   1.427  0.0406  0.0192  0.0537
   33MOL   H30620850   6.317   7.275   1.207  1.9433  0.2757 -0.7669
   33MOL   H30720851   6.221   7.400   1.289  0.2297  0.2503 -1.4198
   33MOL   H30820852   6.385   7.468   1.111  0.2856 -1.2693 -0.4422
   33MOL   H30920853   6.518   7.416   1.226  0.1041 -0.2740 -0.5800
   33MOL   H31020854   6.487   7.668   1.271 -1.6827  0.9860 -0.5567
   33MOL   H31120855   6.432   7.568   1.392  0.6984 -1.7309 -0.7875
   33MOL   H31220856   6.267   7.692   1.495 -3.9005  0.1751  2.1650
   33MOL   H31320857   6.066   0.097   1.510  2.3518 -1.2392  0.7508
   33MOL   H31420858   6.030   0.064   1.341 -0.1906 -0.4911  0.6944
   33MOL   H31520859   6.225   0.274   1.460 -0.6256 -1.9234  1.2915
   33MOL   H31620860   6.228   0.240   1.291 -1.3626  0.9042 -0.6575
   33MOL   H31720861   5.998   0.346   1.448  1.4957  1.3302  0.8176
   33MOL   H31820862   5.984   0.292   1.277  0.3702 -0.9883 -0.1988
   33MOL   H31920863   6.124   0.534   1.395 -0.4772  0.1224  0.6363
   33MOL   H32020864   5.996   0.533   1.286  0.7822  0.9635 -2.7016
   33MOL   H32120865   6.284   0.479   1.231  0.6462  1.0724 -0.2336
   33MOL   C32220866   6.159   0.470   1.078  0.2679  0.0408  0.9534
   33MOL   O32320867   6.047   0.477   1.033  0.1309 -0.2758 -0.0735
   33MOL   C32420868   6.277   0.466   0.978  0.0004  0.1551  0.4623
   33MOL   C32520869   6.279   0.346   0.879  0.0509  0.1690 -0.6962
   33MOL   C32620870   6.393   0.362   0.781 -0.5413 -0.0501 -0.2095
   33MOL   C32720871   6.344   0.459   0.672 -0.4143  0.0595  0.1743
   33MOL   C32820872   6.439   0.476   0.554  0.8778 -0.2131  0.6484
   33MOL   O32920873   6.533   0.554   0.549 -0.0892 -0.0957  0.1611
   33MOL   N33020874   6.401   0.398   0.450 -0.2574 -0.3065  0.0752
   33MOL   C33120875   6.438   0.437   0.308 -0.5445  0.3488  0.3549
   33MOL   C33220876   6.516   0.321   0.250  0.1015  0.1506 -0.2575
   33MOL   C33320877   6.567   0.350   0.106  0.6528 -0.3573  0.6428
   33MOL   C33420878   6.669   0.251   0.052  0.1358  0.0968  0.4306
   33MOL   N33520879   6.600   0.124   0.029 -0.4655  0.8074 -0.8262
   33MOL   H33620880   6.271   0.563   0.929  2.7238  1.1201  1.9666
   33MOL   H33720881   6.369   0.465   1.036 -0.5734 -0.5964  1.3794
   33MOL   H33820882   6.289   0.251   0.930 -1.7375 -0.0154 -0.6799
   33MOL   H33920883   6.185   0.321   0.830 -0.3967 -0.8987  0.6770
   33MOL   H34020884   6.415   0.261   0.746  0.5884 -0.9157  2.8183
   33MOL   H34120885   6.485   0.402   0.824  0.9244 -1.4463 -1.9916
   33MOL   H34220886   6.328   0.561   0.707  1.0894  0.4901 -0.3453
   33MOL   H34320887   6.246   0.432   0.634 -0.7281 -1.4732  2.0124
   33MOL   H34420888   6.330   0.328   0.466  0.7671 -0.7447  2.9615
   33MOL   H34520889   6.490   0.532   0.301  0.1896 -0.1818 -1.8484
   33MOL   H34620890   6.348   0.448   0.248  0.6584  0.4882 -1.4560
   33MOL   H34720891   6.596   0.292   0.318 -0.1470  0.8215  0.3284
   33MOL   H34820892   6.449   0.236   0.249  1.8458 -1.2650  1.4955
   33MOL   H34920893   6.619   0.446   0.110  0.9633 -0.3452 -2.4895
   33MOL   H35020894   6.479   0.370   0.044  2.7059  1.0562 -1.9231
   33MOL   H35120895   6.753   0.238   0.121 -1.6247  0.6225  2.7497
   33MOL   H35220896   6.718   0.281   7.661  1.0851 -0.7580  0.6445
   33MOL   H35320897   6.506   0.112   0.063 -0.2117  1.3999  0.0935
   33MOL   C35420898   6.662   0.020   7.674 -0.3934 -0.0985  0.4865
   33MOL   O35520899   6.783   0.024   7.632  0.2043 -0.0088 -0.4299
   33MOL   C35620900   6.573   7.607   7.655 -0.3889  1.2875 -0.0909
   33MOL   C35720901   6.589   7.539   7.518 -0.4545 -0.3593 -0.1590
   33MOL   C35820902   6.490   7.422   7.492  0.5518  0.1355  0.2531
   33MOL   C35920903   6.532   7.287   7.560  0.2503 -0.0038 -0.8406
   33MOL   C36020904   6.641   7.210   7.490 -0.2828  1.3012  0.3031
   33MOL   O36120905   6.730   7.271   7.431  0.4927 -0.6782 -0.0540
   33MOL   N36220906   6.639   7.077   7.490  0.5394  0.3473 -0.5213
   33MOL   C36320907   6.711   6.989   7.395  0.0120 -0.0300 -0.0773
   33MOL   C36420908   6.859   6.968   7.426 -0.0518 -0.8169  0.0507
   33MOL   C36520909   6.911   6.851   7.349 -1.4685  0.3771  0.2322
   33MOL   C36620910   7.059   6.824   7.379  0.0156  0.1153  0.2045
   33MOL   N36720911   7.145   6.920   7.318 -0.2551  0.2038 -0.2223
   33MOL   H36820912   6.596   7.537   0.033  1.5014  0.3609 -1.4130
   33MOL   H36920913   6.467   7.628   7.671 -0.9510 -0.0338 -1.8695
   33MOL   H37020914   6.577   7.624   7.450  0.2465 -0.5996 -0.5844
   33MOL   H37120915   6.691   7.502   7.515  0.1573  1.3946 -1.7917
   33MOL   H37220916   6.496   7.415   7.384 -2.3174  0.8690  0.0140
   33MOL   H37320917   6.388   7.451   7.520  1.4667 -0.8809  5.1400
   33MOL   H37420918   6.443   7.226   7.575 -0.9851  1.9595  0.0745
   33MOL   H37520919   6.572   7.309   7.659  0.8546 -0.9396 -0.8736
   33MOL   H37620920   6.557   7.035   7.532  0.4691  0.2215 -0.7883
   33MOL   H37720921   6.713   7.033   7.295 -0.2206 -2.5334 -1.2307
   33MOL   H37820922   6.663   6.891   7.398  0.2724 -0.1983 -1.0983
   33MOL   H37920923   6.919   7.056   7.403 -2.2497  0.7253  0.0280
   33MOL   H38020924   6.863   6.938   7.531 -2.7844 -1.6993 -0.0485
   33MOL   H38120925   6.892   6.859   7.242 -1.1561  2.4623  0.3161
   33MOL   H38220926   6.856   6.766   7.387 -3.4905  1.6349  0.2073
   33MOL   H38320927   7.094   6.730   7.337 -0.9737  0.0686 -0.5073
   33MOL   H38420928   7.077   6.828   7.487  3.1663  2.1736 -0.3325
   33MOL   H38520929   7.117   6.978   7.240  1.2768  1.3673  0.0671
   33MOL   C38620930   7.276   6.931   7.352 -0.4278  0.1184  0.6892
   33MOL   O38720931   7.324   6.868   7.449 -0.3941 -0.0315 -0.7011
   33MOL   C38820932   7.361   7.024   7.270 -0.2634 -0.3225 -0.3856
   33MOL   C38920933   7.504   6.975   7.232 -0.3533 -0.2434 -0.3324
   33MOL   C39020934   7.613   6.979   7.340 -0.0297  0.3888 -0.9938
   33MOL   C39120935   7.674   7.113   7.369  0.3679 -0.5740  0.3561
   33MOL   C39220936   0.112   7.108   7.445  0.3263 -0.0096 -0.3695
   33MOL   O39320937   0.205   7.056   7.395  0.1305  0.0827 -0.0301
   33MOL   N39420938   0.131   7.191   7.550 -0.3806 -0.6155  0.0157
   33MOL   C39520939   0.256   7.222   7.621  0.0459  0.1534  0.0006
   33MOL   C39620940   0.314   7.355   7.594 -0.0710  0.0310 -0.0194
   33MOL   C39720941   0.412   7.414   7.700 -0.3816  0.7497  0.0083
   33MOL   C39820942   0.409   7.572   7.684 -0.3177  0.4590  0.2043
   33MOL   N39920943   0.508   7.616   7.583  0.6520 -1.2949  0.7687
   33MOL   H40020944   7.320   7.047   7.172  0.6998  1.9103 -0.2847
   33MOL   H40120945   7.360   7.117   7.327  1.1037 -0.1979 -0.5508
   33MOL   H40220946   7.496   6.872   7.197  1.3793 -0.4385 -0.2052
   33MOL   H40320947   7.535   7.039   7.150  0.3057  0.9809  0.8488
   33MOL   H40420948   7.694   6.911   7.314  1.4664  1.4829  0.6909
   33MOL   H40520949   7.574   6.942   7.434  0.3219 -0.4037 -1.1590
   33MOL   H40620950   7.604   7.190   7.402  0.1793 -0.0790 -1.1557
   33MOL   H40720951   7.698   7.143   7.267 -1.2456 -0.0457  0.1107
   33MOL   H40820952   0.052   7.243   7.586 -1.1887 -0.7390 -1.5212
   33MOL   H40920953   0.335   7.148   7.609  1.6452  1.8699 -0.2658
   33MOL   H41020954   0.222   7.222   0.023  0.8968 -2.0606  0.3121
   33MOL   H41120955   0.368   7.350   7.500 -1.2559 -0.9058 -0.6664
   33MOL   H41220956   0.223   7.416   7.586  0.2724  1.1448  3.6369
   33MOL   H41320957   0.506   7.360   7.695 -1.6361 -1.3926 -1.4262
   33MOL   H41420958   0.387   7.402   0.104  0.1669  2.0234  0.2962
   33MOL   H41520959   0.435   7.625   0.074 -3.7230  0.5957  1.1546
   33MOL   H41620960   0.314   7.617   7.655 -0.1068  0.3041 -0.7606
   33MOL   H41720961   0.606   7.600   7.597  1.0281 -1.5317 -1.8304
   33MOL   C41820962   0.485   7.638   7.450  0.6245  0.8404 -0.4224
   33MOL   O41920963   0.371   7.639   7.414  0.4965 -0.4762 -0.3129
   33MOL   C42020964   0.611   7.647   7.362 -0.4221 -0.1016 -0.2937
   33MOL   C42120965   0.577   7.656   7.202  0.4913  0.4737  0.4923
   33MOL   C42220966   0.490   0.077   7.156  0.0562 -0.0883  0.0554
   33MOL   C42320967   0.449   0.089   7.011  0.0975  0.4177 -0.3541
   33MOL   C42420968   0.561   0.083   6.909 -0.0484 -0.2899 -0.6319
   33MOL   O42520969   0.630   0.182   6.899 -0.4088  0.2954 -0.2545
   33MOL   N42620970   0.586   7.671   6.843  0.3045 -0.1740  0.6425
   33MOL   C42720971   0.682   7.652   6.735  0.2774  0.5472 -0.5652
   33MOL   C42820972   0.820   7.590   6.769  0.4026 -0.2982  0.0887
   33MOL   C42920973   0.917   7.581   6.645 -0.2192 -0.2460  0.0740
   33MOL   C43020974   1.064   7.553   6.697  0.2576 -0.0749 -0.3050
   33MOL   N43120975   1.156   7.538   6.587 -0.3000  0.1076  0.2973
   33MOL   H43220976   0.670   0.030   7.397  0.5862 -0.2982 -1.4965
   33MOL   H43320977   0.670   7.556   7.375 -0.6185 -0.1857  0.0103
   33MOL   H43420978   0.663   7.658   7.135 -0.8347 -0.2770 -1.2933
   33MOL   H43520979   0.535   7.563   7.164  1.2103  0.1113  0.5684
   33MOL   H43620980   0.557   0.162   7.172 -1.0409  0.7171  0.4305
   33MOL   H43720981   0.400   0.080   7.217 -0.6062  1.5383 -0.9687
   33MOL   H43820982   0.399   0.180   6.978 -1.6370 -0.9434 -1.5801
   33MOL   H43920983   0.379   0.012   6.978  0.5173 -1.3348  2.7371
   33MOL   H44020984   0.520   7.594   6.852 -0.6519  0.6728  0.9729
   33MOL   H44120985   0.701   0.045   6.683  3.2211 -0.1429 -0.8152
   33MOL   H44220986   0.628   7.599   6.657  3.0270 -0.8617 -1.5437
   33MOL   H44320987   0.872   7.647   6.846 -0.9528  2.6443 -1.1040
   33MOL   H44420988   0.810   7.494   6.819  0.1547 -0.2522  0.1258
   33MOL   H44520989   0.919   7.675   6.590 -1.9918  0.3266  0.9539
   33MOL   H44620990   0.888   7.508   6.571  1.5455  0.6302 -1.5313
   33MOL   H44720991   1.074   7.460   6.753  2.8040  1.5624  2.0613
   33MOL   H44820992   1.113   7.626   6.761  2.2554 -1.0348 -0.7030
   33MOL   H44920993   1.188   7.620   6.538  0.0486  0.0125  0.3672
   33MOL   C45020994   1.213   7.421   6.554  0.1809 -0.4022  0.2007
   33MOL   O45120995   1.183   7.310   6.603 -0.6528  0.8211 -0.1295
   33MOL   C45220996   1.318   7.425   6.445 -0.6900  0.2551 -0.0333
   33MOL   C45320997   1.291   7.323   6.334  0.0239 -0.2494 -0.3646
   33MOL   C45420998   1.414   7.292   6.244  0.8229  0.2385  0.3999
   33MOL   C45520999   1.448   7.411   6.146 -0.1951 -0.2145 -0.0852
   33MOL   C45621000   1.565   7.372   6.054 -0.1902 -0.5858  0.1261
   33MOL   O45721001   1.682   7.405   6.082  0.2700 -0.1234 -0.0173
   33MOL   N45821002   1.531   7.309   5.939  0.5619 -0.2975 -0.2088
   33MOL   C45921003   1.634   7.263   5.843 -0.6188  0.8955  0.3292
   33MOL   C46021004   1.683   7.118   5.870  0.0696 -0.2911  0.3914
   33MOL   C46121005   1.813   7.079   5.799  0.1588  0.3570 -0.0627
   33MOL   C46221006   1.943   7.120   5.866  0.0811 -0.3346 -0.1783
   33MOL   N46321007   2.051   7.108   5.768  0.2246  0.1284  0.0094
   33MOL   H46421008   1.322   7.524   6.400 -1.7133 -0.5751 -1.9831
   33MOL   H46521009   1.416   7.390   6.480 -1.4902 -1.3681  0.6447
   33MOL   H46621010   1.253   7.228   6.371 -0.1845 -0.4488 -1.0911
   33MOL   H46721011   1.212   7.357   6.268  0.4864  0.1136 -0.7339
   33MOL   H46821012   1.388   7.205   6.184 -0.8713  0.4420  0.8030
   33MOL   H46921013   1.497   7.247   6.299 -0.6026  0.3623  2.7553
   33MOL   H47021014   1.471   7.504   6.198 -1.0376 -1.1396  2.0382
   33MOL   H47121015   1.360   7.427   6.083 -0.3768  0.9443  0.4412
   33MOL   H47221016   1.434   7.282   5.933  0.0522  0.5268  3.2675
   33MOL   H47321017   1.726   7.320   5.854 -1.2449  2.1295 -0.7437
   33MOL   H47421018   1.592   7.264   5.742 -3.1103  1.6092  1.3184
   33MOL   H47521019   1.685   7.096   5.977 -0.9144  0.6719  0.6223
   33MOL   H47621020   1.606   7.052   5.829  0.3714 -1.1557  1.2140
   33MOL   H47721021   1.809   7.131   5.704  1.6618  0.6418  0.0202
   33MOL   H47821022   1.820   6.971   5.783  1.2590 -0.0020  2.5732
   33MOL   H47921023   1.960   7.051   5.950  0.4876  0.9771  0.8349
   33MOL   H48021024   1.928   7.217   5.913 -0.7928 -0.7115  0.3361
   33MOL   H48121025   2.045   7.037   5.696  0.9981 -0.0789  0.1421
   33MOL   C48221026   2.165   7.184   5.781 -0.3378 -0.2796  0.1880
   33MOL   O48321027   2.168   7.275   5.865  0.2175 -0.3687 -0.0009
   33MOL   C48421028   2.284   7.176   5.686 -0.2061  0.1604  0.2339
   33MOL   C48521029   2.389   7.080   5.752 -0.5145 -0.2453 -0.0680
   33MOL   C48621030   2.466   7.142   5.868 -0.3949 -0.0621  0.0663
   33MOL   C48721031   2.574   7.043   5.917  0.5411  0.6739  0.6345
   33MOL   C48821032   2.605   7.089   6.059  0.9990 -0.0359  0.2405
   33MOL   O48921033   2.646   7.205   6.070  0.5365 -0.1022 -0.3026
   33MOL   N49021034   2.594   6.997   6.151  0.2151  0.6074 -0.0273
   33MOL   C49121035   2.666   7.010   6.277 -0.0584  0.2918  0.5584
   33MOL   C49221036   2.609   7.125   6.364  0.1902 -0.7013  0.3164
   33MOL   C49321037   2.461   7.106   6.406  0.7384  0.1912 -0.4715
   33MOL   C49421038   2.447   6.995   6.498  0.3740 -0.4734 -0.6684
   33MOL   N49521039   2.325   7.008   6.580 -0.3937  0.3278 -0.3201
   33MOL   H49621040   2.255   7.136   5.589  0.1805 -2.7957  1.3047
   33MOL   H49721041   2.325   7.277   5.681  1.6355 -0.5067  1.1932
   33MOL   H49821042   2.341   6.989   5.788 -1.6695  1.4790  2.9310
   33MOL   H49921043   2.460   7.057   5.672 -0.9055 -1.5569 -0.0385
   33MOL   H50021044   2.402   7.170   5.951  0.8069 -0.9203  1.3179
   33MOL   H50121045   2.513   7.235   5.837  0.7950 -0.8021 -0.3930
   33MOL   H50221046   2.666   7.052   5.859  0.1440  2.6641  0.2581
   33MOL   H50321047   2.547   6.938   5.913 -0.4055  0.9480 -0.4731
   33MOL   H50421048   2.580   6.901   6.123  1.5194  0.1102  0.9856
   33MOL   H50521049   2.772   7.029   6.265 -0.0006 -1.4477 -1.8559
   33MOL   H50621050   2.659   6.919   6.336  1.7388  0.8164  1.6202
   33MOL   H50721051   2.667   7.138   6.455  0.1247  0.5583  0.1874
   33MOL   H50821052   2.631   7.221   6.318 -1.8908 -0.7833 -0.9644
   33MOL   H50921053   2.390   7.105   6.322  0.6529 -0.0600 -0.3987
   33MOL   H51021054   2.436   7.198   6.458 -1.9880 -0.9470  0.3359
   33MOL   H51121055   2.528   6.988   6.570 -1.3995 -2.4450  1.2364
   33MOL   H51221056   2.453   6.898   6.449 -1.4943 -0.5748 -0.7435
   33MOL   H51321057   2.328   7.076   6.655  1.9903  0.8186 -0.8397
   33MOL   C51421058   2.214   6.932   6.571 -0.3777 -0.7517 -0.3945
   33MOL   O51521059   2.199   6.849   6.483  0.2251  0.1400 -0.0780
   33MOL   C51621060   2.105   6.954   6.682 -0.0821 -0.2690  0.0003
   33MOL   C51721061   2.117   6.860   6.808  0.4848  0.5550  0.0859
   33MOL   C51821062   2.249   6.871   6.880  0.2560 -0.2032 -0.0503
   33MOL   C51921063   2.258   6.779   7.002 -0.4313  0.2791 -0.1273
   33MOL   C52021064   2.396   6.810   7.062  0.1390 -0.1109  0.2034
   33MOL   O52121065   2.500   6.798   6.998  0.3223  0.4573 -0.1838
   33MOL   N52221066   2.414   6.846   7.191 -0.0290  0.2988 -0.1572
   33MOL   C52321067   2.302   6.883   7.280  0.2049 -0.1858  0.0587
   33MOL   C52421068   2.353   6.901   7.426  0.4453 -0.2070  0.9535
   33MOL   C52521069   2.231   6.913   7.527 -0.6182  0.2124 -0.2829
   33MOL   C52621070   2.260   6.938   7.676  0.0263  0.0275  0.8287
   33MOL   N52721071   2.154   6.959   0.069  1.2313 -0.0162 -0.0953
   33MOL   H52821072   2.105   7.059   6.712  0.3612 -0.4876  0.7779
   33MOL   H52921073   2.006   6.935   6.641  1.1146 -0.7662 -2.8382
   33MOL   H53021074   2.047   6.900   6.882  0.5490 -0.7031  0.8591
   33MOL   H53121075   2.106   6.756   6.776 -1.3949  0.8167 -0.1876
   33MOL   H53221076   2.262   6.977   6.901 -2.5755  0.3710 -0.9990
   33MOL   H53321077   2.325   6.847   6.807 -0.8037 -1.8990 -0.6459
   33MOL   H53421078   2.249   6.678   6.963 -3.0496  0.8054 -0.9724
   33MOL   H53521079   2.175   6.788   7.073 -0.1402  2.7575 -0.0286
   33MOL   H53621080   2.505   6.886   7.207 -0.5925  1.2761  0.7069
   33MOL   H53721081   2.215   6.817   7.277  0.4383 -0.5877  1.8171
   33MOL   H53821082   2.255   6.977   7.251 -0.1516  0.2513  1.9840
   33MOL   H53921083   2.417   6.825   7.472  1.4807  0.5231  0.7346
   33MOL   H54021084   2.415   6.990   7.429  2.8644 -1.7530 -0.6491
   33MOL   H54121085   2.158   6.833   7.515 -0.9410  0.5922 -0.8719
   33MOL   H54221086   2.173   6.998   7.492 -0.7962 -0.4340 -1.6015
   33MOL   H54321087   2.336   7.017   7.675  2.1900 -1.9738 -1.3826
   33MOL   H54421088   2.332   6.862   0.006 -0.5373 -1.6741 -1.8470
   33MOL   H54521089   2.132   7.054   0.095  0.9102  0.1163 -0.8638
   33MOL   C54621090   2.106   6.860   0.149  0.0463  0.2394 -0.0652
   33MOL   O54721091   2.133   6.739   0.147  0.1233  0.4638  0.0329
   33MOL   C54821092   2.003   6.900   0.255 -0.3151  0.0056 -0.0169
   33MOL   C54921093   2.000   6.811   0.381  0.1783  0.2886 -0.2205
   33MOL   C55021094   1.933   6.676   0.381  0.3928  0.0849 -0.1626
   33MOL   C55121095   1.937   6.601   0.511 -0.8840  0.3998 -1.0252
   33MOL   C55221096   1.839   6.481   0.516 -0.6206  1.0127 -0.7204
   33MOL   O55321097   1.836   6.391   0.431  0.1488 -0.1321  0.1105
   33MOL   N55421098   1.757   6.483   0.621 -0.0118 -0.4673 -0.2031
   33MOL   C55521099   1.645   6.386   0.633 -0.4245 -0.4813 -0.0190
   33MOL   C55621100   1.546   6.436   0.739  0.4992  0.1762  0.2932
   33MOL   C55721101   1.488   6.578   0.707  0.0132 -0.4092 -0.7274
   33MOL   C55821102   1.410   6.648   0.822  0.0370 -0.4196  0.3499
   33MOL   N55921103   1.281   6.580   0.850 -0.1540  0.0877 -0.2033
   33MOL   H56021104   2.016   7.005   0.282  1.7191  0.3453 -2.1647
   33MOL   H56121105   1.908   6.896   0.200 -0.4569 -2.7058  0.3410
   33MOL   H56221106   2.105   6.801   0.410  0.5224  0.8799 -1.2333
   33MOL   H56321107   1.960   6.874   0.461 -0.9319  0.4815 -0.9212
   33MOL   H56421108   1.982   6.610   0.310  0.8104  0.4353 -0.2030
   33MOL   H56521109   1.830   6.680   0.345  0.8207 -1.9800 -1.7248
   33MOL   H56621110   1.910   6.667   0.593  2.7620 -2.3613  2.5736
   33MOL   H56721111   2.039   6.567   0.526 -0.6314  1.6720  0.2810
   33MOL   H56821112   1.765   6.557   0.689  5.5378  1.9823 -3.1771
   33MOL   H56921113   1.690   6.288   0.647 -3.3216 -1.7726  0.7535
   33MOL   H57021114   1.597   6.382   0.536 -0.1904  0.3392 -0.1735
   33MOL   H57121115   1.475   6.353   0.745  2.0371 -1.2687 -0.8855
   33MOL   H57221116   1.603   6.435   0.832  1.6324  1.7528 -0.3651
   33MOL   H57321117   1.422   6.565   0.622 -1.2871 -2.1752  0.5204
   33MOL   H57421118   1.553   6.659   0.674  1.3504 -1.4943 -0.7995
   33MOL   H57521119   1.383   6.747   0.786 -0.5086 -1.0152 -0.9083
   33MOL   H57621120   1.468   6.660   0.914 -0.8291 -1.5579  1.0640
   33MOL   H57721121   1.256   6.488   0.817  0.3656 -0.1512  0.0606
   33MOL   C57821122   1.198   6.639   0.941  0.4817  0.2364  0.6706
   33MOL   O57921123   1.227   6.740   1.007 -0.1406  0.1794 -0.2413
   33MOL   C58021124   1.051   6.583   0.940  0.5519  0.0944  0.6170
   33MOL   C58121125   0.940   6.697   0.941  0.5272  0.0002 -0.1686
   33MOL   C58221126   0.928   6.784   0.808  0.4553 -0.4184 -0.2219
   33MOL   C58321127   0.778   6.826   0.775  0.1860 -0.0983  0.3267
   33MOL   C58421128   0.746   6.947   0.861  0.0420 -0.2572 -0.3353
   33MOL   O58521129   0.802   7.052   0.839 -0.7675  0.1152 -0.4682
   33MOL   N58621130   0.652   6.925   0.955 -0.2231  1.0086  0.0398
   33MOL   C58721131   0.608   7.021   1.051 -0.1228 -0.0978 -0.2487
   33MOL   C58821132   0.497   7.112   0.992  0.4062  0.3645  0.0103
   33MOL   C58921133   0.395   7.022   0.922  0.1074 -0.4504  0.1992
   33MOL   C59021134   0.280   7.111   0.881  0.3689 -0.3432  0.5773
   33MOL   N59121135   0.196   7.040   0.781  0.2014  0.4114 -0.3768
   33MOL   H59221136   1.025   6.512   0.861 -0.1317 -0.0254  0.9414
   33MOL   H59321137   1.038   6.526   1.033 -0.1513  2.1687  1.8220
   33MOL   H59421138   0.838   6.657   0.941  1.0630 -1.4052 -1.2257
   33MOL   H59521139   0.959   6.766   1.023  1.9802 -0.7303  0.1276
   33MOL   H59621140   0.974   6.725   0.728  3.3761  0.3591  0.8413
   33MOL   H59721141   0.994   6.870   0.812 -0.3075  0.1730 -0.2637
   33MOL   H59821142   0.705   6.746   0.785 -1.1212  1.1506  0.9510
   33MOL   H59921143   0.775   6.841   0.667  2.5739 -0.1197  0.2104
   33MOL   H60021144   0.616   6.831   0.960 -2.0349  1.6610 -0.2806
   33MOL   H60121145   0.697   7.077   1.080  0.4655 -0.4886 -1.2875
   33MOL   H60221146   0.575   6.970   1.141  1.8713  1.4390  1.3787
   33MOL   H60321147   0.449   7.160   1.077  0.6920 -1.9462  1.5317
   33MOL   H60421148   0.532   7.185   0.918 -1.7703  1.8304  0.3911
   33MOL   H60521149   0.362   6.937   0.980  0.7365 -1.8744 -1.4854
   33MOL   H60621150   0.432   6.974   0.831 -1.2885 -1.0184 -0.0812
   33MOL   H60721151   0.323   7.193   0.824 -0.2599 -0.6162 -0.3012
   33MOL   H60821152   0.229   7.147   0.970  0.7640  3.2866 -0.5847
   33MOL   H60921153   0.247   7.001   0.702  0.2350  0.3197 -0.3093
   33MOL   C61021154   0.065   7.007   0.795  0.0994 -0.9902 -0.0268
   33MOL   O61121155   7.692   7.049   0.887 -0.3758 -0.0394 -0.5675
   33MOL   C61221156   0.006   6.903   0.698 -0.4350 -0.8900  0.7592
   33MOL   C61321157   0.095   6.775   0.690  0.2360 -0.3699  0.4393
   33MOL   C61421158   0.104   6.703   0.825  0.1601 -0.5780  0.2428
   33MOL   C61521159   0.199   6.584   0.812  0.0040 -0.2840  0.0421
   33MOL   C61621160   0.134   6.447   0.771  0.5129 -0.3824 -0.2423
   33MOL   O61721161   0.077   6.376   0.850  0.4814 -0.6806 -0.4087
   33MOL   N61821162   0.156   6.417   0.646  1.1618  0.1350 -0.4037
   33MOL   C61921163   0.095   6.300   0.583 -0.0434  0.0537 -0.0561
   33MOL   C62021164   0.164   6.171   0.607 -0.3178 -0.1887  0.1044
   33MOL   C62121165   0.291   6.156   0.512  0.1284 -0.2317 -0.0267
   33MOL   C62221166   0.350   6.015   0.516 -0.1971 -0.0189  0.3875
   33MOL   N62321167   0.424   6.022   0.642  0.0544  0.4179 -0.5973
   33MOL   H62421168   7.604   6.873   0.716 -0.1725 -1.8024  0.7795
   33MOL   H62521169   0.010   6.934   0.594  2.4683 -1.6481  0.6040
   33MOL   H62621170   0.038   6.711   0.623 -0.3575  0.0293  0.5578
   33MOL   H62721171   0.193   6.803   0.652  0.6078 -2.1546  0.0606
   33MOL   H62821172   0.005   6.666   0.849 -0.3688  0.3653 -0.4642
   33MOL   H62921173   0.146   6.775   0.894  0.9117 -1.2680  0.5232
   33MOL   H63021174   0.252   6.578   0.907  0.7685 -0.3063 -0.3830
   33MOL   H63121175   0.289   6.614   0.758  0.7932  1.3327  2.1741
   33MOL   H63221176   0.199   6.492   0.594 -0.6302  3.0452  2.1227
   33MOL   H63321177   0.075   6.328   0.480 -0.2036  0.1371 -0.0029
   33MOL   H63421178   7.697   6.287   0.627  0.4701 -2.4159  0.4306
   33MOL   H63521179   0.195   6.173   0.712  0.2760 -0.9140 -0.0475
   33MOL   H63621180   0.103   6.081   0.598 -1.1754  0.3361  0.6198
   33MOL   H63721181   0.361   6.238   0.527 -0.2076 -0.1106  0.8668
   33MOL   H63821182   0.249   6.174   0.414 -0.3243  1.8012  0.5324
   33MOL   H63921183   0.415   5.984   0.434 -3.5103 -2.4240 -1.4287
   33MOL   H64021184   0.271   5.940   0.515 -0.8825  0.7206 -1.1759
   33MOL   H64121185   0.359   6.026   0.720  1.4277 -0.7594  0.6455
   33MOL   H64221186   0.460   5.928   0.655  1.1231  1.0393  1.1984
   34MOL     C121187   6.439   5.520   5.448 -0.4574  0.1391 -0.0606
   34MOL     O221188   6.513   5.507   5.349 -0.0124 -0.8115 -0.4516
   34MOL     C321189   6.493   5.540   5.587 -0.2100 -0.2739  0.3625
   34MOL     C421190   6.435   5.670   5.664  0.0353  0.3521 -0.0658
   34MOL     C521191   6.297   5.633   5.736 -0.0912 -0.2040  0.3699
   34MOL     C621192   6.238   5.759   5.810 -0.2382 -0.1424  0.1393
   34MOL     C721193   6.131   5.831   5.730 -0.2102 -0.3749  0.1276
   34MOL     O821194   6.104   5.789   5.619  0.1200  0.4580 -0.5161
   34MOL     N921195   6.076   5.943   5.784  0.1837 -0.0779 -0.5485
   34MOL    C1021196   6.009   6.058   5.714  0.2737  0.4028  0.2170
   34MOL    C1121197   5.868   6.008   5.670 -0.4197 -0.1251  0.3229
   34MOL    C1221198   5.791   6.132   5.608 -0.2575 -0.0799  0.1229
   34MOL    C1321199   5.660   6.100   5.534  0.1819 -0.4655 -0.4699
   34MOL    N1421200   5.566   6.023   5.620 -0.2977 -0.4130  0.0020
   34MOL    H1521201   6.470   5.451   5.646  0.4894 -0.5577  0.2096
   34MOL    H1621202   6.600   5.540   5.568 -0.4982  2.3605 -1.5663
   34MOL    H1721203   6.515   5.712   5.725 -1.5366  2.5022  0.5633
   34MOL    H1821204   6.413   5.753   5.596  0.0175 -0.6959 -1.3539
   34MOL    H1921205   6.329   5.550   5.800  0.3319 -1.5405 -1.5379
   34MOL    H2021206   6.226   5.583   5.670 -2.9001  3.3361  0.5255
   34MOL    H2121207   6.322   5.815   5.851  1.5691 -2.8013  0.1770
   34MOL    H2221208   6.184   5.727   5.899 -0.9700 -0.0148 -0.2507
   34MOL    H2321209   6.114   5.970   5.873  1.7506  1.6092 -1.7023
   34MOL    H2421210   6.065   6.080   5.623 -1.0236  3.7510  0.1541
   34MOL    H2521211   5.997   6.132   5.793 -0.2401 -0.9479  1.4324
   34MOL    H2621212   5.871   5.923   5.602 -0.7740  0.6871 -0.7134
   34MOL    H2721213   5.821   5.967   5.760 -0.0613  0.6945  0.8956
   34MOL    H2821214   5.862   6.188   5.547 -1.4469  0.7442 -0.5197
   34MOL    H2921215   5.770   6.198   5.692  1.9116  0.4767  0.2596
   34MOL    H3021216   5.680   6.041   5.445 -0.8195  0.7299 -1.5109
   34MOL    H3121217   5.616   6.196   5.507 -0.8010 -0.5477  0.7940
   34MOL    H3221218   5.550   6.061   5.712  0.4647  0.3498 -0.1709
   34MOL    H3321219   6.330   5.521   5.449 -0.4926 -1.6893  0.8219
   34MOL    C3421220   5.496   5.914   5.582 -0.3924 -0.1841  1.2642
   34MOL    O3521221   5.512   5.863   5.468 -0.5487  0.1933 -0.4421
   34MOL    C3621222   5.392   5.852   5.689  0.5045  0.0020  0.1606
   34MOL    C3721223   5.393   5.701   5.696 -1.0079 -0.4147  0.6001
   34MOL    C3821224   5.524   5.635   5.727  0.1555  0.6281 -0.0466
   34MOL    C3921225   5.507   5.481   5.730 -0.6639 -0.1426  0.1914
   34MOL    C4021226   5.441   5.430   5.862 -0.0153  0.2784 -0.0655
   34MOL    O4121227   5.505   5.424   5.968  0.1789 -0.1430 -0.6049
   34MOL    N4221228   5.312   5.411   5.851 -0.4620 -0.7927  0.0348
   34MOL    C4321229   5.217   5.361   5.955  0.0367  0.6814  0.4809
   34MOL    C4421230   5.112   5.269   5.895 -0.1929 -0.8650  0.7575
   34MOL    C4521231   5.058   5.172   6.000  0.6923 -0.5368  0.2330
   34MOL    C4621232   4.939   5.095   5.931  0.2415 -0.5760  0.2559
   34MOL    N4721233   4.886   4.998   6.024  0.4842 -0.5007  0.4660
   34MOL    H4821234   5.409   5.891   5.789  1.7454  0.5918 -0.2730
   34MOL    H4921235   5.291   5.881   5.660  0.4457 -1.3977 -1.1394
   34MOL    H5021236   5.322   5.672   5.773 -1.4682 -1.1566 -0.0852
   34MOL    H5121237   5.365   5.661   5.598  2.2769  0.0930 -0.5978
   34MOL    H5221238   5.556   5.669   5.826  0.2899 -0.3652  0.2563
   34MOL    H5321239   5.615   5.661   5.672  0.0207  0.6869 -0.2410
   34MOL    H5421240   5.601   5.429   5.711 -1.3198 -1.9152  1.6046
   34MOL    H5521241   5.439   5.452   5.650 -1.5402 -0.0868  0.9096
   34MOL    H5621242   5.280   5.421   5.756  0.3799  0.2990 -0.1429
   34MOL    H5721243   5.172   5.458   5.978 -0.7698  0.7277 -1.1762
   34MOL    H5821244   5.272   5.316   6.037  0.7671  0.5491 -0.0731
   34MOL    H5921245   5.039   5.339   5.855 -2.4763 -2.9112  1.1931
   34MOL    H6021246   5.156   5.212   5.813 -0.9470 -0.4063  0.0269
   34MOL    H6121247   5.017   5.209   6.093 -2.0690 -0.4335 -0.9656
   34MOL    H6221248   5.135   5.103   6.033  0.7917 -1.3808 -1.6709
   34MOL    H6321249   4.976   5.049   5.840  0.6761 -1.9000  1.0858
   34MOL    H6421250   4.854   5.152   5.893 -1.8626 -2.0545  2.4999
   34MOL    H6521251   4.950   4.922   6.043 -1.8184 -3.3203 -2.4967
   34MOL    C6621252   4.760   4.991   6.065 -0.2701  0.3521  0.7678
   34MOL    O6721253   4.671   5.071   6.036 -0.1423 -0.6517 -0.2369
   34MOL    C6821254   4.733   4.869   6.152  0.2023 -0.5985 -0.0171
   34MOL    C6921255   4.682   4.900   6.304  0.6646 -0.0445  0.6050
   34MOL    C7021256   4.596   4.783   6.362 -0.4570 -0.2956  0.0486
   34MOL    C7121257   4.576   4.787   6.514  0.4389 -0.3439  0.5316
   34MOL    C7221258   4.699   4.791   6.603  0.1038  0.2177  0.8651
   34MOL    O7321259   4.710   4.881   6.685  0.2156  0.0787  0.1771
   34MOL    N7421260   4.801   4.704   6.599  0.3662  0.3512  0.0757
   34MOL    C7521261   4.925   4.706   6.677  0.2678  0.0378 -0.4589
   34MOL    C7621262   5.025   4.806   6.626 -0.2339 -0.1328 -0.7162
   34MOL    C7721263   5.098   4.745   6.506 -0.1612  0.1873  0.4929
   34MOL    C7821264   5.021   4.739   6.372 -0.1384  0.0986  0.7061
   34MOL    N7921265   5.108   4.689   6.266  0.2463 -0.2430 -0.7978
   34MOL    H8021266   4.661   4.813   6.092  0.5905 -0.7730 -0.3261
   34MOL    H8121267   4.817   4.801   6.162 -0.5287 -1.8734 -2.2035
   34MOL    H8221268   4.771   4.920   6.365  0.7269  1.5978  0.0036
   34MOL    H8321269   4.624   4.991   6.315  0.5743 -0.1334  0.8654
   34MOL    H8421270   4.643   4.688   6.335 -0.2238 -0.3035  0.4746
   34MOL    H8521271   4.500   4.799   6.313  0.6334  0.0507 -2.0054
   34MOL    H8621272   4.515   4.703   6.549 -3.4473  0.2758 -4.2279
   34MOL    H8721273   4.508   4.872   6.524 -1.6001 -1.3978 -3.3770
   34MOL    H8821274   4.787   4.620   6.543 -0.3178 -0.5996  1.6480
   34MOL    H8921275   4.974   4.610   6.694  0.6705  0.5307  1.2931
   34MOL    H9021276   4.897   4.731   6.779  0.2469  0.8738 -0.6668
   34MOL    H9121277   4.974   4.900   6.602  0.8864  0.6437 -0.1083
   34MOL    H9221278   5.101   4.818   6.704 -0.0372 -0.6907 -0.8190
   34MOL    H9321279   5.132   4.645   6.532 -1.3324 -0.0596  1.0850
   34MOL    H9421280   5.196   4.791   6.492  0.1121  0.6188  3.4963
   34MOL    H9521281   4.983   4.834   6.336  2.8161  0.2537 -2.3294
   34MOL    H9621282   4.934   4.674   6.386  0.3240 -0.4439  1.0871
   34MOL    H9721283   5.164   4.607   6.284  0.9577  0.8322  2.1298
   34MOL    C9821284   5.128   4.746   6.147  0.4788  0.6463  0.5340
   34MOL    O9921285   5.081   4.848   6.102  0.1537  0.1067  0.4478
   34MOL   C10021286   5.226   4.665   6.067 -0.1258  0.6990  0.9381
   34MOL   C10121287   5.159   4.605   5.937  0.6742 -0.0170 -0.0364
   34MOL   C10221288   5.262   4.578   5.833  0.3719  0.1288 -0.1796
   34MOL   C10321289   5.212   4.514   5.700  0.6795  0.6997 -0.1023
   34MOL   C10421290   5.164   4.623   5.598  0.4356  0.3567 -0.6558
   34MOL   O10521291   5.242   4.709   5.557  0.0733 -0.3757  0.1985
   34MOL   N10621292   5.033   4.629   5.560 -0.5705 -0.3656 -0.1386
   34MOL   C10721293   4.979   4.738   5.474 -1.1145  0.2794 -0.1968
   34MOL   C10821294   4.982   4.705   5.323  0.2779  0.1185 -0.1469
   34MOL   C10921295   4.931   4.820   5.248  0.6612  0.5048 -0.0853
   34MOL   C11021296   4.940   4.793   5.096 -0.5884 -0.5203  0.6918
   34MOL   N11121297   4.865   4.668   5.055 -0.5914  0.6115 -0.0075
   34MOL   H11221298   5.308   4.733   6.045 -0.0201 -0.3001 -2.0153
   34MOL   H11321299   5.280   4.594   6.129 -0.9300  0.9571  1.9397
   34MOL   H11421300   5.097   4.518   5.956 -0.3085  0.8385  0.7225
   34MOL   H11521301   5.086   4.674   5.894 -0.8537 -2.7569 -2.0210
   34MOL   H11621302   5.348   4.527   5.876 -0.2345 -1.5199 -0.8607
   34MOL   H11721303   5.317   4.669   5.812  2.6760 -1.5574 -1.7193
   34MOL   H11821304   5.146   4.431   5.723  1.9934  0.3439  2.5396
   34MOL   H11921305   5.299   4.464   5.655 -0.4181 -2.3912  1.0883
   34MOL   H12021306   4.965   4.557   5.582 -0.7158  0.0118  0.6568
   34MOL   H12121307   5.026   4.833   5.497 -0.1761 -0.5520  1.3889
   34MOL   H12221308   4.875   4.744   5.506 -0.8456 -0.1436  0.7714
   34MOL   H12321309   5.082   4.688   5.284  0.4970 -1.3398  1.0605
   34MOL   H12421310   4.928   4.613   5.302  0.3645 -0.5520  2.4057
   34MOL   H12521311   4.992   4.908   5.266 -0.6630  0.9409  2.4837
   34MOL   H12621312   4.827   4.845   5.271  0.0390 -2.5368  0.6231
   34MOL   H12721313   5.042   4.775   5.064 -0.6077 -0.5990  0.6766
   34MOL   H12821314   4.910   4.883   5.042 -1.2508 -0.8903  0.4315
   34MOL   H12921315   4.865   4.598   5.127  3.0884  1.3846  0.8475
   34MOL   C13021316   4.793   4.648   4.942 -0.2640 -0.2041 -0.6088
   34MOL   O13121317   4.786   4.738   4.861 -0.0769 -0.1232 -0.1654
   34MOL   C13221318   4.734   4.503   4.919  0.0427  0.0247 -0.2704
   34MOL   C13321319   4.589   4.491   4.892  0.0251 -0.3463  0.7345
   34MOL   C13421320   4.542   4.517   4.752  0.6260 -0.1516 -0.2021
   34MOL   C13521321   4.548   4.406   4.649 -0.0348 -0.3066 -0.3711
   34MOL   C13621322   4.470   4.435   4.519 -0.1944 -0.2698 -0.3065
   34MOL   O13721323   4.366   4.505   4.522  0.4507 -1.1318 -0.5766
   34MOL   N13821324   4.514   4.365   4.414  0.3541  0.4319 -0.5212
   34MOL   C13921325   4.443   4.367   4.284 -0.5964  0.3114  0.6467
   34MOL   C14021326   4.529   4.306   4.171  0.1372 -0.0824  0.5387
   34MOL   C14121327   4.569   4.158   4.176  0.5100  0.1107 -0.8513
   34MOL   C14221328   4.652   4.114   4.050  0.3839 -0.7514  0.1045
   34MOL   N14321329   4.685   3.973   4.062 -0.2350  0.1993  0.2385
   34MOL   H14421330   4.789   4.446   4.844  1.9785  0.5492  0.6964
   34MOL   H14521331   4.755   4.450   5.012  0.2240  0.7886  0.1258
   34MOL   H14621332   4.552   4.392   4.921 -2.2921 -0.1289 -1.2779
   34MOL   H14721333   4.533   4.561   4.954 -1.6292 -0.9831 -0.0072
   34MOL   H14821334   4.588   4.606   4.709 -0.3522  0.2485 -0.4267
   34MOL   H14921335   4.435   4.538   4.760 -0.0167 -2.4331 -2.0713
   34MOL   H15021336   4.513   4.312   4.691  0.3729  0.8461  2.6639
   34MOL   H15121337   4.654   4.395   4.624 -0.1348 -0.4284 -0.7510
   34MOL   H15221338   4.592   4.305   4.430 -0.7658 -0.9704 -0.2346
   34MOL   H15321339   4.411   4.468   4.260 -2.1755 -0.0007  1.3901
   34MOL   H15421340   4.351   4.311   4.298 -0.5409  0.6890  2.7162
   34MOL   H15521341   4.476   4.327   4.079 -3.3544 -1.4540  2.1390
   34MOL   H15621342   4.620   4.365   4.162 -0.4687  1.0615  1.7653
   34MOL   H15721343   4.481   4.094   4.182  0.9488 -0.2252  2.8376
   34MOL   H15821344   4.632   4.141   4.263 -0.5201 -1.5070 -0.3919
   34MOL   H15921345   4.735   4.184   4.041  0.3601 -0.9411 -1.8591
   34MOL   H16021346   4.602   4.136   3.956  0.0384  0.6702  0.6088
   34MOL   H16121347   4.608   3.917   4.096  0.7381 -0.3442  1.5709
   34MOL   C16221348   4.785   3.915   3.990 -0.0472 -0.4772  0.7867
   34MOL   O16321349   4.871   3.981   3.941 -0.2404  0.4643  0.1513
   34MOL   C16421350   4.785   3.759   3.955 -0.0073  0.1078  0.1053
   34MOL   C16521351   4.831   3.747   3.809  0.3373 -0.1334 -0.5845
   34MOL   C16621352   4.801   3.609   3.742 -0.0535 -0.5078  0.5794
   34MOL   C16721353   4.902   3.492   3.771 -0.9932  0.5910 -0.0969
   34MOL   C16821354   5.052   3.530   3.758 -0.3120  0.2644  0.2442
   34MOL   O16921355   5.093   3.560   3.649 -0.0147 -0.5223 -1.1561
   34MOL   N17021356   5.126   3.527   3.865 -0.3063  0.1537 -0.3238
   34MOL   C17121357   5.268   3.569   3.867  0.6485  0.0956  0.0448
   34MOL   C17221358   5.304   3.661   3.983 -0.0040  0.2722  0.3507
   34MOL   C17321359   5.214   3.781   4.016  0.0989  0.2097 -0.1905
   34MOL   C17421360   5.253   3.921   3.963  0.3648  0.2337 -0.0662
   34MOL   N17521361   5.155   4.015   4.023  0.1541 -0.5585 -0.4364
   34MOL   H17621362   4.844   3.706   4.030 -0.1667 -0.4471 -0.1604
   34MOL   H17721363   4.684   3.723   3.971 -0.8386  2.4973  0.4239
   34MOL   H17821364   4.783   3.819   3.743 -0.7245 -2.8919 -2.9294
   34MOL   H17921365   4.937   3.771   3.803 -0.1720  2.5906  0.6605
   34MOL   H18021366   4.823   3.631   3.638 -1.9941  2.3100  0.7193
   34MOL   H18121367   4.695   3.584   3.736 -0.3580  1.1060 -1.0762
   34MOL   H18221368   4.872   3.414   3.700  0.4165  0.7946 -0.9310
   34MOL   H18321369   4.885   3.454   3.872  0.5574  1.1042  0.3622
   34MOL   H18421370   5.075   3.521   3.952 -4.1751  0.8746 -2.4273
   34MOL   H18521371   5.289   3.634   3.781 -1.3533  0.9030  0.1505
   34MOL   H18621372   5.339   3.488   3.846  1.8528  1.1506 -0.0462
   34MOL   H18721373   5.294   3.595   4.069  4.0770 -1.7648 -0.6176
   34MOL   H18821374   5.411   3.684   3.982 -0.3671  2.1116  1.5522
   34MOL   H18921375   5.196   3.795   4.122  0.8527  1.7014 -0.2428
   34MOL   H19021376   5.121   3.745   3.973 -0.4191  2.5046 -1.0190
   34MOL   H19121377   5.244   3.913   3.855  1.2834 -0.9103 -0.0645
   34MOL   H19221378   5.357   3.940   3.986  0.2411  0.9829 -0.0970
   34MOL   H19321379   5.068   4.022   3.973 -0.1979  0.6569  0.3355
   34MOL   C19421380   5.170   4.085   4.132  0.0828 -0.0358 -0.4545
   34MOL   O19521381   5.278   4.092   4.200 -0.4811  0.1765  0.1634
   34MOL   C19621382   5.055   4.176   4.174 -0.3477  0.1851  0.2180
   34MOL   C19721383   5.041   4.200   4.329  0.2059 -0.6857  0.2547
   34MOL   C19821384   5.003   4.074   4.409 -0.4957 -0.3274  0.6123
   34MOL   C19921385   4.860   4.009   4.389  0.4084 -0.2772 -0.6916
   34MOL   C20021386   4.757   4.055   4.490  0.2026 -0.4120 -0.5717
   34MOL   O20121387   4.746   4.177   4.513 -0.0117  0.3326 -0.8499
   34MOL   N20221388   4.677   3.961   4.541  0.4253 -0.0380 -0.5022
   34MOL   C20321389   4.586   3.987   4.656  0.7531  0.0268 -0.3275
   34MOL   C20421390   4.641   4.061   4.771  0.3801 -0.1284 -0.4716
   34MOL   C20521391   4.756   3.991   4.841 -0.0118  0.3076  0.5486
   34MOL   C20621392   4.775   4.028   4.992 -0.0420  0.8652  0.2969
   34MOL   N20721393   4.875   3.942   5.055 -0.6035 -0.4496 -0.2530
   34MOL   H20821394   5.084   4.272   4.131  1.9666 -0.3410  0.5656
   34MOL   H20921395   4.967   4.134   4.125  0.6486  0.5419 -1.9740
   34MOL   H21021396   5.130   4.256   4.361 -1.6148  1.2203  2.1426
   34MOL   H21121397   4.967   4.278   4.348  1.1179  0.0015  1.0712
   34MOL   H21221398   5.014   4.091   4.516  3.0207  0.3447  0.1867
   34MOL   H21321399   5.079   3.998   4.391 -1.1967 -0.8143 -0.3614
   34MOL   H21421400   4.870   3.901   4.396 -1.8218 -0.3644  2.0828
   34MOL   H21521401   4.817   4.027   4.291  0.8394  0.6487 -0.7260
   34MOL   H21621402   4.702   3.863   4.534  0.8876  0.1694 -1.8567
   34MOL   H21721403   4.542   3.893   4.689 -0.1230  1.0521  1.4983
   34MOL   H21821404   4.502   4.046   4.619 -1.1544 -2.0095  0.5633
   34MOL   H21921405   4.681   4.161   4.751  2.5518 -1.2164 -1.7729
   34MOL   H22021406   4.557   4.082   4.837  0.0352 -0.3455 -0.8477
   34MOL   H22121407   4.854   4.001   4.793  0.0898  0.7471  0.8462
   34MOL   H22221408   4.739   3.883   4.847 -0.7415  0.3843 -0.1841
   34MOL   H22321409   4.679   4.015   5.043 -0.5876 -1.3817 -1.2415
   34MOL   H22421410   4.805   4.132   5.007 -2.3039  1.8066 -1.4092
   34MOL   H22521411   4.971   3.962   5.031  0.1255 -2.7294  0.6114
   34MOL   C22621412   4.854   3.859   5.149  0.3152  0.1146 -0.0747
   34MOL   O22721413   4.745   3.847   5.196  0.3473 -0.3625  0.4864
   34MOL   C22821414   4.975   3.778   5.210 -0.3717  0.7144 -0.2499
   34MOL   C22921415   4.932   3.641   5.277 -0.3039  0.5108 -0.0245
   34MOL   C23021416   4.861   3.650   5.419 -0.1836  0.5564 -0.4966
   34MOL   C23121417   4.954   3.691   5.540 -0.2720 -0.2622 -0.4307
   34MOL   C23221418   4.989   3.836   5.563 -0.5237  0.1183 -0.0886
   34MOL   O23321419   4.928   3.925   5.505  0.0971 -0.7486 -0.0236
   34MOL   N23421420   5.087   3.860   5.649  0.1640 -0.4679 -0.1881
   34MOL   C23521421   5.122   3.991   5.708 -0.6556 -0.4560 -0.1069
   34MOL   C23621422   5.270   4.032   5.676  0.6945  0.0686  0.3093
   34MOL   C23721423   5.335   4.149   5.765 -0.1059  0.1322  0.5952
   34MOL   C23821424   5.476   4.181   5.719  0.0542  0.2990  0.2974
   34MOL   N23921425   5.535   4.273   5.815 -0.0875 -0.6335  0.3713
   34MOL   H24021426   5.042   3.740   5.132  0.8326 -2.2462  2.1503
   34MOL   H24121427   5.029   3.831   5.289  0.6295 -0.0508 -0.4047
   34MOL   H24221428   4.870   3.594   5.201  1.8281 -0.8528 -0.9788
   34MOL   H24321429   5.019   3.576   5.288 -1.8469 -1.0035  4.5120
   34MOL   H24421430   4.825   3.551   5.446 -0.0432  0.8918  0.9626
   34MOL   H24521431   4.781   3.723   5.412 -1.3875 -0.6066  0.7757
   34MOL   H24621432   5.044   3.633   5.521 -1.5761 -3.2059  2.0597
   34MOL   H24721433   4.916   3.649   5.633 -0.4218  1.2261  0.1945
   34MOL   H24821434   5.141   3.779   5.675 -0.1262 -0.4767  0.3919
   34MOL   H24921435   5.113   3.995   5.817  1.1685 -2.3782  0.1375
   34MOL   H25021436   5.065   4.074   5.667 -0.6974  0.2448  1.3246
   34MOL   H25121437   5.335   3.945   5.678  0.1900 -0.2865  2.3460
   34MOL   H25221438   5.265   4.067   5.573  0.9529  1.1401  0.6560
   34MOL   H25321439   5.330   4.117   5.869  2.3902 -1.8563  0.1532
   34MOL   H25421440   5.269   4.236   5.764  0.7887  0.8290  0.9045
   34MOL   H25521441   5.480   4.213   5.615 -0.9887  1.9183  0.7333
   34MOL   H25621442   5.533   4.088   5.712 -1.0321 -0.3122 -0.6160
   34MOL   H25721443   5.561   4.243   5.908  0.2557  1.1841  0.8670
   34MOL   C25821444   5.587   4.387   5.788  0.3852  0.2590 -0.3771
   34MOL   O25921445   5.576   4.441   5.677 -0.2827 -0.3073 -0.1682
   34MOL   C26021446   5.658   4.461   5.902  0.4622 -0.6134 -0.1502
   34MOL   C26121447   5.703   4.609   5.879  0.5946  0.2291  0.2108
   34MOL   C26221448   5.803   4.649   5.980  0.7083  0.1642  0.5361
   34MOL   C26321449   5.842   4.795   5.984 -0.4789 -0.3703  0.0574
   34MOL   C26421450   5.723   4.892   6.020 -0.6917  0.0518  0.0033
   34MOL   O26521451   5.692   4.900   6.140 -0.4281 -0.5764 -0.2499
   34MOL   N26621452   5.670   4.963   5.922  0.2587  0.0652  0.5153
   34MOL   C26721453   5.564   5.059   5.941  0.8376  0.3784 -0.0574
   34MOL   C26821454   5.421   4.998   5.942 -0.1320  0.4233 -0.2646
   34MOL   C26921455   5.386   4.925   5.814  0.8816  0.2818  0.2462
   34MOL   C27021456   5.390   5.025   5.696  0.9746  0.8253 -0.1603
   34MOL   N27121457   5.319   4.987   5.573 -0.3256 -0.1779  0.3558
   34MOL   H27221458   5.592   4.449   5.988 -0.1495  0.6055 -0.4389
   34MOL   H27321459   5.747   4.400   5.919  0.6941 -0.2088  0.0984
   34MOL   H27421460   5.754   4.613   5.782  0.4815  0.5051  0.1623
   34MOL   H27521461   5.615   4.672   5.891  1.9649  2.4997 -1.1990
   34MOL   H27621462   5.897   4.604   5.948  0.6219  0.3165  0.0651
   34MOL   H27721463   5.770   4.612   6.077  0.4643 -0.9679  0.0305
   34MOL   H27821464   5.874   4.828   5.885 -0.7785  1.0225  0.4061
   34MOL   H27921465   5.927   4.814   6.050  0.6114  0.0049 -1.4128
   34MOL   H28021466   5.698   4.951   5.826  0.5728 -0.1381  0.6330
   34MOL   H28121467   5.578   5.142   5.872  1.4263 -1.3516 -2.0783
   34MOL   H28221468   5.581   5.103   6.040 -0.4221  0.3370  0.1877
   34MOL   H28321469   5.413   4.922   6.019 -1.8458  0.5454 -0.2923
   34MOL   H28421470   5.343   5.070   5.970  0.3837  1.0865 -0.5178
   34MOL   H28521471   5.290   4.876   5.829  0.2938  1.9888  2.3758
   34MOL   H28621472   5.455   4.842   5.798 -1.0234 -1.5881  1.4842
   34MOL   H28721473   5.497   5.045   5.683  1.3796 -1.0030  0.2963
   34MOL   H28821474   5.345   5.119   5.729  1.3639  1.7946 -2.2504
   34MOL   H28921475   5.303   4.889   5.557  1.5202 -0.6807  1.4824
   34MOL   C29021476   5.300   5.075   5.471 -1.4629 -0.4646 -0.4313
   34MOL   O29121477   5.346   5.187   5.472  0.3092  0.0702  0.6405
   34MOL   C29221478   5.227   5.024   5.350 -0.2078  0.3758 -0.0861
   34MOL   C29321479   5.318   4.975   5.230 -0.2793  0.8978 -0.0901
   34MOL   C29421480   5.363   5.089   5.134 -0.5651  0.0146 -0.0150
   34MOL   C29521481   5.450   5.049   5.010 -0.0302  0.1865  0.0640
   34MOL   C29621482   5.490   5.169   4.926 -0.4464 -0.3601 -0.6334
   34MOL   O29721483   5.405   5.231   4.867 -0.2666 -0.5126 -0.5015
   34MOL   N29821484   5.622   5.205   4.935 -0.7660 -0.5190  0.7398
   34MOL   C29921485   5.680   5.318   4.867  0.9374 -0.1681 -0.1265
   34MOL   C30021486   5.642   5.444   4.949 -0.6353  0.3771 -0.0835
   34MOL   C30121487   5.734   5.568   4.923  0.8402  0.6013  0.2235
   34MOL   C30221488   5.691   5.688   5.005  0.3093  0.2243 -0.0507
   34MOL   N30321489   5.777   5.805   4.996  0.1683  0.3809 -0.0494
   34MOL   H30421490   5.172   4.938   5.388 -0.9229  0.6325 -0.5265
   34MOL   H30521491   5.169   5.108   5.312  0.4145  1.0874  0.5165
   34MOL   H30621492   5.396   4.904   5.256 -0.6675  0.5569  0.1440
   34MOL   H30721493   5.257   4.916   5.161  1.4582 -0.3779 -0.5665
   34MOL   H30821494   5.425   5.166   5.180  0.3935 -0.1659 -0.9776
   34MOL   H30921495   5.272   5.131   5.090 -2.1801 -2.8296  0.4733
   34MOL   H31021496   5.392   4.971   4.960  1.0171 -0.3554 -0.3157
   34MOL   H31121497   5.536   4.987   5.036 -0.1015  0.9752  2.2737
   34MOL   H31221498   5.684   5.158   4.998  1.6098 -0.1980 -1.2761
   34MOL   H31321499   5.640   5.334   4.767 -1.0542  3.0586  1.1049
   34MOL   H31421500   5.789   5.312   4.859  0.7222 -0.1419 -3.8775
   34MOL   H31521501   5.537   5.464   4.930 -0.2365  0.9914 -1.7479
   34MOL   H31621502   5.652   5.420   5.055 -0.3118  0.4280 -0.1007
   34MOL   H31721503   5.741   5.586   4.816  0.7970 -2.0220 -0.2468
   34MOL   H31821504   5.836   5.545   4.955  1.1826  0.3965 -0.9858
   34MOL   H31921505   5.685   5.652   5.108 -1.0682 -0.4479 -0.3513
   34MOL   H32021506   5.592   5.714   4.968 -0.3745 -0.0266  1.5625
   34MOL   H32121507   5.863   5.810   5.047  0.3876  0.2714 -0.4083
   34MOL   C32221508   5.743   5.920   4.926 -0.1538 -0.2091 -0.5317
   34MOL   O32321509   5.634   5.935   4.883 -0.0733  0.1635 -0.1500
   34MOL   C32421510   5.840   6.044   4.915 -0.4247 -0.0378 -0.0704
   34MOL   C32521511   5.783   6.172   4.981  0.1549 -0.0928 -0.0321
   34MOL   C32621512   5.740   6.150   5.127 -0.1761  0.2246  0.6777
   34MOL   C32721513   5.858   6.172   5.224  0.2651 -0.3752  0.6748
   34MOL   C32821514   5.894   6.319   5.228  0.0009  0.3106  0.1393
   34MOL   O32921515   5.818   6.399   5.277  0.0763  0.2463  0.3956
   34MOL   N33021516   6.018   6.356   5.180 -0.7114  0.0025 -0.0383
   34MOL   C33121517   6.068   6.497   5.160 -0.5615  0.1488  0.4299
   34MOL   C33221518   6.222   6.492   5.131  0.4611 -0.1470  0.0095
   34MOL   C33321519   6.304   6.421   5.234 -0.0816 -0.6711  0.9741
   34MOL   C33421520   6.459   6.423   5.214 -0.7212  0.2358 -0.7434
   34MOL   N33521521   6.521   6.370   5.335 -0.4177  0.0719 -0.3851
   34MOL   H33621522   5.936   6.011   4.955 -0.2962 -0.2817 -0.5708
   34MOL   H33721523   5.868   6.058   4.811  1.3492  0.2916  0.4257
   34MOL   H33821524   5.840   6.262   4.959 -1.2964  0.8997  0.2108
   34MOL   H33921525   5.695   6.184   4.918  0.5749 -2.7442 -1.2057
   34MOL   H34021526   5.672   6.067   5.146 -0.4586 -0.1695 -1.9504
   34MOL   H34121527   5.674   6.234   5.150 -1.2437 -0.6022  0.6611
   34MOL   H34221528   5.937   6.100   5.202 -0.6183 -2.2882  3.3797
   34MOL   H34321529   5.821   6.153   5.325 -0.3467  1.7613  0.8838
   34MOL   H34421530   6.064   6.280   5.132  1.8399  1.5053 -0.0209
   34MOL   H34521531   6.055   6.549   5.255 -0.6124  2.0653 -0.6097
   34MOL   H34621532   6.008   6.546   5.084  2.8838  0.1185 -2.4198
   34MOL   H34721533   6.250   6.454   5.033  2.2327  2.8365 -0.6815
   34MOL   H34821534   6.261   6.593   5.136 -1.2804  0.5559 -0.1198
   34MOL   H34921535   6.271   6.318   5.246 -1.5765 -0.3700 -0.3114
   34MOL   H35021536   6.276   6.462   5.331  0.8293  0.8710  0.6164
   34MOL   H35121537   6.491   6.522   5.184  1.6234 -0.4530 -0.6447
   34MOL   H35221538   6.477   6.349   5.136 -0.5840 -2.2856  1.5985
   34MOL   H35321539   6.490   6.415   5.421  1.6579 -0.8731  0.9061
   34MOL   C35421540   6.617   6.282   5.328  0.1807 -0.6028  0.0386
   34MOL   O35521541   6.665   6.233   5.227  0.0926  0.0931  0.5590
   34MOL   C35621542   6.660   6.229   5.459  0.2295 -0.4554 -0.3417
   34MOL   C35721543   6.734   6.090   5.453  0.0128 -0.0773  0.0898
   34MOL   C35821544   6.645   5.966   5.433 -0.2349  0.4470 -0.0483
   34MOL   C35921545   6.610   5.938   5.285 -0.4145 -0.2951 -0.4788
   34MOL   C36021546   6.733   5.910   5.196 -0.3294  0.0852  0.4083
   34MOL   O36121547   6.796   5.805   5.212  0.1111 -0.0889  0.6998
   34MOL   N36221548   6.756   6.001   5.104  0.6568 -0.5724 -0.3596
   34MOL   C36321549   6.865   6.004   5.004 -0.0508 -0.5464 -1.0774
   34MOL   C36421550   6.810   6.027   4.861  0.5320  0.0579 -0.3686
   34MOL   C36521551   6.676   5.954   4.823 -0.2495  0.1171  0.6177
   34MOL   C36621552   6.662   5.924   4.662  0.0618 -0.0490  0.2174
   34MOL   N36721553   6.545   5.839   4.635  0.1114  0.8754  0.7242
   34MOL   H36821554   6.726   6.301   5.508  0.5927 -0.1944 -1.2101
   34MOL   H36921555   6.575   6.228   5.528  0.9901  0.0678  0.6143
   34MOL   H37021556   6.821   6.073   5.389 -0.1052 -2.3423  0.4906
   34MOL   H37121557   6.779   6.076   5.551 -0.1829 -2.0439 -0.0917
   34MOL   H37221558   6.555   5.983   5.492 -1.0779 -0.4694 -1.0669
   34MOL   H37321559   6.682   5.869   5.467  0.5032  0.2737 -1.3181
   34MOL   H37421560   6.559   6.027   5.250 -1.8208 -0.6143  0.7097
   34MOL   H37521561   6.551   5.846   5.285 -2.4268  0.9661 -0.4322
   34MOL   H37621562   6.710   6.091   5.113  0.3734 -0.8810  1.4736
   34MOL   H37721563   6.909   5.904   5.002 -0.8054 -0.8828 -1.0783
   34MOL   H37821564   6.950   6.067   5.031  0.2235 -0.9555 -0.9826
   34MOL   H37921565   6.795   6.133   4.838  2.3625  0.4136  0.0219
   34MOL   H38021566   6.882   5.990   4.789  0.5828  0.4634 -0.5304
   34MOL   H38121567   6.592   6.020   4.847 -0.9391 -0.0750 -1.1689
   34MOL   H38221568   6.655   5.861   4.874 -0.5565  0.5639  1.3120
   34MOL   H38321569   6.747   5.864   4.632 -0.6097  0.2137 -2.3119
   34MOL   H38421570   6.659   6.015   4.601 -0.6233  0.3999  0.9058
   34MOL   H38521571   6.560   5.741   4.617 -2.4088  0.9946 -2.6672
   34MOL   C38621572   6.423   5.884   4.626 -0.0235  0.1539  0.2630
   34MOL   O38721573   6.396   6.003   4.640  0.3401  0.6608  0.4227
   34MOL   C38821574   6.309   5.787   4.616  0.3992 -0.3677  0.0259
   34MOL   C38921575   6.212   5.776   4.740 -0.0269 -0.4782 -0.3861
   34MOL   C39021576   6.128   5.649   4.716 -0.4258  0.7251 -0.7750
   34MOL   C39121577   6.033   5.646   4.599  0.7473 -0.5785  0.0179
   34MOL   C39221578   5.940   5.523   4.595 -0.2235 -0.9189  0.1787
   34MOL   O39321579   5.952   5.435   4.677 -0.0865  0.7306  0.0754
   34MOL   N39421580   5.857   5.515   4.488 -0.3537 -0.4856 -0.3427
   34MOL   C39521581   5.773   5.404   4.461 -0.2131  0.1560 -0.8721
   34MOL   C39621582   5.636   5.457   4.431 -0.0898  0.3373 -0.2854
   34MOL   C39721583   5.548   5.340   4.383  0.1857  0.0277 -0.0417
   34MOL   C39821584   5.396   5.385   4.394 -0.1442  0.5513 -0.2639
   34MOL   N39921585   5.351   5.427   4.528  0.4578 -0.0050 -0.5291
   34MOL   H40021586   6.258   5.816   4.525 -0.8699 -1.1968  0.4560
   34MOL   H40121587   6.355   5.689   4.601 -1.0520 -1.1433  0.5172
   34MOL   H40221588   6.273   5.759   4.829  2.3259 -2.4889 -2.3256
   34MOL   H40321589   6.160   5.872   4.749  1.2107  0.1363  0.4651
   34MOL   H40421590   6.062   5.626   4.799 -0.8229  3.4506 -0.2916
   34MOL   H40521591   6.187   5.560   4.694  0.9000  1.0103  1.4027
   34MOL   H40621592   6.098   5.662   4.513  1.1745 -0.0878  0.4326
   34MOL   H40721593   5.973   5.737   4.600 -0.2859 -1.2466  0.0065
   34MOL   H40821594   5.860   5.592   4.423 -1.0458 -0.1346  0.0439
   34MOL   H40921595   5.763   5.346   4.552 -0.6864  0.4666 -0.7242
   34MOL   H41021596   5.805   5.348   4.373  1.4321  1.9345 -1.4654
   34MOL   H41121597   5.602   5.497   4.526  0.9606  0.1596  0.1697
   34MOL   H41221598   5.634   5.539   4.360 -1.5420  0.2834 -0.3231
   34MOL   H41321599   5.569   5.259   4.453  0.4220 -0.9758 -1.2555
   34MOL   H41421600   5.570   5.319   4.279  0.6641  0.6170 -0.0652
   34MOL   H41521601   5.332   5.306   4.354  0.5366  0.5449 -1.3469
   34MOL   H41621602   5.385   5.469   4.326  0.4740  2.0255  1.4251
   34MOL   H41721603   5.308   5.354   4.585  2.1840 -0.3756  0.3355
   34MOL   C41821604   5.325   5.551   4.567  0.1424 -0.2039 -0.1201
   34MOL   O41921605   5.364   5.650   4.507 -0.0759 -0.1452 -1.1545
   34MOL   C42021606   5.237   5.561   4.688 -0.1194 -0.2606 -0.1803
   34MOL   C42121607   5.144   5.685   4.682 -0.6084 -0.7160 -0.3986
   34MOL   C42221608   5.130   5.762   4.816 -0.2899 -0.2254  0.3391
   34MOL   C42321609   5.257   5.813   4.886 -0.3821  0.2942 -0.0717
   34MOL   C42421610   5.235   5.860   5.027  0.5161 -0.0967 -0.0855
   34MOL   O42521611   5.132   5.828   5.092 -0.3925  0.4624  0.6923
   34MOL   N42621612   5.343   5.927   5.078  0.0013  1.0694 -0.1059
   34MOL   C42721613   5.354   5.975   5.220  0.4000 -0.0110  0.6929
   34MOL   C42821614   5.280   6.106   5.239 -0.4787  0.8646 -0.8772
   34MOL   C42921615   5.295   6.185   5.362 -0.7006 -0.4541  0.1679
   34MOL   C43021616   5.205   6.304   5.372 -0.5646 -0.1891  0.2004
   34MOL   N43121617   5.223   6.377   5.500 -0.4434 -0.1278 -0.1464
   34MOL   H43221618   5.180   5.468   4.692  2.1913 -1.6555  2.3956
   34MOL   H43321619   5.293   5.561   4.782 -0.6151 -0.8355  0.1210
   34MOL   H43421620   5.165   5.752   4.599  2.3223  0.2230  1.0386
   34MOL   H43521621   5.040   5.658   4.664 -1.2443  1.1739  0.2805
   34MOL   H43621622   5.069   5.711   4.890 -0.3342 -0.9825 -0.2150
   34MOL   H43721623   5.068   5.851   4.805  1.3749  0.9049 -0.1451
   34MOL   H43821624   5.294   5.902   4.837  0.5631  1.6318  2.9481
   34MOL   H43921625   5.336   5.739   4.880 -0.4283  0.0736  1.8064
   34MOL   H44021626   5.423   5.936   5.017 -0.2423  0.6821 -0.4859
   34MOL   H44121627   5.458   5.994   5.245 -0.4257  1.8883  2.9221
   34MOL   H44221628   5.322   5.897   5.290  0.2867 -0.0366  0.6121
   34MOL   H44321629   5.308   6.170   5.155 -0.9659  0.2816 -1.4922
   34MOL   H44421630   5.174   6.081   5.234 -0.4565 -0.0793  2.4541
   34MOL   H44521631   5.401   6.212   5.361 -0.1534 -2.4682 -3.8089
   34MOL   H44621632   5.282   6.125   5.452 -2.3804  0.2456  0.4060
   34MOL   H44721633   5.097   6.291   5.359 -0.7510  0.1392  1.3911
   34MOL   H44821634   5.220   6.367   5.283 -1.6638 -1.2733 -0.7754
   34MOL   H44921635   5.137   6.394   5.551  0.6589 -0.0408  1.7083
   34MOL   C45021636   5.333   6.422   5.556  0.0674 -0.3715 -0.6071
   34MOL   O45121637   5.448   6.407   5.509  0.8755  0.0813 -0.1258
   34MOL   C45221638   5.311   6.484   5.693 -0.2697 -0.4162 -0.8415
   34MOL   C45321639   5.447   6.489   5.773 -0.1403 -0.2448 -0.2214
   34MOL   C45421640   5.497   6.348   5.814  0.2178  0.3503 -0.0129
   34MOL   C45521641   5.588   6.330   5.938 -0.1492 -0.4915 -0.2530
   34MOL   C45621642   5.627   6.189   5.978 -0.7256  0.0337  0.9126
   34MOL   O45721643   5.608   6.093   5.908  0.0963  0.0440  0.0488
   34MOL   N45821644   5.684   6.174   6.095  0.1006  0.3432 -0.0697
   34MOL   C45921645   5.721   6.049   6.158  0.0099 -0.5184 -0.9648
   34MOL   C46021646   5.863   6.003   6.106  0.1096  0.0834  0.1623
   34MOL   C46121647   5.909   5.883   6.184 -0.3615 -0.4067 -0.0518
   34MOL   C46221648   6.049   5.837   6.148  0.0631 -0.1515  0.2724
   34MOL   N46321649   6.145   5.941   6.195  0.4057 -0.0707  0.3426
   34MOL   H46421650   5.260   6.580   5.687  0.1906  0.0002  1.6786
   34MOL   H46521651   5.246   6.411   5.742 -0.7116  1.2292  1.0841
   34MOL   H46621652   5.523   6.553   5.729  0.4017  0.4795  1.6807
   34MOL   H46721653   5.425   6.538   5.869 -0.9989 -0.7020 -0.1805
   34MOL   H46821654   5.547   6.301   5.729  1.2321 -0.9132  1.2684
   34MOL   H46921655   5.407   6.289   5.825  0.1863  0.1685 -1.1347
   34MOL   H47021656   5.531   6.368   6.022  1.2174  1.2006 -0.0696
   34MOL   H47121657   5.683   6.385   5.932 -0.0175 -0.5485  1.1572
   34MOL   H47221658   5.723   6.256   6.139 -0.6590  2.0563 -2.4992
   34MOL   H47321659   5.635   5.986   6.140 -0.1054 -1.5068  2.7832
   34MOL   H47421660   5.727   6.075   6.264 -5.2050  1.5945 -1.0758
   34MOL   H47521661   5.872   5.988   5.998  3.4687  1.2008  0.2372
   34MOL   H47621662   5.936   6.081   6.128 -0.2363  0.1768  1.0187
   34MOL   H47721663   5.839   5.800   6.174 -0.3250 -0.4466  0.0220
   34MOL   H47821664   5.896   5.906   6.290  1.7163 -2.7260  0.7442
   34MOL   H47921665   6.053   5.822   6.040  1.7038 -0.0573  0.3086
   34MOL   H48021666   6.074   5.744   6.198  0.1540 -0.1889  0.1571
   34MOL   H48121667   6.139   5.952   6.295 -1.5798  0.5785  0.1679
   34MOL   C48221668   6.211   6.026   6.117  0.1854 -0.3831 -0.5368
   34MOL   O48321669   6.210   6.010   6.000  0.7748  0.0067 -0.5968
   34MOL   C48421670   6.274   6.142   6.176 -0.1516 -0.6853 -0.5016
   34MOL   C48521671   6.169   6.253   6.217  0.5739 -0.6344  0.2211
   34MOL   C48621672   6.090   6.313   6.101 -0.1722 -0.0562 -0.2257
   34MOL   C48721673   6.025   6.449   6.129 -0.2053  0.8171 -0.2368
   34MOL   C48821674   5.889   6.448   6.207 -0.2082  0.3492 -0.1187
   34MOL   O48921675   5.846   6.340   6.241 -0.3341 -0.1322  0.4883
   34MOL   N49021676   5.822   6.559   6.226  0.2989  0.2979 -0.6043
   34MOL   C49121677   5.691   6.563   6.283 -0.5987  0.0992 -0.8390
   34MOL   C49221678   5.615   6.676   6.215 -0.0003 -0.3438 -0.3900
   34MOL   C49321679   5.586   6.666   6.069 -0.4094  0.0117  0.3073
   34MOL   C49421680   5.516   6.784   5.998 -0.3162  0.1068 -0.0378
   34MOL   N49521681   5.593   6.910   5.990 -0.4215  0.5030  0.7437
   34MOL   H49621682   6.322   6.103   6.265 -1.4678 -1.1585  0.0061
   34MOL   H49721683   6.361   6.173   6.118 -0.3241 -0.9122 -0.8884
   34MOL   H49821684   6.099   6.220   6.294 -0.1414 -1.1356 -0.6452
   34MOL   H49921685   6.225   6.335   6.262 -2.2112  1.5886 -0.1881
   34MOL   H50021686   6.015   6.251   6.052  1.2993 -1.7787 -0.3345
   34MOL   H50121687   6.158   6.339   6.020  1.8015 -1.8819  0.8157
   34MOL   H50221688   6.006   6.498   6.033 -1.3255  0.5686 -0.1568
   34MOL   H50321689   6.097   6.504   6.189 -0.8604  1.4245 -0.0018
   34MOL   H50421690   5.864   6.644   6.191 -2.0099  0.9490 -1.9037
   34MOL   H50521691   5.709   6.588   6.388  0.2801  2.2810 -1.4942
   34MOL   H50621692   5.642   6.465   6.279  0.2999 -0.3031 -2.3206
   34MOL   H50721693   5.521   6.679   6.269  0.4118 -1.4700  0.4101
   34MOL   H50821694   5.666   6.771   6.230  1.9842 -1.6637  1.6643
   34MOL   H50921695   5.514   6.584   6.068 -1.9192  1.3234  0.5337
   34MOL   H51021696   5.674   6.635   6.012 -0.3292  2.2915 -0.8612
   34MOL   H51121697   5.419   6.808   6.042  0.1928  1.5793  0.2885
   34MOL   H51221698   5.493   6.759   5.895 -0.8095  1.3215 -0.2278
   34MOL   H51321699   5.646   6.928   5.907 -1.4585  2.1899  0.4169
   34MOL   C51421700   5.567   7.021   6.062  0.3152  0.2497  0.3867
   34MOL   O51521701   5.487   7.027   6.160  0.4391  0.5706 -0.4691
   34MOL   C51621702   5.637   7.146   6.016  0.4759 -0.6862 -0.3748
   34MOL   C51721703   5.550   7.268   5.982 -0.4575 -0.1374 -0.3744
   34MOL   C51821704   5.623   7.398   5.940  0.0964  0.2477  0.5378
   34MOL   C51921705   5.523   7.511   5.902  0.3277  0.4859  0.1080
   34MOL   C52021706   5.422   7.471   5.795  0.2937  0.3618 -1.0242
   34MOL   O52121707   5.456   7.431   5.684  0.0805 -0.4761 -0.2452
   34MOL   N52221708   5.293   7.476   5.827 -0.5183 -0.4210  0.5698
   34MOL   C52321709   5.196   7.436   5.725 -0.3557  0.3618  0.1569
   34MOL   C52421710   5.060   7.467   5.781  0.2064  0.0837  0.5814
   34MOL   C52521711   5.053   7.423   5.932 -0.6572  0.2342  0.1420
   34MOL   C52621712   4.915   7.414   5.992 -0.9140 -0.9867  0.1917
   34MOL   N52721713   4.846   7.296   5.951 -0.0870  0.4164  0.4754
   34MOL   H52821714   5.687   7.182   6.105  1.0535  0.9704 -1.3541
   34MOL   H52921715   5.721   7.136   5.946  0.7478  0.2592 -0.1848
   34MOL   H53021716   5.479   7.243   5.904 -1.0228  2.9489 -0.9103
   34MOL   H53121717   5.493   7.295   6.071  0.8102  0.6117  0.2317
   34MOL   H53221718   5.683   7.372   5.853  0.1759  1.6779  0.1598
   34MOL   H53321719   5.697   7.420   6.016 -1.2192 -1.3609  2.3181
   34MOL   H53421720   5.580   7.599   5.873  1.4620 -0.8802 -1.9390
   34MOL   H53521721   5.465   7.531   5.992 -0.8701  0.0311 -0.5553
   34MOL   H53621722   5.263   7.509   5.918 -2.4106 -2.4534  0.7244
   34MOL   H53721723   5.209   7.332   5.697  2.2998  1.0244 -1.2694
   34MOL   H53821724   5.221   7.483   5.630  0.5687  0.8348  0.6199
   34MOL   H53921725   5.046   7.575   5.782  0.4881  0.1311 -0.2012
   34MOL   H54021726   4.984   7.412   5.726  0.4022  0.1682  0.2279
   34MOL   H54121727   5.103   7.493   5.999 -0.9485  0.5583  0.0209
   34MOL   H54221728   5.113   7.333   5.945 -1.3188 -0.6250 -2.5071
   34MOL   H54321729   4.863   7.506   5.969  1.4110  0.2854 -0.1277
   34MOL   H54421730   4.925   7.413   6.100 -0.8544 -0.0742  0.1932
   34MOL   H54521731   4.867   7.213   6.004 -0.3051  0.0465 -0.0129
   34MOL   C54621732   4.752   7.295   5.859 -0.1907 -0.2041  0.2926
   34MOL   O54721733   4.715   7.394   5.800 -0.2905  0.5228 -0.3174
   34MOL   C54821734   4.702   7.152   5.835 -0.0720 -0.3498 -0.2846
   34MOL   C54921735   4.563   7.136   5.888  0.1163 -0.4822 -0.1659
   34MOL   C55021736   4.559   7.127   6.039  0.4605  0.1981  0.3258
   34MOL   C55121737   4.599   7.000   6.098 -0.0628  0.1227 -0.0133
   34MOL   C55221738   4.583   7.014   6.253 -0.2220 -0.2004  0.4245
   34MOL   O55321739   4.655   7.091   6.321 -0.2678  0.1521  0.0799
   34MOL   N55421740   4.483   6.942   6.308 -0.1796 -0.0318  0.6187
   34MOL   C55521741   4.432   6.955   6.445 -0.9352 -0.1189 -0.3005
   34MOL   C55621742   4.327   7.062   6.447 -0.8064 -0.9378 -0.0089
   34MOL   C55721743   4.225   7.072   6.331  0.0429 -0.7640  0.6505
   34MOL   C55821744   4.115   7.175   6.360 -0.3587  0.3788 -0.6758
   34MOL   N55921745   4.021   7.180   6.251  0.3917 -0.1106  0.1654
   34MOL   H56021746   4.704   7.148   5.726  0.6654  0.1805 -0.2941
   34MOL   H56121747   4.778   7.079   5.863  0.4171 -0.6034 -2.1915
   34MOL   H56221748   4.515   7.227   5.853 -0.5706 -0.2294  1.4285
   34MOL   H56321749   4.503   7.059   5.840 -0.0797  0.1705 -0.9926
   34MOL   H56421750   4.455   7.150   6.065 -0.1830 -0.8804 -1.1792
   34MOL   H56521751   4.615   7.204   6.093  0.8570  0.5637 -0.5937
   34MOL   H56621752   4.706   6.983   6.095 -0.1923 -1.2381  2.2601
   34MOL   H56721753   4.544   6.913   6.061  1.5959 -0.3820 -1.3817
   34MOL   H56821754   4.417   6.904   6.241 -0.4519  1.7341 -0.1441
   34MOL   H56921755   4.508   7.006   6.505 -1.4818 -1.2509  1.4198
   34MOL   H57021756   4.405   6.863   6.498  2.7446 -1.8495 -1.2498
   34MOL   H57121757   4.270   7.059   6.540 -0.7540  1.3799  0.1291
   34MOL   H57221758   4.376   7.160   6.450  0.9087 -1.7992  0.4985
   34MOL   H57321759   4.171   6.982   6.302 -0.8620  0.6917 -2.3673
   34MOL   H57421760   4.272   7.089   6.234  1.6133  2.7798  1.9424
   34MOL   H57521761   4.165   7.272   6.363 -0.5331  0.4244  1.1238
   34MOL   H57621762   4.054   7.164   6.449 -0.6372 -1.9205 -1.1349
   34MOL   H57721763   3.938   7.123   6.259  1.5192 -2.2679 -2.5040
   34MOL   C57821764   4.035   7.253   6.134 -0.3999 -0.2859  0.2438
   34MOL   O57921765   4.131   7.327   6.112 -0.2542 -0.5447 -0.0895
   34MOL   C58021766   3.913   7.240   6.036  0.4496 -0.4450 -0.3780
   34MOL   C58121767   3.866   7.373   5.959  1.3368 -0.2742  0.0686
   34MOL   C58221768   3.726   7.362   5.899 -0.0409 -0.6655 -0.5125
   34MOL   C58321769   3.708   7.263   5.786 -0.8044 -0.7649 -0.0729
   34MOL   C58421770   3.752   7.305   5.652  0.1640 -0.5260  0.5157
   34MOL   O58521771   3.851   7.252   5.604 -0.0189  0.3607 -0.4116
   34MOL   N58621772   3.689   7.403   5.588 -0.1691 -0.7382 -0.2469
   34MOL   C58721773   3.719   7.463   5.459  0.2353 -0.2449  0.3423
   34MOL   C58821774   3.629   7.586   5.438  0.0140  0.3533  0.6800
   34MOL   C58921775   3.628   7.647   5.301  0.4825 -0.0460  0.9667
   34MOL   C59021776   3.601   0.094   5.276 -0.2993  0.0312  0.9212
   34MOL   N59121777   3.620   0.131   5.135  0.0061 -0.0117  0.3877
   34MOL   H59221778   3.951   7.175   5.957 -0.7816 -0.3534 -1.0675
   34MOL   H59321779   3.835   7.187   6.091 -2.1406  1.9303 -1.6268
   34MOL   H59421780   3.865   7.445   6.041 -1.2163  0.9485 -0.9587
   34MOL   H59521781   3.937   7.399   5.880 -1.4153 -0.2264 -2.4965
   34MOL   H59621782   3.689   7.455   5.856  1.3988  0.2251  0.1420
   34MOL   H59721783   3.655   7.341   5.979  0.5137  0.1838  0.2127
   34MOL   H59821784   3.602   7.238   5.785 -0.7528 -0.9738 -0.3195
   34MOL   H59921785   3.754   7.167   5.807 -3.0119 -1.4710  1.8519
   34MOL   H60021786   3.609   7.446   5.634  0.7615  0.9934 -0.1928
   34MOL   H60121787   3.700   7.383   5.388  1.2830 -1.5060  1.4243
   34MOL   H60221788   3.826   7.478   5.443  0.6757 -0.7062  2.5991
   34MOL   H60321789   3.524   7.583   5.465  0.2142 -0.4478  1.4013
   34MOL   H60421790   3.671   7.657   5.510  0.6396 -0.8943  1.5810
   34MOL   H60521791   3.551   7.586   5.254  1.1661 -0.6012  0.5576
   34MOL   H60621792   3.718   7.611   5.252  0.4696 -1.3413  1.8659
   34MOL   H60721793   3.671   0.145   5.343 -0.6359  0.4607  0.9463
   34MOL   H60821794   3.507   0.134   5.313  0.0270  0.3643  1.3907
   34MOL   H60921795   3.548   0.099   5.073  1.0298 -0.1398 -0.7508
   34MOL   C61021796   3.726   0.157   5.064  0.1400 -1.1370 -0.2027
   34MOL   O61121797   3.837   0.189   5.106  0.2103 -0.6758 -0.1999
   34MOL   C61221798   3.703   0.160   4.916 -0.1071 -0.4795  0.0736
   34MOL   C61321799   3.686   0.300   4.873  0.1596 -0.8266  0.2097
   34MOL   C61421800   3.579   0.386   4.938 -0.2918 -0.3376  0.0952
   34MOL   C61521801   3.575   0.527   4.883  0.3687 -0.5846  0.1753
   34MOL   C61621802   3.703   0.609   4.894  0.4470  0.1173  0.2591
   34MOL   O61721803   3.765   0.606   5.004 -0.3693 -0.0317  0.6410
   34MOL   N61821804   3.758   0.673   4.793 -0.0994 -0.2262 -0.7594
   34MOL   C61921805   3.888   0.741   4.793  0.2033  0.9317  0.3168
   34MOL   C62021806   3.927   0.792   4.650  0.9116  0.3514 -0.0998
   34MOL   C62121807   4.075   0.818   4.623 -0.1936 -0.0802 -0.0066
   34MOL   C62221808   4.096   0.880   4.479 -0.8737 -0.1783  0.0025
   34MOL   N62321809   4.240   0.886   4.455  0.1867 -0.8130  0.7141
   34MOL   H62421810   3.798   0.121   4.879  0.0427 -0.6017  0.5903
   34MOL   H62521811   3.618   0.096   4.890  0.1873  0.0084 -2.2316
   34MOL   H62621812   3.786   0.341   4.889 -0.0359  1.5596 -3.8451
   34MOL   H62721813   3.668   0.311   4.766 -1.9427  1.0029  0.7141
   34MOL   H62821814   3.590   0.402   5.046 -0.1000  0.0342  0.0220
   34MOL   H62921815   3.480   0.345   4.917 -1.9043  3.3517  0.1601
   34MOL   H63021816   3.501   0.589   4.934  0.9570  0.6697 -0.4504
   34MOL   H63121817   3.552   0.524   4.777  1.9347  0.6964 -0.2190
   34MOL   H63221818   3.713   0.670   4.702  1.1720  1.2807 -1.4570
   34MOL   H63321819   3.955   0.657   4.814 -2.7430 -1.5762  0.1521
   34MOL   H63421820   3.903   0.802   4.882 -0.2685 -0.5066  1.3948
   34MOL   H63521821   3.882   0.721   4.581 -0.3795  0.9385  0.1306
   34MOL   H63621822   3.871   0.885   4.638  0.7605  0.2251 -0.3740
   34MOL   H63721823   4.123   0.721   4.637  0.3836  0.4484  1.8362
   34MOL   H63821824   4.106   0.890   4.699  1.5373 -0.6477 -0.1663
   34MOL   H63921825   4.052   0.979   4.475  0.8243  0.7061  2.3063
   34MOL   H64021826   4.044   0.814   4.409 -1.0058 -1.0257  0.8900
   34MOL   H64121827   4.282   0.794   4.461  1.6399 -0.1833  0.3965
   34MOL   H64221828   4.294   0.952   4.509  1.4397 -1.1917 -0.0464
   35MOL     C121829   6.830   2.293   5.034  0.0459  0.7960 -0.2515
   35MOL     O221830   6.910   2.241   5.111 -0.2995  0.1542 -0.3148
   35MOL     C321831   6.742   2.202   4.951  0.1022  0.3912 -0.2606
   35MOL     C421832   6.782   2.052   4.958 -0.1446 -0.3829  0.4190
   35MOL     C521833   6.740   1.964   4.840  0.0394  0.6670 -0.3079
   35MOL     C621834   6.779   1.816   4.859  0.3079 -0.1681 -0.2880
   35MOL     C721835   6.929   1.797   4.861  0.0657  0.2840 -0.0661
   35MOL     O821836   6.992   1.811   4.755 -0.1278  0.4817 -0.0497
   35MOL     N921837   6.991   1.776   4.971 -0.4452  0.0618  0.1620
   35MOL    C1021838   7.133   1.800   4.998 -0.0156  0.6226 -0.1219
   35MOL    C1121839   7.147   1.922   5.088 -0.6984  0.6611  0.1529
   35MOL    C1221840   7.293   1.931   5.131 -0.3392  0.0975  0.5029
   35MOL    C1321841   7.334   2.061   5.207 -0.2429  0.1178  0.0135
   35MOL    N1421842   7.463   2.046   5.271  0.3689 -0.1534 -0.0749
   35MOL    H1521843   6.642   2.228   4.988 -0.1895 -1.8851  0.6099
   35MOL    H1621844   6.739   2.220   4.843 -0.0661  1.0868 -0.1449
   35MOL    H1721845   6.891   2.050   4.963 -0.0138  3.0512  0.4606
   35MOL    H1821846   6.742   2.015   5.052 -1.0184  0.5091  0.4150
   35MOL    H1921847   6.776   2.001   4.744 -1.4059  1.6899 -0.4773
   35MOL    H2021848   6.634   1.970   4.815 -0.5191  0.2640  1.7946
   35MOL    H2121849   6.748   1.751   4.777 -0.5222  0.0130 -0.1185
   35MOL    H2221850   6.733   1.780   4.952 -1.6694  1.2024 -0.6945
   35MOL    H2321851   6.934   1.748   5.049  2.0951 -0.4303  1.8790
   35MOL    H2421852   7.206   1.808   4.918 -1.0384 -0.9414 -1.2338
   35MOL    H2521853   7.168   1.715   5.058  0.9296  1.4302  0.4959
   35MOL    H2621854   7.124   2.012   5.031  0.9649  0.1326 -1.3864
   35MOL    H2721855   7.081   1.920   5.175  1.6045  0.2868  1.9178
   35MOL    H2821856   7.360   1.925   5.045  1.4638  0.7822  1.8375
   35MOL    H2921857   7.305   1.848   5.201 -1.1298 -0.7934 -0.4177
   35MOL    H3021858   7.253   2.076   5.278  0.5536  0.3918  0.8742
   35MOL    H3121859   7.342   2.146   5.139 -1.5301 -0.8197 -1.3353
   35MOL    H3221860   7.517   1.972   5.228  0.2285 -1.3041  1.6511
   35MOL    H3321861   6.826   2.399   5.009 -1.1540  1.0385  0.9295
   35MOL    C3421862   7.514   2.102   5.380 -0.4359  0.5665 -0.1303
   35MOL    O3521863   7.441   2.173   5.444  0.0019 -0.0404 -0.5193
   35MOL    C3621864   7.650   2.069   5.430  0.1708  0.1899  0.1870
   35MOL    C3721865   7.688   2.147   5.560  0.0135  0.1105  0.1267
   35MOL    C3821866   0.132   2.122   5.602 -0.2976 -0.0375 -0.0189
   35MOL    C3921867   0.176   2.208   5.730  0.3700 -0.3404 -0.2619
   35MOL    C4021868   0.115   2.170   5.866 -0.7635  0.0241 -0.0233
   35MOL    O4121869   0.143   2.066   5.925 -0.9358 -0.1615  0.4799
   35MOL    N4221870   0.030   2.258   5.925 -0.3688 -0.7650 -0.0228
   35MOL    C4321871   7.629   2.232   6.027 -0.2533 -0.2550 -0.2234
   35MOL    C4421872   7.550   2.100   6.018  0.5180  0.0173  0.2864
   35MOL    C4521873   7.429   2.093   6.125 -0.6863 -0.0544 -0.1643
   35MOL    C4621874   7.330   1.976   6.110  0.1480 -0.4369  0.8353
   35MOL    N4721875   7.379   1.856   6.177 -0.2516 -0.0055  0.6577
   35MOL    H4821876   7.669   1.963   5.448  0.5632  0.5832  2.1991
   35MOL    H4921877   0.018   2.091   5.349 -0.2738 -1.8964 -0.8078
   35MOL    H5021878   7.669   2.248   5.526  0.8965 -0.0468 -0.8383
   35MOL    H5121879   7.629   2.135   5.652 -1.3048  3.5378 -0.1913
   35MOL    H5221880   0.200   2.140   5.519  0.9846  0.0900  1.0566
   35MOL    H5321881   0.145   2.015   5.621 -0.5197  0.0983  0.8944
   35MOL    H5421882   0.139   2.309   5.711 -1.6706 -0.7508  1.2701
   35MOL    H5521883   0.282   2.190   5.743  0.2046 -0.9785  0.2282
   35MOL    H5621884   0.031   2.352   5.889 -2.7285 -0.2730  1.1629
   35MOL    H5721885   7.568   2.322   6.025  0.4053  0.1684 -2.6671
   35MOL    H5821886   7.683   2.235   6.122 -0.5897  0.9118 -0.0633
   35MOL    H5921887   7.510   2.079   5.919  0.5735  2.3010 -0.2550
   35MOL    H6021888   7.610   2.012   6.038  2.5778  1.1078 -0.9089
   35MOL    H6121889   7.364   2.175   6.094 -0.0114 -0.2274 -2.1001
   35MOL    H6221890   7.457   2.125   6.225  0.8265 -1.1625 -0.2212
   35MOL    H6321891   7.309   1.949   6.007 -3.9171  1.4534  1.0717
   35MOL    H6421892   7.238   1.980   6.167 -0.9322  0.5512 -0.9467
   35MOL    H6521893   7.439   1.866   6.257 -0.3464  0.7540  0.6369
   35MOL    C6621894   7.329   1.736   6.148  0.4677  0.1102 -0.2882
   35MOL    O6721895   7.244   1.729   6.061 -0.6314  0.7937  0.4588
   35MOL    C6821896   7.378   1.629   6.231 -0.1394  0.0748  0.1375
   35MOL    C6921897   7.368   1.482   6.181  0.2348 -0.2077 -0.0564
   35MOL    C7021898   7.390   1.378   6.293 -0.1003 -0.3538  0.8330
   35MOL    C7121899   7.376   1.234   6.247  0.0426  0.4271  0.8433
   35MOL    C7221900   7.436   1.205   6.109  0.5536 -0.0757 -0.2385
   35MOL    O7321901   7.551   1.155   6.093  0.4762  0.3556 -0.3492
   35MOL    N7421902   7.350   1.230   6.006 -0.1449  0.1859 -0.2493
   35MOL    C7521903   7.378   1.227   5.868 -0.3475  0.2567 -0.2377
   35MOL    C7621904   7.323   1.107   5.804  0.5256  0.0062  0.3007
   35MOL    C7721905   7.329   0.966   5.870 -0.0790  0.6192 -0.9097
   35MOL    C7821906   7.206   0.927   5.953  0.0373  0.3791 -0.4972
   35MOL    N7921907   7.198   0.786   5.982  0.8978 -0.2779  0.1391
   35MOL    H8021908   7.479   1.643   6.269  0.0970 -0.2278 -0.3761
   35MOL    H8121909   7.319   1.634   6.323 -0.8236  1.1605 -0.3621
   35MOL    H8221910   7.264   1.485   6.149  0.5036  1.6069 -0.8275
   35MOL    H8321911   7.428   1.470   6.091  0.2317 -0.4476 -0.0274
   35MOL    H8421912   7.322   1.397   6.376  0.8887 -1.9768  2.0404
   35MOL    H8521913   7.485   1.395   6.343 -1.2922  0.6297  2.8370
   35MOL    H8621914   7.269   1.213   6.243  0.3756 -1.2749  0.5349
   35MOL    H8721915   7.420   1.161   6.314 -2.7372 -1.6737  0.4896
   35MOL    H8821916   7.255   1.264   6.013 -1.2663 -2.6934 -0.5617
   35MOL    H8921917   7.486   1.232   5.864 -0.2162  0.9453  2.5362
   35MOL    H9021918   7.335   1.313   5.816 -1.8399 -0.7195 -0.6579
   35MOL    H9121919   7.218   1.132   5.790  0.5518  1.4583  2.4784
   35MOL    H9221920   7.362   1.084   5.704 -1.7036  0.6185 -0.7581
   35MOL    H9321921   7.426   0.943   5.915 -0.5299  0.5894  0.0541
   35MOL    H9421922   7.328   0.894   5.789  2.2693 -0.8088  0.2851
   35MOL    H9521923   7.128   0.959   5.883  0.4775  1.3140 -0.5753
   35MOL    H9621924   7.208   0.984   6.046  1.0196 -0.7540  0.1912
   35MOL    H9721925   7.274   0.720   5.968  0.3397 -0.7010 -1.0191
   35MOL    C9821926   7.102   0.746   6.069 -0.8592  0.7036  0.3712
   35MOL    O9921927   7.006   0.816   6.102 -0.1296 -0.7107  0.0600
   35MOL   C10021928   7.107   0.609   6.140  0.8160  0.4134 -0.0789
   35MOL   C10121929   6.974   0.553   6.204 -0.4438  0.1984  0.5639
   35MOL   C10221930   6.915   0.618   6.325  0.0558 -0.9737 -0.0495
   35MOL   C10321931   7.012   0.633   6.443  0.1642 -0.6061 -0.0540
   35MOL   C10421932   6.954   0.644   6.581 -0.5682 -0.1254  0.3426
   35MOL   O10521933   6.853   0.576   6.615 -0.4480 -0.6324  0.0433
   35MOL   N10621934   7.020   0.716   6.667 -0.2489 -0.1044 -0.5752
   35MOL   C10721935   6.978   0.736   6.805 -0.0705 -0.1975 -0.2594
   35MOL   C10821936   7.054   0.644   6.899 -0.9273 -0.5743 -0.3806
   35MOL   C10921937   7.024   0.671   7.048 -0.3830 -0.0224  0.8534
   35MOL   C11021938   7.083   0.563   7.138 -0.2025 -0.1230  0.3683
   35MOL   N11121939   7.063   0.593   7.282  0.4884 -0.4454  0.3418
   35MOL   H11221940   7.140   0.541   6.061  3.3252  3.0013 -1.3816
   35MOL   H11321941   7.185   0.617   6.215 -0.4294 -1.4427  1.4631
   35MOL   H11421942   6.903   0.571   6.123 -2.2454 -0.1372  2.0274
   35MOL   H11521943   6.979   0.445   6.217 -4.6772 -0.1309  0.2570
   35MOL   H11621944   6.823   0.567   6.354 -0.4559 -0.0916 -0.1165
   35MOL   H11721945   6.884   0.720   6.305 -1.6993 -1.5535 -0.3597
   35MOL   H11821946   7.068   0.724   6.417 -0.4265 -0.5754 -1.2714
   35MOL   H11921947   7.079   0.547   6.447 -0.4442 -1.1003 -0.4511
   35MOL   H12021948   7.102   0.763   6.629  0.1143 -0.5851 -0.3951
   35MOL   H12121949   6.870   0.724   6.808 -0.5275  3.2970 -0.7419
   35MOL   H12221950   7.002   0.841   6.821  1.4125 -0.8381  2.0661
   35MOL   H12321951   7.017   0.542   6.887 -2.3062 -0.0777 -0.4525
   35MOL   H12421952   7.161   0.630   6.883 -0.9056 -1.6954  0.6749
   35MOL   H12521953   6.917   0.651   7.058 -0.2911 -0.1915  1.5479
   35MOL   H12621954   7.052   0.770   7.082 -1.6017  1.4137 -2.0780
   35MOL   H12721955   7.192   0.563   7.136 -0.2170 -0.9161 -0.8239
   35MOL   H12821956   7.043   0.465   7.116 -0.1432 -0.7476  2.8554
   35MOL   H12921957   7.005   0.521   7.323  0.7639  1.3244  4.0909
   35MOL   C13021958   7.098   0.700   7.358 -0.3391 -0.1123  0.3704
   35MOL   O13121959   7.169   0.789   7.318  0.3377  0.0521 -0.4134
   35MOL   C13221960   7.015   0.714   7.485  0.1930  0.1374 -0.3100
   35MOL   C13321961   6.894   0.807   7.454 -0.4565  0.3751 -0.2003
   35MOL   C13421962   6.792   0.831   7.574  0.1883  0.1523  0.2902
   35MOL   C13521963   6.701   0.710   7.598 -0.5113  1.1327 -0.4971
   35MOL   C13621964   6.673   0.617   7.477 -0.2016 -0.0635  0.0044
   35MOL   O13721965   6.730   0.505   7.465  0.0283 -0.7004 -0.2833
   35MOL   N13821966   6.588   0.664   7.395  0.1971  0.0979  0.5261
   35MOL   C13921967   6.546   0.605   7.269 -0.0831 -0.2249  0.5523
   35MOL   C14021968   6.660   0.587   7.163 -0.1319  0.5157  0.1907
   35MOL   C14121969   6.623   0.564   7.018 -0.0274 -0.3166  0.5692
   35MOL   C14221970   6.589   0.412   6.986  0.5637  0.9926 -0.3981
   35MOL   N14321971   6.592   0.380   6.846 -0.0879 -0.3978  0.2051
   35MOL   H14421972   6.981   0.620   7.528 -0.5041  1.2289  1.5728
   35MOL   H14521973   7.080   0.739   7.569 -1.3375 -2.2614  1.6492
   35MOL   H14621974   6.925   0.908   7.424 -1.0718  0.0040 -2.1284
   35MOL   H14721975   6.846   0.773   7.362  1.2945 -1.0962 -0.6101
   35MOL   H14821976   6.743   0.923   7.544  0.6952  0.1463 -0.5497
   35MOL   H14921977   6.856   0.855   7.659  1.3571 -0.1450 -0.4990
   35MOL   H15021978   6.607   0.741   7.644  0.0953  0.7485  1.0642
   35MOL   H15121979   6.751   0.642   7.667 -0.4034 -0.0256 -1.7030
   35MOL   H15221980   6.560   0.761   7.405  1.5610  0.8964 -2.7245
   35MOL   H15321981   6.454   0.655   7.237  0.2037  1.0833  1.7377
   35MOL   H15421982   6.508   0.504   7.287  0.6841 -0.6716 -0.2826
   35MOL   H15521983   6.713   0.682   7.165 -0.1860  0.5489  0.0108
   35MOL   H15621984   6.743   0.524   7.195 -0.7421  0.1317  1.0664
   35MOL   H15721985   6.702   0.593   6.948  0.8078  1.5496  2.2176
   35MOL   H15821986   6.532   0.616   6.991 -0.2905 -1.0278  0.0809
   35MOL   H15921987   6.497   0.387   7.040  0.4319  1.4705 -0.4043
   35MOL   H16021988   6.663   0.350   7.038  1.3687  1.4512 -0.9846
   35MOL   H16121989   6.515   0.424   6.797 -0.4977 -1.1634  0.1457
   35MOL   C16221990   6.692   0.325   6.774 -0.2490 -0.6140  0.4809
   35MOL   O16321991   6.787   0.271   6.831 -0.4297 -0.0515 -0.4494
   35MOL   C16421992   6.678   0.309   6.626  0.2177  0.2556 -0.4205
   35MOL   C16521993   6.803   0.239   6.558 -0.1278 -0.2184 -0.0140
   35MOL   C16621994   6.792   0.243   6.402  0.0790  0.3914 -0.3821
   35MOL   C16721995   6.699   0.135   6.347 -0.2831 -0.2296 -0.0494
   35MOL   C16821996   6.715   0.091   6.203 -0.0207 -0.6142 -0.9200
   35MOL   O16921997   6.831   0.074   6.163  0.5559 -0.0587 -0.0155
   35MOL   N17021998   6.608   0.079   6.121 -0.0845 -0.6988 -0.1489
   35MOL   C17121999   6.624   0.071   5.975  0.4182 -0.4552  0.1928
   35MOL   C17222000   6.488   0.061   5.899 -0.2471  0.4166  0.3159
   35MOL   C17322001   6.504   0.107   5.754 -0.2770  0.0825  0.6934
   35MOL   C17422002   6.377   0.107   5.671  0.5792 -0.1590 -0.1664
   35MOL   N17522003   6.385   0.097   5.527  0.2750  0.0216  0.0368
   35MOL   H17622004   6.586   0.254   6.604 -1.2090  2.5053 -0.1804
   35MOL   H17722005   6.687   0.407   6.579  1.6615  0.7270  0.8023
   35MOL   H17822006   6.889   0.296   6.592 -0.2628  0.1709 -0.3224
   35MOL   H17922007   6.811   0.140   6.603  1.2029  0.1827  0.6741
   35MOL   H18022008   6.890   0.218   6.360 -0.7334 -0.7413 -1.6267
   35MOL   H18122009   6.762   0.340   6.362  0.7510  0.0585 -1.7379
   35MOL   H18222010   6.597   0.167   6.365  0.2000  1.6060 -0.4405
   35MOL   H18322011   6.704   0.047   6.411 -0.7153  0.2430  0.6368
   35MOL   H18422012   6.516   0.092   6.162  1.2518  4.2449  1.5884
   35MOL   H18522013   6.688   7.687   5.953  1.1887  0.5101 -1.3488
   35MOL   H18622014   6.681   0.153   5.932  1.1519 -1.5952 -1.0803
   35MOL   H18722015   6.463   7.658   5.886 -1.6678  0.5078  2.1687
   35MOL   H18822016   6.403   0.110   5.945 -1.5645  0.0007 -1.6046
   35MOL   H18922017   6.575   0.040   5.706  0.0069  0.9829 -0.1650
   35MOL   H19022018   6.550   0.206   5.748 -2.8056  1.3409  1.2312
   35MOL   H19122019   6.308   0.186   5.697  0.2377 -0.4434 -0.2023
   35MOL   H19222020   6.321   0.017   5.697 -1.1110  0.6884 -0.8068
   35MOL   H19322021   6.463   0.039   5.498  0.4265  0.6123 -0.7572
   35MOL   C19422022   6.285   0.123   5.442 -0.0815  0.3652  0.7784
   35MOL   O19522023   6.175   0.168   5.472 -0.1053 -0.0467  0.2475
   35MOL   C19622024   6.307   0.077   5.295  0.1287 -0.0067  0.4900
   35MOL   C19722025   6.213   7.661   5.253 -0.1275 -0.3200  0.2174
   35MOL   C19822026   6.221   7.533   5.338 -0.3479  0.2011 -0.3285
   35MOL   C19922027   6.127   7.430   5.282 -0.6813  0.4123 -1.1828
   35MOL   C20022028   6.133   7.391   5.137 -0.1990 -0.0540 -0.0525
   35MOL   O20122029   6.232   7.325   5.101  0.0766  0.2131 -0.2109
   35MOL   N20222030   6.038   7.447   5.055 -0.2979 -0.0900 -0.1903
   35MOL   C20322031   6.053   7.430   4.911  0.2757 -0.0612 -0.3330
   35MOL   C20422032   6.140   7.552   4.858 -0.2247 -0.1227  0.1592
   35MOL   C20522033   6.074   7.686   4.894  0.0599  0.3768 -0.0817
   35MOL   C20622034   6.172   0.100   4.858  0.6785 -0.6502 -0.2108
   35MOL   N20722035   6.114   0.232   4.887 -0.6175 -0.2667  0.3940
   35MOL   H20822036   6.300   0.153   5.216 -0.4577  1.3024  1.7781
   35MOL   H20922037   6.410   0.052   5.269  0.9235 -1.0081  4.3578
   35MOL   H21022038   6.112   0.001   5.250 -0.8341 -2.0956 -3.0709
   35MOL   H21122039   6.241   7.642   5.149 -1.0151  1.5409 -0.3854
   35MOL   H21222040   6.188   7.537   5.442  1.0669 -0.7792  0.1722
   35MOL   H21322041   6.322   7.493   5.330  0.9657  3.4352 -0.9381
   35MOL   H21422042   6.024   7.446   5.313 -0.6897 -1.9044  0.1856
   35MOL   H21522043   6.145   7.342   5.345 -1.1232 -0.7237 -2.6115
   35MOL   H21622044   5.955   7.483   5.100  0.3182 -0.2328  1.1059
   35MOL   H21722045   5.953   7.429   4.866  0.3002  2.3298 -0.5123
   35MOL   H21822046   6.097   7.338   4.873  0.6241  0.4827 -1.2872
   35MOL   H21922047   6.245   7.543   4.888  0.7913  3.2077 -2.0445
   35MOL   H22022048   6.131   7.549   4.749  0.1779 -0.5742  0.1377
   35MOL   H22122049   6.054   0.002   5.000  1.0807  2.1501 -0.1643
   35MOL   H22222050   5.982   0.001   4.837  0.2407 -0.9555 -0.7738
   35MOL   H22322051   6.197   0.110   4.753  0.4194  0.8470 -0.1361
   35MOL   H22422052   6.264   0.086   4.915 -0.3404 -1.6407  1.2361
   35MOL   H22522053   6.019   0.245   4.920 -0.9495 -0.3883 -0.5230
   35MOL   C22622054   6.166   0.345   4.843  0.2125  0.0983  0.9933
   35MOL   O22722055   6.262   0.352   4.762  0.2134  0.4306  0.0998
   35MOL   C22822056   6.084   0.477   4.870 -0.5876 -0.2254 -0.2881
   35MOL   C22922057   6.166   0.598   4.873  0.2690  0.1047 -0.4376
   35MOL   C23022058   6.117   0.709   4.780 -0.0892  0.2358  0.0658
   35MOL   C23122059   5.992   0.782   4.836  0.3080  0.0491 -0.4305
   35MOL   C23222060   6.013   0.856   4.967 -0.8348 -0.5526  0.1478
   35MOL   O23322061   6.073   0.964   4.969 -0.5198  0.3596 -0.0492
   35MOL   N23422062   5.970   0.795   5.081  0.0575 -0.5723  0.1676
   35MOL   C23522063   6.018   0.830   5.215  0.2253  0.3122 -0.2262
   35MOL   C23622064   5.998   0.973   5.256  0.2107 -0.6915  0.1271
   35MOL   C23722065   5.852   1.027   5.253  0.2637  0.1058  0.1627
   35MOL   C23822066   5.842   1.154   5.346  0.2626  0.2732 -0.0661
   35MOL   N23922067   5.707   1.211   5.342 -0.4620  0.2565 -0.5695
   35MOL   H24022068   6.015   0.475   4.785 -1.0019  1.1780 -0.0160
   35MOL   H24122069   6.027   0.464   4.962 -1.4270  0.1966 -0.7322
   35MOL   H24222070   6.173   0.631   4.977  2.1898  0.8949 -0.7927
   35MOL   H24322071   6.267   0.564   4.852  1.3968  3.2325 -0.2895
   35MOL   H24422072   6.106   0.663   4.681 -0.6601  0.0838  0.1958
   35MOL   H24522073   6.188   0.789   4.761 -1.6922  1.0032 -3.0763
   35MOL   H24622074   5.909   0.720   4.870  0.8451  0.5831  1.9720
   35MOL   H24722075   5.947   0.862   4.777  0.0883  0.5433  0.4046
   35MOL   H24822076   5.932   0.704   5.060 -1.3990  0.4699 -1.7891
   35MOL   H24922077   6.124   0.803   5.219  0.1021  0.1466  2.0527
   35MOL   H25022078   5.969   0.771   5.292 -2.0010  0.5707 -1.3930
   35MOL   H25122079   6.041   0.986   5.355  1.0927 -0.7041 -0.2538
   35MOL   H25222080   6.058   1.042   5.197 -0.0969 -0.8262 -0.3479
   35MOL   H25322081   5.787   0.955   5.303 -1.8231  2.0915  0.4214
   35MOL   H25422082   5.811   1.047   5.154 -0.9385  1.0447  0.8287
   35MOL   H25522083   5.914   1.233   5.322  0.0239  0.2377 -0.8939
   35MOL   H25622084   5.865   1.124   5.449 -1.8908 -2.7521 -0.4039
   35MOL   H25722085   5.687   1.272   5.265 -1.7344  2.5396  1.4815
   35MOL   C25822086   5.620   1.190   5.437  0.5975 -0.0627 -0.5217
   35MOL   O25922087   5.632   1.101   5.522  0.2149  0.0661 -0.0344
   35MOL   C26022088   5.483   1.269   5.437 -0.5290 -0.1923 -0.0795
   35MOL   C26122089   5.423   1.303   5.570  0.0874  0.3933 -0.2769
   35MOL   C26222090   5.264   1.313   5.565  0.3169  0.2563  0.3331
   35MOL   C26322091   5.195   1.387   5.680  0.1542  0.2285  0.1926
   35MOL   C26422092   5.226   1.322   5.809  1.2497 -0.2595 -0.0535
   35MOL   O26522093   5.331   1.351   5.863  0.0193 -0.8451 -0.0051
   35MOL   N26622094   5.142   1.230   5.861 -0.0428 -0.1121 -1.0032
   35MOL   C26722095   5.181   1.134   5.968 -0.5838  0.3924 -0.2910
   35MOL   C26822096   5.244   0.999   5.913  0.8758 -0.0766  0.4320
   35MOL   C26922097   5.391   1.022   5.877  0.0281  0.3072 -0.1761
   35MOL   C27022098   5.444   0.902   5.795 -0.3864  0.1131  0.0440
   35MOL   N27122099   5.581   0.924   5.760  0.3206 -0.3868  0.5307
   35MOL   H27222100   5.470   1.351   5.367 -0.2827  0.0268  0.1325
   35MOL   H27322101   5.404   1.202   5.402 -2.3116  1.0374  1.5203
   35MOL   H27422102   5.455   1.234   5.648  0.5772  0.5177 -0.3673
   35MOL   H27522103   5.469   1.396   5.605  1.6344  0.1954 -1.7255
   35MOL   H27622104   5.223   1.212   5.557 -2.5043  1.3794  0.3314
   35MOL   H27722105   5.236   1.366   5.475  3.1523 -1.0129 -1.3519
   35MOL   H27822106   5.087   1.389   5.669  0.0188  0.8168  1.4681
   35MOL   H27922107   5.237   1.486   5.695  3.4364 -0.5750 -3.0733
   35MOL   H28022108   5.057   1.222   5.808 -0.6019 -0.6403 -0.0264
   35MOL   H28122109   5.089   1.108   6.020 -0.3462  1.0888  0.4733
   35MOL   H28222110   5.241   1.180   6.046 -1.8053 -0.4732  1.1857
   35MOL   H28322111   5.235   0.925   5.993 -1.6200  1.1052  1.2868
   35MOL   H28422112   5.182   0.963   5.831  0.9488  0.4542  0.1433
   35MOL   H28522113   5.442   1.048   5.970 -0.9071 -1.5475  0.8931
   35MOL   H28622114   5.399   1.110   5.814 -3.4004  2.6468  2.4545
   35MOL   H28722115   5.389   0.886   5.703  4.0600  1.3158 -3.0126
   35MOL   H28822116   5.431   0.807   5.848  1.7310 -2.1762 -3.3195
   35MOL   H28922117   5.602   0.966   5.670  0.1405 -3.5721 -1.0456
   35MOL   C29022118   5.693   0.872   5.819  0.1933 -0.1766 -0.1228
   35MOL   O29122119   5.687   0.812   5.927  0.8236 -0.4268  0.1968
   35MOL   C29222120   5.832   0.907   5.756 -0.1006  0.0028  0.1991
   35MOL   C29322121   5.954   0.882   5.849  0.2388 -0.7416 -0.3552
   35MOL   C29422122   6.001   0.738   5.860  0.6708  0.2816  0.1930
   35MOL   C29522123   6.152   0.725   5.905  0.3177 -0.0024 -0.7797
   35MOL   C29622124   6.254   0.730   5.795  0.2225 -0.0420  0.2475
   35MOL   O29722125   6.236   0.779   5.686  0.4754 -0.1916  0.1024
   35MOL   N29822126   6.372   0.681   5.832 -0.3075 -0.2652 -0.2959
   35MOL   C29922127   6.489   0.665   5.746  0.3158 -0.5082  0.5790
   35MOL   C30022128   6.624   0.670   5.825  0.7214 -0.2776  0.9885
   35MOL   C30122129   6.741   0.696   5.731  0.0250 -0.2708  0.3284
   35MOL   C30222130   6.882   0.698   5.796  0.4573 -0.4174  0.3684
   35MOL   N30322131   6.971   0.713   5.683  0.3009  0.5778 -0.4936
   35MOL   H30422132   5.847   0.844   5.669 -2.4964 -0.0206 -0.2416
   35MOL   H30522133   5.820   1.013   5.734  1.3426 -0.1691 -1.4858
   35MOL   H30622134   6.038   0.937   5.807 -0.5519  0.0290 -0.9630
   35MOL   H30722135   5.940   0.927   5.947  0.1476 -2.2100  0.3140
   35MOL   H30822136   5.991   0.693   5.761  0.6512 -2.3624  1.3355
   35MOL   H30922137   5.928   0.683   5.920 -1.0199  1.2350 -0.9593
   35MOL   H31022138   6.155   0.623   5.941 -1.0521 -0.5232 -2.0954
   35MOL   H31122139   6.168   0.795   5.987 -2.6332  2.3069 -2.0603
   35MOL   H31222140   6.375   0.639   5.924 -0.6053  2.8373  1.1682
   35MOL   H31322141   6.484   0.751   5.680  3.0440  0.3051  1.3477
   35MOL   H31422142   6.488   0.576   5.683  2.0472 -0.8928  1.0407
   35MOL   H31522143   6.621   0.747   5.902 -1.5195 -0.4277  1.1033
   35MOL   H31622144   6.631   0.573   5.874  0.8532 -2.1622 -2.5748
   35MOL   H31722145   6.724   0.789   5.677 -2.6218 -0.4961  0.7003
   35MOL   H31822146   6.746   0.619   5.654 -0.1646 -0.8554  0.8910
   35MOL   H31922147   6.895   0.605   5.851 -1.6420  0.1033  1.7714
   35MOL   H32022148   6.880   0.777   5.871 -1.4478 -0.6671  0.5918
   35MOL   H32122149   6.967   0.806   5.644 -2.3410  1.2138  1.1355
   35MOL   C32222150   7.074   0.629   5.652 -0.8770 -0.6799  0.5543
   35MOL   O32322151   7.091   0.524   5.710 -0.3899  0.2770  0.5737
   35MOL   C32422152   7.180   0.676   5.542  0.0996 -0.0996  0.2503
   35MOL   C32522153   7.248   0.564   5.467  0.3115  0.0431 -0.4919
   35MOL   C32622154   7.153   0.472   5.386  0.2440 -0.2503 -0.8178
   35MOL   C32722155   7.218   0.344   5.327 -0.3647  0.4559  0.0322
   35MOL   C32822156   7.261   0.244   5.429 -0.0778 -0.1892 -0.1120
   35MOL   O32922157   7.177   0.191   5.498  0.3814  0.1613  0.2094
   35MOL   N33022158   7.389   0.208   5.421 -0.0858 -0.5228  0.2636
   35MOL   C33122159   7.453   0.100   5.502 -0.2091 -0.1140 -0.0786
   35MOL   C33222160   7.589   0.158   5.554  0.1547 -0.6412  0.4811
   35MOL   C33322161   7.682   0.051   5.624  0.1963 -0.0560 -0.0653
   35MOL   C33422162   7.646   7.697   5.760  0.2871  0.5355 -0.2471
   35MOL   N33522163   7.692   0.074   5.875 -0.4466  0.0801 -0.3972
   35MOL   H33622164   7.146   0.749   5.469  0.4008 -0.2305 -0.0216
   35MOL   H33722165   7.258   0.723   5.601  0.5863  0.7669 -1.0507
   35MOL   H33822166   7.320   0.604   5.396 -0.2463 -0.3574 -1.2907
   35MOL   H33922167   7.296   0.508   5.548 -1.2011 -0.1016  0.3303
   35MOL   H34022168   7.099   0.523   5.307  0.3365  0.1001 -0.6598
   35MOL   H34122169   7.076   0.440   5.457 -0.6213  2.7561 -0.3281
   35MOL   H34222170   7.306   0.372   5.268  0.3348  1.1244  1.3683
   35MOL   H34322171   7.136   0.303   5.268  0.0592  3.6076 -2.9292
   35MOL   H34422172   7.442   0.257   5.350 -0.4743 -0.5855 -0.0683
   35MOL   H34522173   7.453   0.002   5.454 -0.2178 -0.2208  0.1410
   35MOL   H34622174   7.384   0.085   5.585  0.0362  0.7377  0.2849
   35MOL   H34722175   7.653   0.194   5.474 -1.9207  1.0362 -0.4753
   35MOL   H34822176   7.583   0.248   5.616 -0.3002 -1.1366  1.1737
   35MOL   H34922177   0.086   0.081   5.630  0.0701  0.6435 -1.2467
   35MOL   H35022178   7.684   7.675   5.548 -2.8547  1.9628 -2.3127
   35MOL   H35122179   7.688   7.598   5.780  1.5963  1.2523  0.5960
   35MOL   H35222180   7.540   7.674   5.772 -0.1001  2.5074  0.2399
   35MOL   H35322181   0.078   0.122   5.862 -1.2116  0.9138 -2.6402
   35MOL   C35422182   7.625   0.099   5.986 -0.4389 -1.0011 -0.2451
   35MOL   O35522183   7.519   0.045   6.014  0.5177  0.6047  0.1755
   35MOL   C35622184   7.685   0.203   6.080  0.1388 -0.5628  0.2488
   35MOL   C35722185   7.635   0.347   6.052  0.2022  0.3710  0.4856
   35MOL   C35822186   7.478   0.356   6.039 -0.9222 -1.0342  0.8244
   35MOL   C35922187   7.409   0.389   5.911 -0.6967  0.1068 -0.1486
   35MOL   C36022188   7.455   0.525   5.844  0.4761  0.4822 -0.0382
   35MOL   O36122189   7.438   0.636   5.899  0.0136 -0.0122 -0.6439
   35MOL   N36222190   7.524   0.506   5.732  0.3638  0.3222 -0.0663
   35MOL   C36322191   7.611   0.605   5.670 -0.3510 -0.1436 -0.0576
   35MOL   C36422192   7.686   0.546   5.554  0.2653  0.9140  0.1703
   35MOL   C36522193   7.594   0.518   5.434  0.2535 -0.2775 -0.3848
   35MOL   C36622194   7.673   0.493   5.308 -0.3493 -0.1113 -0.3873
   35MOL   N36722195   7.592   0.481   5.190 -0.1238  0.1396 -0.4804
   35MOL   H36822196   7.658   0.179   6.182  1.2486 -1.5869  0.3188
   35MOL   H36922197   0.093   0.199   6.087  0.2609  0.8423 -0.7251
   35MOL   H37022198   7.656   0.408   6.140 -0.0380 -2.5695  2.6515
   35MOL   H37122199   7.688   0.389   5.966  0.6395  0.1234  0.6378
   35MOL   H37222200   7.439   0.435   6.103 -1.3825 -0.7877  0.2455
   35MOL   H37322201   7.433   0.271   6.090  0.2819 -1.4834  1.1339
   35MOL   H37422202   7.302   0.381   5.931 -0.5180  0.2649  0.9330
   35MOL   H37522203   7.412   0.315   5.831 -1.0978  0.1011 -0.1579
   35MOL   H37622204   7.519   0.415   5.689  0.0995  0.9645 -1.4336
   35MOL   H37722205   7.676   0.653   5.743  0.6684 -0.2330 -0.9000
   35MOL   H37822206   7.551   0.691   5.642 -0.5221 -0.5379 -0.9142
   35MOL   H37922207   0.057   0.617   5.513 -0.4536  0.6833 -1.5631
   35MOL   H38022208   0.035   0.454   5.583  0.0575  1.1094  1.1448
   35MOL   H38122209   7.540   0.611   5.418 -1.8196 -1.4945 -0.8025
   35MOL   H38222210   7.529   0.432   5.457 -1.7737  0.6607 -2.4352
   35MOL   H38322211   0.039   0.407   5.307 -0.6455 -0.3427 -0.6546
   35MOL   H38422212   0.027   0.584   5.286 -1.8112  0.6633 -0.9706
   35MOL   H38522213   7.564   0.562   5.137 -1.6204  0.6575  1.0445
   35MOL   C38622214   7.563   0.358   5.142  0.1050  0.6355  0.1746
   35MOL   O38722215   7.559   0.258   5.212 -0.1213 -0.1259  0.6698
   35MOL   C38822216   7.520   0.344   4.994 -0.2998  0.5309  0.2132
   35MOL   C38922217   7.380   0.319   4.981 -0.2195 -0.5316 -0.0103
   35MOL   C39022218   7.323   0.352   4.839  0.5483 -0.2336  1.0081
   35MOL   C39122219   7.183   0.289   4.832  0.4016  0.0208 -0.0884
   35MOL   C39222220   7.179   0.177   4.727 -0.1319 -0.0650  0.2013
   35MOL   O39322221   7.202   0.199   4.606 -0.2378  0.6588  0.4074
   35MOL   N39422222   7.133   0.058   4.762  0.1666  0.5440 -0.5970
   35MOL   C39522223   7.105   7.647   4.679  0.4254 -0.1812 -0.5414
   35MOL   C39622224   7.003   7.554   4.743 -0.3555 -0.2338  0.0189
   35MOL   C39722225   6.949   7.453   4.638 -0.2928 -0.4187 -0.2578
   35MOL   C39822226   6.857   7.349   4.703 -0.3585  0.7701 -0.1767
   35MOL   N39922227   6.761   7.301   4.609  0.3137 -0.2176 -0.2540
   35MOL   H40022228   7.553   0.432   4.939  1.8190 -1.5095 -1.9257
   35MOL   H40122229   7.570   0.257   4.949 -2.6867  0.1782 -1.8350
   35MOL   H40222230   7.349   0.217   5.006 -0.8295  0.2063  2.4334
   35MOL   H40322231   7.333   0.386   5.054  0.7449 -0.5545  0.6490
   35MOL   H40422232   7.383   0.316   4.755 -0.4377 -0.6975  0.4907
   35MOL   H40522233   7.328   0.460   4.828 -1.3684 -0.3094 -1.0483
   35MOL   H40622234   7.116   0.369   4.800 -0.9712 -0.0962  2.3420
   35MOL   H40722235   7.159   0.250   4.931 -1.9694 -0.4658 -0.8404
   35MOL   H40822236   7.115   0.044   4.860  1.5449 -2.1468 -0.6905
   35MOL   H40922237   7.193   7.593   4.646 -1.6342 -3.1601 -1.3524
   35MOL   H41022238   7.055   7.680   4.588 -0.6349 -1.0731 -0.2925
   35MOL   H41122239   7.055   7.502   4.824 -0.4580  0.6486  0.6570
   35MOL   H41222240   6.924   7.617   4.783 -0.4834 -0.6148  0.3656
   35MOL   H41322241   7.032   7.405   4.585  0.2188  0.2025 -0.0314
   35MOL   H41422242   6.886   7.503   4.565  1.7837 -0.0025 -1.8240
   35MOL   H41522243   6.810   7.396   4.788 -0.7717  0.9557 -0.5084
   35MOL   H41622244   6.914   7.272   4.755 -1.3784  0.2139  0.1348
   35MOL   H41722245   6.760   7.334   4.513  0.3187 -2.3362 -1.0190
   35MOL   C41822246   6.667   7.210   4.639  0.1184 -0.0642  0.4879
   35MOL   O41922247   6.655   7.176   4.756 -0.1487 -0.0020  0.3380
   35MOL   C42022248   6.573   7.154   4.531 -0.6646 -0.0363  0.7007
   35MOL   C42122249   6.510   7.018   4.584  0.3880  0.4929  0.2052
   35MOL   C42222250   6.610   6.899   4.571 -0.5116  0.0879  0.0683
   35MOL   C42322251   6.572   6.783   4.660  0.3516 -0.3084  0.0066
   35MOL   C42422252   6.435   6.728   4.624 -0.4107  0.5314  0.3412
   35MOL   O42522253   6.395   6.719   4.506  0.4970 -0.4133 -0.3992
   35MOL   N42622254   6.357   6.683   4.727  0.5595 -0.3855 -0.3007
   35MOL   C42722255   6.220   6.631   4.716 -0.3578 -0.7880  0.0145
   35MOL   C42822256   6.231   6.475   4.703 -0.1733 -0.2339  0.5550
   35MOL   C42922257   6.100   6.405   4.710 -0.2338  0.1487 -0.2296
   35MOL   C43022258   6.097   6.252   4.701  0.6138 -0.1589  0.4290
   35MOL   N43122259   6.202   6.183   4.766  0.0998 -0.4455  0.5950
   35MOL   H43222260   6.501   7.235   4.513 -1.8237 -1.0150  0.8311
   35MOL   H43322261   6.623   7.130   4.437 -3.4282  0.5109 -0.9645
   35MOL   H43422262   6.471   7.018   4.686 -0.4295  2.7400 -0.0742
   35MOL   H43522263   6.425   6.990   4.522  2.1785 -1.7432 -1.2791
   35MOL   H43622264   6.712   6.931   4.589 -0.4910 -1.4469  3.0537
   35MOL   H43722265   6.612   6.867   4.467  1.4085 -2.0645  0.7496
   35MOL   H43822266   6.572   6.813   4.765  1.3037 -0.9437  0.1961
   35MOL   H43922267   6.648   6.705   4.659  2.4703  1.7101  0.0600
   35MOL   H44022268   6.389   6.685   4.823  0.6856 -0.4889 -0.3415
   35MOL   H44122269   6.167   6.688   4.640  0.6424  0.5254  0.2893
   35MOL   H44222270   6.174   6.657   4.811  1.9047  0.6745  0.7477
   35MOL   H44322271   6.277   6.448   4.609  0.3119 -0.4843  0.8648
   35MOL   H44422272   6.303   6.438   4.776  1.4046  1.2568 -0.2195
   35MOL   H44522273   6.036   6.438   4.628 -0.4350 -0.7100 -0.4226
   35MOL   H44622274   6.047   6.438   4.800 -2.1329  0.4415 -1.4212
   35MOL   H44722275   6.115   6.227   4.596  1.8848 -1.4811  0.9369
   35MOL   H44822276   5.998   6.226   4.738 -0.5629  0.5823 -2.0992
   35MOL   H44922277   6.277   6.140   4.715 -0.7517  0.2782 -1.3285
   35MOL   C45022278   6.191   6.161   4.903 -0.4710 -1.0257 -0.7277
   35MOL   O45122279   6.101   6.205   4.973 -0.4536 -0.0465 -0.0085
   35MOL   C45222280   6.309   6.091   4.972  0.1928 -0.0873  0.0444
   35MOL   C45322281   6.260   5.980   5.063  0.6590  0.4769 -0.9872
   35MOL   C45422282   6.219   6.029   5.211 -1.0087 -0.2634  0.7243
   35MOL   C45522283   6.167   5.915   5.311 -0.0392 -0.2216 -0.0603
   35MOL   C45622284   6.034   5.859   5.277 -0.6126 -0.3844  0.0458
   35MOL   O45722285   5.994   5.862   5.167 -0.5015 -0.4513  0.0097
   35MOL   N45822286   5.963   5.809   5.379  0.0106  0.4963 -0.4426
   35MOL   C45922287   5.829   5.758   5.380  0.3164 -0.5188 -0.6088
   35MOL   C46022288   5.821   5.603   5.402 -0.2469  0.1400 -1.1936
   35MOL   C46122289   5.680   5.543   5.394  1.1329 -0.3622  0.4330
   35MOL   C46222290   5.674   5.390   5.408  0.2252  0.3221  0.6460
   35MOL   N46322291   5.729   5.314   5.289 -0.1033  0.1657 -0.0091
   35MOL   H46422292   6.383   6.057   4.899  0.3826  3.0893 -1.3090
   35MOL   H46522293   6.370   6.152   5.037 -0.9301  1.8754 -0.7074
   35MOL   H46622294   6.178   5.923   5.019  0.7418 -0.6617  0.3316
   35MOL   H46722295   6.337   5.906   5.083  0.9680  0.4759 -2.1672
   35MOL   H46822296   6.141   6.105   5.207 -0.9815 -0.1789  1.6411
   35MOL   H46922297   6.303   6.081   5.257 -0.2669  0.9173 -1.9176
   35MOL   H47022298   6.164   5.965   5.408  1.6612  0.7019 -0.4601
   35MOL   H47122299   6.237   5.832   5.303  0.0068 -0.2469  0.5823
   35MOL   H47222300   5.998   5.816   5.473  0.3055 -1.4691 -0.4033
   35MOL   H47322301   5.788   5.787   5.283 -0.3100 -0.9135 -0.4630
   35MOL   H47422302   5.769   5.813   5.453 -0.4736 -2.2916  0.1072
   35MOL   H47522303   5.894   5.564   5.331  2.2119  1.9765  0.2278
   35MOL   H47622304   5.867   5.586   5.500 -0.8305  0.4346 -0.8648
   35MOL   H47722305   5.631   5.575   5.302 -1.8661 -2.5731  1.1677
   35MOL   H47822306   5.609   5.582   5.467 -0.3866 -1.5189 -0.3896
   35MOL   H47922307   5.574   5.354   5.432 -0.5682  1.2365 -1.2153
   35MOL   H48022308   5.737   5.351   5.488 -1.7574 -4.9042 -0.1579
   35MOL   H48122309   5.763   5.370   5.213 -0.1954 -0.5334 -0.5691
   35MOL   C48222310   5.729   5.181   5.274 -0.2802  0.3346 -0.0877
   35MOL   O48322311   5.768   5.138   5.165  0.1070 -0.3671 -0.3523
   35MOL   C48422312   5.681   5.089   5.381  0.1096  0.5323 -0.4971
   35MOL   C48522313   5.686   4.943   5.332  0.0442 -0.4619  0.3377
   35MOL   C48622314   5.631   4.843   5.436  0.2425  0.0442 -0.2456
   35MOL   C48722315   5.729   4.747   5.502  0.4189 -0.6286 -0.2444
   35MOL   C48822316   5.823   4.816   5.602 -0.5776  0.0117 -0.0448
   35MOL   O48922317   5.784   4.913   5.669  0.4054  0.8147  0.2836
   35MOL   N49022318   5.950   4.761   5.612 -0.0568 -0.4256 -0.5921
   35MOL   C49122319   6.057   4.779   5.705 -0.4142 -0.3379  0.2010
   35MOL   C49222320   6.192   4.775   5.633 -0.0305 -0.3367  0.1698
   35MOL   C49322321   6.313   4.836   5.713  0.1102  0.1742 -0.2007
   35MOL   C49422322   6.361   4.748   5.828 -0.3158 -0.5591 -0.4092
   35MOL   N49522323   6.505   4.780   5.863  0.6652 -0.9548  0.4381
   35MOL   H49622324   5.736   5.112   5.472  0.9016  0.2197 -0.8989
   35MOL   H49722325   5.581   5.127   5.404  0.1331  0.5445 -0.4171
   35MOL   H49822326   5.629   4.924   5.240  1.1495  0.3806 -0.5318
   35MOL   H49922327   5.789   4.917   5.309 -0.8628 -3.6840 -0.3610
   35MOL   H50022328   5.551   4.789   5.386  0.9561 -0.4087 -0.9162
   35MOL   H50122329   5.587   4.898   5.520 -1.1821  0.4867 -1.2706
   35MOL   H50222330   5.785   4.688   5.429  0.8886 -0.0283 -0.3748
   35MOL   H50322331   5.666   4.679   5.559  1.6179  1.4505  3.7853
   35MOL   H50422332   5.960   4.689   5.543 -0.5435 -2.1770  1.1328
   35MOL   H50522333   6.059   4.710   5.789  1.1970 -0.1460  0.3417
   35MOL   H50622334   6.054   4.877   5.751  2.2372  0.4063 -1.1105
   35MOL   H50722335   6.216   4.673   5.603  0.3768  0.2959 -1.7790
   35MOL   H50822336   6.189   4.821   5.534 -0.5128 -1.6095 -0.4209
   35MOL   H50922337   6.301   4.938   5.748 -0.8485 -0.0933  0.2710
   35MOL   H51022338   6.394   4.843   5.641  0.4060 -0.0736  0.1065
   35MOL   H51122339   6.352   4.644   5.798  0.9427 -1.5260  2.3952
   35MOL   H51222340   6.309   4.756   5.923 -1.7164  1.7814 -1.3081
   35MOL   H51322341   6.579   4.754   5.800  1.5500 -0.7867  1.3846
   35MOL   C51422342   6.552   4.838   5.975 -0.7108 -0.4725  0.0846
   35MOL   O51522343   6.479   4.862   6.075 -0.2712  0.4008  0.1596
   35MOL   C51622344   6.700   4.868   5.989 -0.1811 -0.6931  0.2759
   35MOL   C51722345   6.775   4.763   6.074  0.1053 -0.4574 -0.1016
   35MOL   C51822346   6.784   4.624   6.004 -0.4094  0.2255  0.2716
   35MOL   C51922347   6.867   4.623   5.872 -0.2559  0.8238  0.3413
   35MOL   C52022348   6.785   4.645   5.749  0.6015  0.1393 -0.0486
   35MOL   O52122349   6.668   4.596   5.748 -0.1229  0.0418 -0.1991
   35MOL   N52222350   6.841   4.709   5.648  0.2891  0.1950  0.8517
   35MOL   C52322351   6.765   4.740   5.531  0.1739  0.7811 -0.2619
   35MOL   C52422352   6.864   4.795   5.425  0.5684  0.5540  0.2290
   35MOL   C52522353   6.795   4.850   5.303 -0.2196  0.0060 -0.0840
   35MOL   C52622354   6.883   4.931   5.210  0.4156  0.2403  0.3074
   35MOL   N52722355   6.806   5.012   5.125  0.3742  0.2629  0.4932
   35MOL   H52822356   6.748   4.885   5.892 -0.0368  0.1148  0.4878
   35MOL   H52922357   6.715   4.966   6.034 -0.9981  0.5209 -1.9828
   35MOL   H53022358   6.875   4.798   6.100 -0.9112  1.6031  1.1568
   35MOL   H53122359   6.733   4.764   6.175  0.5188 -2.7357  0.1241
   35MOL   H53222360   6.686   4.582   5.983 -0.4524  0.8484 -0.7958
   35MOL   H53322361   6.832   4.553   6.072  0.6556 -0.3442 -1.0499
   35MOL   H53422362   6.931   4.538   5.850  2.6915  2.1695  3.2620
   35MOL   H53522363   6.933   4.710   5.870 -0.3118  0.8812  0.9180
   35MOL   H53622364   6.923   4.767   5.659  0.7261 -0.4252  0.9751
   35MOL   H53722365   6.704   4.826   5.561  0.5613  0.2744  2.1125
   35MOL   H53822366   6.690   4.667   5.501  0.8191 -0.1181  0.3031
   35MOL   H53922367   6.938   4.861   5.470 -1.0022  2.4076  0.1632
   35MOL   H54022368   6.931   4.716   5.390 -1.9474 -1.7320  0.3742
   35MOL   H54122369   6.716   4.917   5.338  0.5736 -0.2844  2.3648
   35MOL   H54222370   6.743   4.770   5.250 -0.4668  0.9565 -1.2854
   35MOL   H54322371   6.951   4.870   5.151 -0.2946 -0.8330  0.5834
   35MOL   H54422372   6.948   4.998   5.266 -0.4612 -0.5473  2.3127
   35MOL   H54522373   6.825   5.111   5.128  1.9456  0.0705 -1.4710
   35MOL   C54622374   6.740   4.978   5.010 -0.2375 -0.0355 -0.1273
   35MOL   O54722375   6.716   4.866   4.970  0.4480  0.2116 -0.0318
   35MOL   C54822376   6.698   5.102   4.934  0.4453 -0.2549  0.1004
   35MOL   C54922377   6.600   5.188   5.015  0.0117  0.3831 -0.2104
   35MOL   C55022378   6.465   5.122   5.042  0.2626  0.0813  0.3150
   35MOL   C55122379   6.394   5.055   4.924 -0.2588  0.3112  0.6439
   35MOL   C55222380   6.245   5.024   4.958 -0.0100 -0.4604 -0.9521
   35MOL   O55322381   6.150   5.085   4.904 -0.1255  0.6024 -0.3773
   35MOL   N55422382   6.228   4.930   5.050  0.0051  0.5890 -0.0285
   35MOL   C55522383   6.092   4.890   5.114 -0.0217  1.1785  0.0244
   35MOL   C55622384   6.034   4.780   5.022  0.3598  0.4857  0.3020
   35MOL   C55722385   5.902   4.718   5.081  0.1501  0.8770  0.3875
   35MOL   C55822386   5.817   4.638   4.983 -0.4839 -0.1163  0.2008
   35MOL   N55922387   5.783   4.727   4.868  0.3438  0.6000  0.4644
   35MOL   H56022388   6.780   5.170   4.910 -0.0561 -0.1214 -1.3076
   35MOL   H56122389   6.650   5.078   4.839  1.9144  0.1795 -0.7653
   35MOL   H56222390   6.646   5.224   5.107 -2.2664  1.4514  0.5478
   35MOL   H56322391   6.576   5.275   4.953 -3.6741 -0.0133  0.5447
   35MOL   H56422392   6.395   5.198   5.078  0.5668  0.1816  0.7027
   35MOL   H56522393   6.476   5.049   5.122  1.3145 -0.0692  0.0375
   35MOL   H56622394   6.436   4.957   4.899 -1.7339 -0.5897  1.6085
   35MOL   H56722395   6.377   5.102   4.827  2.0476 -0.1600 -0.0234
   35MOL   H56822396   6.308   4.881   5.088 -1.0709 -1.0036  0.2196
   35MOL   H56922397   6.031   4.976   5.143  0.1168  1.5206 -0.6905
   35MOL   H57022398   6.096   4.846   5.213 -2.4285 -1.7298 -1.0645
   35MOL   H57122399   6.021   4.827   4.925  0.5937  0.7758  0.4107
   35MOL   H57222400   6.106   4.698   5.013 -0.4723 -0.0351 -1.9595
   35MOL   H57322401   5.840   4.804   5.106 -1.1360  0.0522  0.0950
   35MOL   H57422402   5.926   4.665   5.173  4.0133 -0.6275 -1.3974
   35MOL   H57522403   5.729   4.602   5.035 -1.1847  1.0163 -0.1820
   35MOL   H57622404   5.882   4.558   4.948  1.5618  0.3884  2.6908
   35MOL   H57722405   5.853   4.741   4.797 -1.1293 -0.9809 -1.3537
   35MOL   C57822406   5.663   4.782   4.844 -0.1499  0.4782  0.4447
   35MOL   O57922407   5.564   4.767   4.917  0.1058 -0.1910  0.6473
   35MOL   C58022408   5.651   4.850   4.709  0.0112 -0.2085 -0.3361
   35MOL   C58122409   5.510   4.860   4.656 -0.8781 -0.3982 -0.2685
   35MOL   C58222410   5.501   4.941   4.526 -0.2942 -0.2995  0.6090
   35MOL   C58322411   5.356   4.989   4.500  0.0198 -0.7175  0.9566
   35MOL   C58422412   5.330   5.012   4.353  0.0083 -0.4809  0.2702
   35MOL   O58522413   5.400   5.079   4.278 -0.0909 -0.0472  0.0612
   35MOL   N58622414   5.217   4.957   4.306 -0.3071  0.1565 -0.3345
   35MOL   C58722415   5.168   4.986   4.171 -0.1993  0.0356 -0.8085
   35MOL   C58822416   5.023   4.959   4.140 -0.8319  0.2418  0.7809
   35MOL   C58922417   4.933   5.066   4.209  0.3676  0.6896 -0.8806
   35MOL   C59022418   4.787   5.086   4.155  0.1512  0.0101  0.2552
   35MOL   N59122419   4.791   5.119   4.014 -0.4728 -0.1130 -0.0944
   35MOL   H59222420   5.699   4.947   4.718  4.4486 -2.2730 -0.4423
   35MOL   H59322421   5.708   4.797   4.633 -1.8790 -0.3193 -1.7269
   35MOL   H59422422   5.453   4.767   4.654  2.6003 -2.6123  0.1540
   35MOL   H59522423   5.451   4.911   4.733 -0.2080 -1.2133  0.7995
   35MOL   H59622424   5.545   4.876   4.451  0.0741 -1.1248  1.5348
   35MOL   H59722425   5.581   5.014   4.513 -0.5612 -0.2816 -1.0421
   35MOL   H59822426   5.341   5.088   4.543 -1.0962  0.0898 -1.2066
   35MOL   H59922427   5.278   4.923   4.538 -0.9274 -0.4082 -0.3966
   35MOL   H60022428   5.160   4.893   4.360 -0.5089 -0.6299 -1.4762
   35MOL   H60122429   5.229   4.924   4.104 -0.5300 -0.0073 -1.0722
   35MOL   H60222430   5.189   5.090   4.145  0.3790 -0.2751 -1.6073
   35MOL   H60322431   5.006   4.950   4.033  0.0665 -2.8229  0.8490
   35MOL   H60422432   5.008   4.855   4.167  3.1696 -0.8702 -0.9108
   35MOL   H60522433   4.979   5.164   4.204  0.0395  0.8741 -0.3573
   35MOL   H60622434   4.918   5.050   4.316 -0.8033  2.9677 -0.6946
   35MOL   H60722435   4.750   5.177   4.203  1.9773  0.8970  0.0161
   35MOL   H60822436   4.717   5.004   4.168 -0.1333  0.1043 -0.6205
   35MOL   H60922437   4.796   5.216   3.985  0.1675  0.0921  0.7003
   35MOL   C61022438   4.752   5.037   3.910  1.1611 -0.3373 -0.1366
   35MOL   O61122439   4.708   4.923   3.930  0.8812  1.1485  0.4629
   35MOL   C61222440   4.761   5.100   3.766  0.0344 -0.0532 -0.0660
   35MOL   C61322441   4.634   5.118   3.685  0.8237 -0.0807 -0.1522
   35MOL   C61422442   4.571   5.256   3.713  0.0818 -0.5832 -1.0539
   35MOL   C61522443   4.428   5.293   3.659  0.0173 -0.0019  0.0685
   35MOL   C61622444   4.424   5.322   3.511  0.3781 -0.5062 -0.4781
   35MOL   O61722445   4.456   5.234   3.430 -0.3965 -0.0207 -0.7168
   35MOL   N61822446   4.402   5.446   3.468  0.1310 -0.2753  0.8847
   35MOL   C61922447   4.383   5.470   3.325 -0.5786 -0.6262 -0.0347
   35MOL   C62022448   4.320   5.610   3.297 -0.5302  0.2169  0.4508
   35MOL   C62122449   4.175   5.629   3.352 -0.1046 -0.4393 -0.7100
   35MOL   C62222450   4.133   5.775   3.322 -0.2317  0.1831  0.0410
   35MOL   N62322451   4.019   5.795   3.409  0.1494 -0.1740 -0.0427
   35MOL   H62422452   4.811   5.197   3.765 -2.6301  1.3710 -3.2289
   35MOL   H62522453   4.831   5.037   3.712 -0.3363 -0.2956 -0.2659
   35MOL   H62622454   4.662   5.116   3.580 -0.2374  0.9668 -0.4632
   35MOL   H62722455   4.571   5.032   3.709 -0.5435  0.5904 -1.3082
   35MOL   H62822456   4.631   5.338   3.673 -1.1195 -0.0151 -1.7355
   35MOL   H62922457   4.585   5.280   3.818 -0.3828 -2.1704 -0.6047
   35MOL   H63022458   4.403   5.383   3.716  0.2847 -1.4574  2.5722
   35MOL   H63122459   4.355   5.220   3.693  0.0684  0.1185  0.4399
   35MOL   H63222460   4.369   5.514   3.535 -2.2513 -0.6765  0.1877
   35MOL   H63322461   4.311   5.405   3.276  0.7551 -0.8145 -1.8081
   35MOL   H63422462   4.473   5.460   3.265 -1.9933  1.1510 -2.5366
   35MOL   H63522463   4.384   5.676   3.355 -0.6685 -2.0466  3.2883
   35MOL   H63622464   4.325   5.640   3.192 -0.8419  1.3218  0.7507
   35MOL   H63722465   4.167   5.594   3.455  0.3319  1.1819 -0.1137
   35MOL   H63822466   4.113   5.560   3.294 -0.4488 -0.9866  0.2994
   35MOL   H63922467   4.100   5.772   3.218  1.2296 -2.3521 -0.4159
   35MOL   H64022468   4.209   5.851   3.338  1.0801 -1.3916  1.4700
   35MOL   H64122469   3.977   5.885   3.392  2.2030  1.1598  1.5757
   35MOL   H64222470   4.055   5.807   3.503  2.4056  1.8868 -1.0932
   36MOL     C122471   7.157   2.429   3.092 -1.0792  0.6322 -0.0809
   36MOL     O222472   7.198   2.538   3.053 -0.5316  0.5588  0.6252
   36MOL     C322473   7.010   2.392   3.109 -0.8406  0.5314 -0.1605
   36MOL     C422474   6.935   2.516   3.155 -0.1806  0.1947 -0.6218
   36MOL     C522475   6.925   2.525   3.312 -1.0254  0.3628 -0.1180
   36MOL     C622476   6.823   2.423   3.372 -0.4852  0.2783 -0.1001
   36MOL     C722477   6.681   2.443   3.337  0.2205  0.3040  0.4344
   36MOL     O822478   6.625   2.378   3.253  0.2160 -0.1936  0.0642
   36MOL     N922479   6.618   2.536   3.409 -0.1686  0.0688  1.2106
   36MOL    C1022480   6.476   2.579   3.418 -0.4319  0.2757 -0.1339
   36MOL    C1122481   6.423   2.654   3.291 -0.0940 -0.1837  0.0819
   36MOL    C1222482   6.505   2.776   3.254  0.1276  0.2103 -0.5040
   36MOL    C1322483   6.461   2.833   3.124  0.1691 -0.3007  0.8606
   36MOL    N1422484   6.486   2.977   3.118  0.3852  0.8459  0.3650
   36MOL    H1522485   6.974   2.348   3.016 -2.0849  0.3228  0.4185
   36MOL    H1622486   7.015   2.315   3.185 -3.4269  0.4099 -0.0900
   36MOL    H1722487   6.956   2.616   3.117  0.2094  1.3220  2.3919
   36MOL    H1822488   6.841   2.491   3.107 -1.5811 -0.1098  2.1512
   36MOL    H1922489   6.888   2.624   3.339  0.1700  0.4244  1.3289
   36MOL    H2022490   7.016   2.518   3.371 -0.7551 -1.2289 -0.7079
   36MOL    H2122491   6.826   2.416   3.480  1.6327 -0.2765 -0.1665
   36MOL    H2222492   6.852   2.323   3.340 -0.3052 -0.2745  1.7600
   36MOL    H2322493   6.681   2.593   3.464 -1.1254 -0.1076  2.5252
   36MOL    H2422494   6.460   2.649   3.500 -1.1878  1.6264 -1.4091
   36MOL    H2522495   6.423   2.490   3.450  1.3755 -0.2457  1.5104
   36MOL    H2622496   6.423   2.577   3.214 -0.1650  0.0935 -0.1968
   36MOL    H2722497   6.319   2.683   3.303 -0.0983 -0.0725 -0.2422
   36MOL    H2822498   6.610   2.745   3.249 -0.4124 -1.5234 -1.4804
   36MOL    H2922499   6.485   2.835   3.344 -0.4759 -1.9969  0.8489
   36MOL    H3022500   6.356   2.810   3.102  0.4961 -1.3627  0.3616
   36MOL    H3122501   6.513   2.780   3.044  0.9256  0.3433  0.9171
   36MOL    H3222502   6.416   3.035   3.162 -0.3628 -0.6241  1.1327
   36MOL    H3322503   7.213   2.340   3.120  2.2171  2.1724 -1.5169
   36MOL    C3422504   6.590   3.025   3.056 -0.9981  0.6202 -0.2515
   36MOL    O3522505   6.677   2.948   3.000  0.3265 -0.1158  0.2416
   36MOL    C3622506   6.610   3.175   3.053  0.6520  0.2605  0.5220
   36MOL    C3722507   6.589   3.228   2.912 -0.0438  0.0663  0.6239
   36MOL    C3822508   6.448   3.221   2.854  0.3856 -0.4414 -0.1564
   36MOL    C3922509   6.442   3.285   2.717  0.6727  0.2983  0.7743
   36MOL    C4022510   6.311   3.366   2.699 -0.7153  0.1362 -0.1600
   36MOL    O4122511   6.206   3.306   2.704 -0.1404 -0.4664 -0.6973
   36MOL    N4222512   6.323   3.495   2.665  0.2389  0.1288  0.0528
   36MOL    C4322513   6.211   3.590   2.675 -0.5419  0.6671 -0.6747
   36MOL    C4422514   6.219   3.675   2.800 -0.0730 -0.0632  0.2229
   36MOL    C4522515   6.144   3.608   2.919 -0.0059 -0.2075  0.0907
   36MOL    C4622516   6.142   3.696   3.043  0.3043 -0.0043  0.2494
   36MOL    N4722517   6.274   3.718   3.105 -0.1083  0.6129  0.1654
   36MOL    H4822518   6.558   3.233   3.128  0.0755  0.6008 -0.1371
   36MOL    H4922519   6.717   3.186   3.071  0.2084  3.0045  1.6788
   36MOL    H5022520   6.624   3.331   2.923  0.0180  0.0667  0.4358
   36MOL    H5122521   6.656   3.181   2.840 -0.2512  1.3388 -0.4249
   36MOL    H5222522   6.395   3.282   2.926  0.0004 -2.1743  1.0752
   36MOL    H5322523   6.411   3.118   2.853 -0.2897 -0.2041  0.0629
   36MOL    H5422524   6.450   3.206   2.642 -1.3307  1.4007 -0.6741
   36MOL    H5522525   6.527   3.353   2.710  0.3954  0.7654  1.8717
   36MOL    H5622526   6.418   3.528   2.655 -0.0364  1.3540  1.3034
   36MOL    H5722527   6.125   3.523   2.673 -0.6080  0.6643  0.9938
   36MOL    H5822528   6.207   3.641   2.579  2.1314 -0.0181 -1.1997
   36MOL    H5922529   6.322   3.689   2.833  0.5408 -0.3834 -1.5073
   36MOL    H6022530   6.184   3.777   2.781  2.0551  0.4724 -0.9300
   36MOL    H6122531   6.186   3.509   2.936  1.1742 -0.0744 -1.9145
   36MOL    H6222532   6.040   3.595   2.891 -0.3166  1.7575  0.2489
   36MOL    H6322533   6.064   3.661   3.111  0.9884 -3.7324 -0.7832
   36MOL    H6422534   6.097   3.791   3.012 -0.6436 -0.2607  0.8065
   36MOL    H6522535   6.306   3.813   3.117 -1.9434  1.0147  2.3691
   36MOL    C6622536   6.347   3.622   3.157  0.4267 -1.0443 -0.9405
   36MOL    O6722537   6.313   3.506   3.167 -0.3529  0.2998  0.3517
   36MOL    C6822538   6.479   3.668   3.211 -0.7093  0.4475  0.1169
   36MOL    C6922539   6.599   3.592   3.151  0.4969 -0.1438 -0.0802
   36MOL    C7022540   6.647   3.616   3.008 -0.3534  0.4769 -0.5394
   36MOL    C7122541   6.779   3.540   2.975  0.0457 -0.4576  0.1429
   36MOL    C7222542   6.911   3.595   3.035  0.5664 -0.2301  0.8426
   36MOL    O7322543   6.932   3.593   3.159  0.0460 -0.1582 -0.7636
   36MOL    N7422544   7.004   3.632   2.948 -0.6555 -0.6120 -0.1688
   36MOL    C7522545   7.132   3.697   2.970 -0.0923  0.2196  0.5579
   36MOL    C7622546   7.195   3.769   2.848  0.0376  0.3390 -0.2365
   36MOL    C7722547   7.291   3.883   2.893  0.6218  0.0762  0.0274
   36MOL    C7822548   7.319   3.979   2.771  0.1463 -0.2633  0.1287
   36MOL    N7922549   7.414   4.080   2.807 -0.1486  0.2729 -0.5198
   36MOL    H8022550   6.478   3.777   3.213 -2.0391  0.4271  3.0008
   36MOL    H8122551   6.482   3.644   3.318 -0.6812  0.8880  0.2144
   36MOL    H8222552   6.685   3.617   3.213  0.0739  0.5964  0.2180
   36MOL    H8322553   6.586   3.485   3.163 -1.8012  0.1558  0.3767
   36MOL    H8422554   6.671   3.722   3.002  1.6517  0.3051  3.0285
   36MOL    H8522555   6.569   3.596   2.935  1.6164 -2.1160 -2.0071
   36MOL    H8622556   6.784   3.527   2.867  1.1962  0.5157  0.0694
   36MOL    H8722557   6.770   3.437   3.012  0.2235 -0.9679 -1.2017
   36MOL    H8822558   6.999   3.591   2.855  2.0591 -0.0372 -0.6337
   36MOL    H8922559   7.190   3.610   3.001  1.7000  1.3518  0.4525
   36MOL    H9022560   7.118   3.766   3.053 -1.2255  0.9901 -0.2561
   36MOL    H9122561   7.251   3.700   2.785  0.1222 -0.7524  0.9942
   36MOL    H9222562   7.114   3.807   2.786  1.2340 -0.0548 -2.0732
   36MOL    H9322563   7.379   3.833   2.934  1.3613  1.4700  0.1661
   36MOL    H9422564   7.249   3.939   2.977  1.3712 -0.5646  0.8359
   36MOL    H9522565   7.222   4.024   2.751 -0.9905 -2.3865  0.6823
   36MOL    H9622566   7.357   3.924   2.684  1.4110 -1.0525  1.1670
   36MOL    H9722567   7.450   4.082   2.901 -0.1505  0.5805 -0.5235
   36MOL    C9822568   7.424   4.198   2.739 -0.7328 -0.4982  0.2268
   36MOL    O9922569   7.387   4.221   2.621 -0.2347 -0.2272 -0.5898
   36MOL   C10022570   7.502   4.305   2.809 -0.3720  0.5501 -0.5272
   36MOL   C10122571   7.427   4.442   2.816  0.3555  0.3808 -0.2913
   36MOL   C10222572   7.500   4.567   2.878 -0.2217  0.7817 -0.2736
   36MOL   C10322573   7.401   4.686   2.892  0.0198  0.1772 -0.2760
   36MOL   C10422574   7.329   4.693   3.028  0.2677 -0.2988 -0.3729
   36MOL   O10522575   7.383   4.720   3.137  0.3739  0.2092  0.4523
   36MOL   N10622576   7.201   4.667   3.016  0.1667 -0.7126 -0.0452
   36MOL   C10722577   7.110   4.662   3.128 -0.4106 -0.0719 -0.7225
   36MOL   C10822578   6.994   4.576   3.085 -0.0705  0.7744  0.2650
   36MOL   C10922579   6.896   4.557   3.201  0.1427  0.0151  0.3325
   36MOL   C11022580   6.793   4.447   3.185  0.2451 -0.1049 -0.1576
   36MOL   N11122581   6.751   4.427   3.046  0.0435  0.5702 -0.0654
   36MOL   H11222582   7.530   4.287   2.913 -2.6505  0.8960  0.1737
   36MOL   H11322583   7.599   4.303   2.760 -0.8395  0.4136 -1.4530
   36MOL   H11422584   7.382   4.471   2.721 -0.6803 -3.1788 -0.9531
   36MOL   H11522585   7.347   4.427   2.888  0.8269  0.0826  0.1733
   36MOL   H11622586   7.586   4.598   2.819  1.0402  0.2905  1.2769
   36MOL   H11722587   7.542   4.537   2.974 -2.2128  0.8875  0.6606
   36MOL   H11822588   7.325   4.677   2.815  0.9918 -0.9082 -1.1408
   36MOL   H11922589   7.445   4.781   2.864 -0.4596  0.4311 -0.1789
   36MOL   H12022590   7.165   4.640   2.926  0.5325 -3.4026  0.5873
   36MOL   H12122591   7.084   4.768   3.140 -1.3214 -0.5197  1.6663
   36MOL   H12222592   7.147   4.619   3.221 -0.4030 -1.1449 -1.2154
   36MOL   H12322593   6.944   4.636   3.009 -1.2148  1.6675  1.6818
   36MOL   H12422594   7.032   4.483   3.043 -0.3591 -0.1341  1.9815
   36MOL   H12522595   6.833   4.646   3.200  0.2127  0.0620 -0.0021
   36MOL   H12622596   6.958   4.539   3.289 -2.9182 -2.5893  2.0608
   36MOL   H12722597   6.715   4.457   3.261  2.2045  0.4438  1.8117
   36MOL   H12822598   6.844   4.355   3.213 -1.3720 -0.8368  0.4489
   36MOL   H12922599   6.818   4.379   2.987 -1.0781  0.1301 -0.9999
   36MOL   C13022600   6.640   4.478   3.000  0.1103  0.5909 -0.4203
   36MOL   O13122601   6.553   4.524   3.072  0.1835  0.1499 -0.4126
   36MOL   C13222602   6.628   4.487   2.847  0.7000  0.6085  0.2046
   36MOL   C13322603   6.516   4.572   2.796  1.0034 -0.6671  0.7290
   36MOL   C13422604   6.506   4.570   2.645 -0.7908 -0.1732 -0.3395
   36MOL   C13522605   6.360   4.595   2.602  0.4730 -0.0012 -0.0628
   36MOL   C13622606   6.313   4.740   2.597  0.2702 -0.7143 -0.4476
   36MOL   O13722607   6.356   4.818   2.515  0.1340 -1.1474 -0.1140
   36MOL   N13822608   6.223   4.780   2.687  0.1539  0.2647  0.3394
   36MOL   C13922609   6.160   4.910   2.697  0.2715 -0.7766  0.1646
   36MOL   C14022610   6.247   5.021   2.761 -0.0270 -0.4374  0.9022
   36MOL   C14122611   6.342   4.987   2.887 -0.7260 -0.5233  0.3744
   36MOL   C14222612   6.423   5.111   2.919  0.0983 -0.1744  0.1323
   36MOL   N14322613   6.534   5.068   3.016  0.0430 -0.3396  0.0180
   36MOL   H14422614   6.719   4.542   2.823  1.4511 -0.9677 -0.6204
   36MOL   H14522615   6.636   4.389   2.801  0.7564 -0.0358  1.5611
   36MOL   H14622616   6.424   4.530   2.838  0.6383  0.3945  1.0223
   36MOL   H14722617   6.524   4.674   2.835  2.2636 -0.4237 -0.1353
   36MOL   H14822618   6.540   4.471   2.614  0.3560  0.1265 -0.0602
   36MOL   H14922619   6.584   4.640   2.615  1.1558 -1.5280  1.3946
   36MOL   H15022620   6.286   4.543   2.663 -1.8092  1.6399 -1.3765
   36MOL   H15122621   6.351   4.551   2.502  0.9832  0.3353 -0.2581
   36MOL   H15222622   6.205   4.700   2.746  0.6277 -1.4765 -1.7997
   36MOL   H15322623   6.067   4.909   2.754  0.6196 -0.3038  0.7454
   36MOL   H15422624   6.138   4.932   2.593  1.5293 -0.3673 -0.0310
   36MOL   H15522625   6.319   5.063   2.691 -0.4457  1.4366  1.5727
   36MOL   H15622626   6.188   5.111   2.776  0.3536  0.0807 -0.6276
   36MOL   H15722627   6.395   4.895   2.865 -0.7063 -0.0706 -1.5167
   36MOL   H15822628   6.277   4.962   2.971  1.8572 -0.0246  2.6136
   36MOL   H15922629   6.358   5.184   2.966 -1.5938 -0.7987 -1.2153
   36MOL   H16022630   6.462   5.146   2.823 -0.4082 -1.7391 -0.6554
   36MOL   H16122631   6.620   5.040   2.971 -1.2006 -4.1332 -0.1689
   36MOL   C16222632   6.519   5.090   3.148  0.0651  0.1434 -0.3188
   36MOL   O16322633   6.409   5.131   3.191  0.1946  0.5596 -0.4726
   36MOL   C16422634   6.631   5.054   3.239  0.3208 -0.3755  0.0438
   36MOL   C16522635   6.602   4.920   3.315  0.1228  0.2041 -0.1061
   36MOL   C16622636   6.496   4.923   3.421  0.3308 -0.1485 -0.1273
   36MOL   C16722637   6.507   4.810   3.520 -0.3632  0.2440 -0.1058
   36MOL   C16822638   6.398   4.825   3.633 -0.3747  0.2474 -0.8234
   36MOL   O16922639   6.408   4.904   3.727  0.4361  0.2335  0.9542
   36MOL   N17022640   6.289   4.746   3.625 -0.3519  0.3376 -0.8183
   36MOL   C17122641   6.175   4.752   3.703 -0.7062 -0.7942 -0.1256
   36MOL   C17222642   6.060   4.811   3.620  0.5974  0.3866 -0.5041
   36MOL   C17322643   5.919   4.817   3.684 -0.2571 -0.1461  0.2391
   36MOL   C17422644   5.808   4.839   3.576  0.2024  0.1000  0.1023
   36MOL   N17522645   5.674   4.828   3.627 -0.7082  0.1353 -0.2782
   36MOL   H17622646   6.722   5.042   3.180 -0.4941 -1.2396 -1.0612
   36MOL   H17722647   6.670   5.124   3.313  2.1540 -3.2509  1.8918
   36MOL   H17822648   6.556   4.848   3.247 -0.6592  1.5295 -0.9983
   36MOL   H17922649   6.694   4.876   3.352 -0.7321  0.8077  2.8377
   36MOL   H18022650   6.396   4.921   3.379  0.2782  2.2147 -0.1720
   36MOL   H18122651   6.492   5.018   3.474 -1.3060 -0.8244  0.9999
   36MOL   H18222652   6.609   4.813   3.559  0.6217 -5.2902 -1.9040
   36MOL   H18322653   6.501   4.716   3.466 -0.2114  0.8032 -1.1197
   36MOL   H18422654   6.285   4.694   3.539 -0.0812  0.7917 -1.1122
   36MOL   H18522655   6.184   4.806   3.797  0.1784 -2.6046  0.8608
   36MOL   H18622656   6.158   4.649   3.737 -0.8427 -1.0809 -1.0464
   36MOL   H18722657   6.092   4.911   3.591  1.5670 -0.6186 -3.1061
   36MOL   H18822658   6.048   4.765   3.522 -2.6021  0.1311 -0.0389
   36MOL   H18922659   5.917   4.892   3.763 -1.2802  1.7203 -1.5035
   36MOL   H19022660   5.908   4.723   3.737 -1.8293  0.0632  0.3092
   36MOL   H19122661   5.814   4.766   3.494 -0.2122  1.6064 -1.2843
   36MOL   H19222662   5.816   4.936   3.527 -1.6785  0.2408  0.0368
   36MOL   H19322663   5.631   4.915   3.654 -0.5274 -0.7169  3.0714
   36MOL   C19422664   5.605   4.719   3.656  0.4495  0.5478  0.0296
   36MOL   O19522665   5.648   4.604   3.637 -0.2799  0.5873  0.1608
   36MOL   C19622666   5.460   4.746   3.703  0.1124 -0.3661  0.2895
   36MOL   C19722667   5.420   4.668   3.840 -0.5347 -0.3369  0.9500
   36MOL   C19822668   5.295   4.710   3.907 -0.8007  0.0303  0.1395
   36MOL   C19922669   5.243   4.620   4.018  0.5898  0.5920  0.1599
   36MOL   C20022670   5.318   4.627   4.150 -0.1308 -0.0006 -0.2560
   36MOL   O20122671   5.421   4.691   4.172 -0.2303  0.0720  0.2012
   36MOL   N20222672   5.247   4.565   4.248 -0.2839  0.0477 -0.2311
   36MOL   C20322673   5.285   4.574   4.390  0.6032  0.2749  0.3257
   36MOL   C20422674   5.416   4.494   4.420 -0.6049  0.1869 -0.2895
   36MOL   C20522675   5.408   4.339   4.417  0.8004  0.8786 -0.5099
   36MOL   C20622676   5.542   4.267   4.438 -0.5522 -0.0160 -0.2040
   36MOL   N20722677   5.627   4.307   4.558 -0.1799  0.2570  0.0669
   36MOL   H20822678   5.450   4.852   3.727  0.9004 -0.8448  2.8844
   36MOL   H20922679   5.392   4.711   3.625  1.2085  0.2883 -0.9610
   36MOL   H21022680   5.414   4.561   3.821 -0.0127  0.1391 -2.2110
   36MOL   H21122681   5.508   4.684   3.903  0.9598 -2.7532 -0.4489
   36MOL   H21222682   5.214   4.703   3.835 -4.5584  1.8982  4.0177
   36MOL   H21322683   5.295   4.815   3.936 -1.6838 -0.3928  1.7139
   36MOL   H21422684   5.228   4.516   3.990  1.5632 -0.2741  2.7164
   36MOL   H21522685   5.146   4.659   4.048  0.6353 -0.9181  2.3492
   36MOL   H21622686   5.174   4.498   4.231 -0.3026  0.0249 -0.0694
   36MOL   H21722687   5.208   4.526   4.450  1.5045  0.2044  1.4330
   36MOL   H21822688   5.298   4.680   4.413 -1.9682  1.0243 -1.4238
   36MOL   H21922689   5.496   4.520   4.349  0.2086  0.6425  0.7821
   36MOL   H22022690   5.455   4.535   4.513 -0.4874  2.2755 -1.2262
   36MOL   H22122691   5.363   4.300   4.325 -1.5586  1.0303  0.5378
   36MOL   H22222692   5.347   4.304   4.500  0.6911  0.8803 -0.5881
   36MOL   H22322693   5.606   4.281   4.351 -0.3949  2.7665  0.3021
   36MOL   H22422694   5.518   4.161   4.435  0.2929 -0.2420  0.5691
   36MOL   H22522695   5.710   4.360   4.533  0.2201  0.0811  1.0068
   36MOL   C22622696   5.599   4.288   4.687 -0.2709 -0.0307  0.4655
   36MOL   O22722697   5.490   4.247   4.720 -0.5272 -0.7096  0.2787
   36MOL   C22822698   5.708   4.327   4.781  0.0700  0.3873  0.1783
   36MOL   C22922699   5.692   4.280   4.929 -0.6464 -0.4076  0.3106
   36MOL   C23022700   5.828   4.255   4.999  0.4589  0.4362  0.2133
   36MOL   C23122701   5.893   4.119   4.968  0.4121 -0.6968 -0.8233
   36MOL   C23222702   6.003   4.086   5.067  0.0455 -0.0517  0.0630
   36MOL   O23322703   5.978   4.060   5.185 -0.3073  0.0080  0.6331
   36MOL   N23422704   6.124   4.082   5.011 -0.1288 -0.1276 -0.1297
   36MOL   C23522705   6.240   4.063   5.092 -0.0015 -0.5578  0.7676
   36MOL   C23622706   6.356   4.137   5.017 -0.3514  0.5632  0.6474
   36MOL   C23722707   6.338   4.291   5.009 -0.3632 -0.4446  0.6661
   36MOL   C23822708   6.480   4.361   4.988  0.0990  0.1049 -0.7215
   36MOL   N23922709   6.478   4.509   4.993 -0.3938 -0.3324  0.4995
   36MOL   H24022710   5.801   4.278   4.754 -1.6199 -1.7122 -2.0451
   36MOL   H24122711   5.717   4.435   4.789 -1.1136  0.5796 -0.9466
   36MOL   H24222712   5.652   4.366   4.982  2.5816  1.2872  0.1114
   36MOL   H24322713   5.624   4.196   4.941  2.3786 -3.3162 -1.9936
   36MOL   H24422714   5.799   4.261   5.103  0.8149 -0.6122  0.3765
   36MOL   H24522715   5.903   4.330   4.973 -0.6240  1.0073 -1.3140
   36MOL   H24622716   5.925   4.101   4.865 -1.3638 -2.9886 -1.0281
   36MOL   H24722717   5.821   4.038   4.982  0.2248 -1.0305 -3.3251
   36MOL   H24822718   6.133   4.080   4.910  0.5557 -2.4164 -0.0492
   36MOL   H24922719   6.256   3.956   5.090 -0.0379 -0.5438 -0.3793
   36MOL   H25022720   6.224   4.094   5.195 -0.5308 -1.0861  0.8422
   36MOL   H25122721   6.446   4.112   5.073  0.7789 -0.4599 -1.6105
   36MOL   H25222722   6.376   4.089   4.922 -0.3949 -2.1840  1.9738
   36MOL   H25322723   6.294   4.319   5.104 -2.3351  0.4722 -0.4940
   36MOL   H25422724   6.268   4.310   4.927  0.8010 -0.1113 -0.2749
   36MOL   H25522725   6.517   4.343   4.887  0.8537 -2.6386  0.0279
   36MOL   H25622726   6.562   4.328   5.050 -0.0593  2.0098  0.5619
   36MOL   H25722727   6.527   4.556   4.919  1.1681 -1.5308  0.7379
   36MOL   C25822728   6.474   4.597   5.096  0.0570 -0.2369 -0.0393
   36MOL   O25922729   6.495   4.712   5.085 -0.4023 -0.1656 -0.3292
   36MOL   C26022730   6.461   4.524   5.234 -0.3229 -0.0140 -0.6655
   36MOL   C26122731   6.388   4.597   5.338 -0.7461  0.8504 -0.4996
   36MOL   C26222732   6.236   4.568   5.343  0.1967 -0.1762 -0.0429
   36MOL   C26322733   6.199   4.437   5.415  0.2015  0.1712 -0.4017
   36MOL   C26422734   6.049   4.414   5.418 -0.6736  0.6268 -0.3292
   36MOL   O26522735   5.971   4.512   5.408 -0.1087 -0.7975 -0.7889
   36MOL   N26622736   5.999   4.288   5.437 -0.4611  0.5557  0.2512
   36MOL   C26722737   5.859   4.256   5.447 -0.1912  0.1391 -0.4783
   36MOL   C26822738   5.832   4.109   5.491 -0.1048 -0.5721 -0.1176
   36MOL   C26922739   5.699   4.052   5.443  0.5436 -0.5532 -0.5353
   36MOL   C27022740   5.662   3.930   5.518 -0.3011 -0.6180  0.2460
   36MOL   N27122741   5.533   3.881   5.480  0.1141  0.1315 -0.3255
   36MOL   H27222742   6.428   4.420   5.230  0.8301 -0.4453  0.4101
   36MOL   H27322743   6.567   4.503   5.253 -0.8502 -2.2314 -0.0906
   36MOL   H27422744   6.425   4.585   5.440 -1.7861  1.7357 -0.0083
   36MOL   H27522745   6.397   4.706   5.338 -0.0607  0.8153  1.1168
   36MOL   H27622746   6.195   4.559   5.242 -0.4647 -2.4797  0.3953
   36MOL   H27722747   6.177   4.652   5.377  1.8011 -0.7012  4.3389
   36MOL   H27822748   6.231   4.439   5.519 -0.8915  1.1407 -0.0751
   36MOL   H27922749   6.247   4.352   5.366  0.9320 -0.0855  0.7450
   36MOL   H28022750   6.056   4.208   5.460 -0.8206  0.6597  1.5527
   36MOL   H28122751   5.817   4.265   5.347 -2.3065  0.2154  0.3768
   36MOL   H28222752   5.803   4.330   5.505 -0.3039  0.1587 -0.6117
   36MOL   H28322753   5.909   4.047   5.445 -1.3663 -1.4765 -1.0562
   36MOL   H28422754   5.838   4.101   5.600  0.6080  0.8954 -0.0439
   36MOL   H28522755   5.707   4.049   5.334 -2.0606 -0.7165 -0.7413
   36MOL   H28622756   5.618   4.124   5.453  0.7779 -0.5639  1.6493
   36MOL   H28722757   5.670   3.947   5.625  0.1744  1.3383 -0.0862
   36MOL   H28822758   5.733   3.849   5.504 -0.5341 -1.1412  2.0599
   36MOL   H28922759   5.469   3.952   5.447  0.0157  0.0722 -0.2612
   36MOL   C29022760   5.490   3.753   5.505 -0.2211  0.3586 -0.3740
   36MOL   O29122761   5.557   3.670   5.571 -0.2602 -0.7448 -0.5153
   36MOL   C29222762   5.348   3.728   5.470  0.5186  0.3412  0.0641
   36MOL   C29322763   5.334   3.597   5.398 -0.3769  0.3474 -0.4297
   36MOL   C29422764   5.338   3.609   5.249  0.0688 -0.0673 -0.6541
   36MOL   C29522765   5.298   3.469   5.187  0.1619 -0.2535  0.2473
   36MOL   C29622766   5.249   3.468   5.038  0.8157  0.0900 -0.1891
   36MOL   O29722767   5.191   3.561   4.985  0.1219 -0.3317 -0.9172
   36MOL   N29822768   5.264   3.348   4.978  0.2427  0.3998  0.9513
   36MOL   C29922769   5.241   3.319   4.842 -0.7831 -0.1475  0.0515
   36MOL   C30022770   5.134   3.216   4.828 -0.2216  0.1419  0.4244
   36MOL   C30122771   5.110   3.186   4.678  0.1741 -0.1963  0.6711
   36MOL   C30222772   5.211   3.092   4.617  0.5663  0.4225  0.3261
   36MOL   N30322773   5.239   3.105   4.476 -0.0249  0.2076  0.1378
   36MOL   H30422774   5.301   3.711   5.567  0.7082 -1.5122 -0.1637
   36MOL   H30522775   5.291   3.809   5.424 -1.3366 -0.9649 -0.0079
   36MOL   H30622776   5.405   3.520   5.428 -0.8877 -0.7447 -1.9884
   36MOL   H30722777   5.235   3.561   5.427  0.0612 -2.1009 -1.8630
   36MOL   H30822778   5.429   3.657   5.214  0.0838  0.5441  0.1954
   36MOL   H30922779   5.256   3.676   5.223  1.5324  1.9904 -0.1082
   36MOL   H31022780   5.232   3.419   5.257  0.8939 -2.5567 -0.6755
   36MOL   H31122781   5.391   3.413   5.193  0.0527 -0.1990  3.0043
   36MOL   H31222782   5.302   3.269   5.027  2.7923  1.2815  0.4801
   36MOL   H31322783   5.332   3.270   4.806 -0.5218 -0.9298  1.7347
   36MOL   H31422784   5.214   3.410   4.788 -0.2215  0.9890  1.6760
   36MOL   H31522785   5.160   3.117   4.864 -2.3302 -1.5457 -2.4337
   36MOL   H31622786   5.042   3.262   4.863  0.2382 -0.3151  2.2434
   36MOL   H31722787   5.086   3.272   4.616  1.6615  0.5666  1.1340
   36MOL   H31822788   5.020   3.125   4.679  1.2958 -1.8996  3.2542
   36MOL   H31922789   5.183   2.987   4.624  2.0187 -0.1662 -2.0804
   36MOL   H32022790   5.307   3.108   4.667  0.2599  0.6886  0.8298
   36MOL   H32122791   5.215   3.037   4.404  0.0262 -1.4246  1.6303
   36MOL   C32222792   5.313   3.208   4.432  0.3418  0.5015  0.1243
   36MOL   O32322793   5.344   3.301   4.505  0.2632 -0.0688 -0.2137
   36MOL   C32422794   5.342   3.213   4.280 -0.0026  0.5853  0.8265
   36MOL   C32522795   5.363   3.354   4.225  0.1019  0.0150 -0.8531
   36MOL   C32622796   5.508   3.397   4.205 -0.3961 -0.7003  0.2227
   36MOL   C32722797   5.593   3.399   4.333  0.2333 -0.2560  0.3839
   36MOL   C32822798   5.676   3.272   4.349 -0.1137 -0.5583 -0.4403
   36MOL   O32922799   5.705   3.204   4.248 -0.1683  0.6525 -0.1152
   36MOL   N33022800   5.725   3.236   4.467 -0.6174  0.0835 -0.6852
   36MOL   C33122801   5.793   3.116   4.505 -0.1335 -0.0834 -0.1377
   36MOL   C33222802   5.889   3.131   4.623  0.0351  0.2498  0.1730
   36MOL   C33322803   5.987   3.244   4.606 -0.8606 -0.2312  0.1444
   36MOL   C33422804   6.081   3.249   4.730  0.4225  0.5820 -0.2027
   36MOL   N33522805   6.024   3.332   4.842  0.1440  0.5389 -0.3841
   36MOL   H33622806   5.435   3.159   4.264 -0.2250 -0.3325  2.5322
   36MOL   H33722807   5.256   3.168   4.231 -0.2884  2.5766 -0.5734
   36MOL   H33822808   5.314   3.359   4.128  0.0061 -1.3182 -0.8885
   36MOL   H33922809   5.301   3.426   4.279 -0.1699 -0.6308 -0.2867
   36MOL   H34022810   5.502   3.490   4.148 -0.5822 -0.9544 -0.1795
   36MOL   H34122811   5.557   3.341   4.125 -0.2691  0.4389 -0.5013
   36MOL   H34222812   5.534   3.412   4.424  0.8801 -0.3824  0.8209
   36MOL   H34322813   5.657   3.487   4.333 -0.2137  0.0722 -0.0075
   36MOL   H34422814   5.694   3.286   4.549  2.3206 -0.8937  1.0963
   36MOL   H34522815   5.841   3.073   4.417  1.4202  0.6829  0.3089
   36MOL   H34622816   5.723   3.036   4.529 -0.5508  0.7421  1.4112
   36MOL   H34722817   5.838   3.149   4.717 -0.5904 -0.7574  0.0349
   36MOL   H34822818   5.939   3.035   4.633 -1.8072 -0.7161  0.3260
   36MOL   H34922819   5.946   3.344   4.594  3.0221  1.3488 -0.7261
   36MOL   H35022820   6.036   3.226   4.511 -1.5583 -1.3005 -0.0157
   36MOL   H35122821   6.183   3.278   4.703  0.6751  1.1551  1.3331
   36MOL   H35222822   6.105   3.153   4.776 -0.8590 -0.9014 -2.5559
   36MOL   H35322823   5.985   3.420   4.811 -1.5874  0.3918  1.2621
   36MOL   C35422824   6.010   3.306   4.972 -1.0833  0.3703 -0.2867
   36MOL   O35522825   6.062   3.202   5.017 -1.2086  0.3890  0.3591
   36MOL   C35622826   5.931   3.409   5.053 -0.4738 -0.3493 -0.1986
   36MOL   C35722827   5.812   3.355   5.127  0.1906  0.6371 -0.1003
   36MOL   C35822828   5.702   3.291   5.043  0.0600  0.2261  0.4420
   36MOL   C35922829   5.615   3.379   4.949  0.1330 -0.2147  0.4844
   36MOL   C36022830   5.674   3.416   4.816  0.0454  0.9384  0.6154
   36MOL   O36122831   5.665   3.348   4.718 -0.2848  0.1118  0.0584
   36MOL   N36222832   5.737   3.531   4.801 -0.0640 -0.4970 -0.0457
   36MOL   C36322833   5.777   3.586   4.673  0.1826 -0.6574 -0.0461
   36MOL   C36422834   5.760   3.741   4.669 -0.4155 -0.0972 -0.3452
   36MOL   C36522835   5.820   3.795   4.540 -0.1689  0.0865  0.1588
   36MOL   C36622836   5.797   3.945   4.512 -0.0551 -0.4956  0.0887
   36MOL   N36722837   5.888   3.996   4.406 -0.3368  0.5330 -0.0434
   36MOL   H36822838   5.995   3.451   5.130 -0.3948 -2.1399  0.7291
   36MOL   H36922839   5.898   3.491   4.989 -2.6121  1.0004  2.5505
   36MOL   H37022840   5.858   3.291   5.202 -0.2573 -0.9437 -1.1532
   36MOL   H37122841   5.758   3.434   5.180  0.8396  1.6979 -0.9831
   36MOL   H37222842   5.622   3.258   5.108 -2.3187 -0.4425 -2.6877
   36MOL   H37322843   5.731   3.198   4.994  0.0456  0.0200  0.8262
   36MOL   H37422844   5.598   3.475   4.998  2.8207 -0.0226  1.1070
   36MOL   H37522845   5.521   3.327   4.932  0.3473 -0.3971 -0.1563
   36MOL   H37622846   5.750   3.585   4.886 -0.3166 -2.3933  1.2362
   36MOL   H37722847   5.734   3.542   4.583  0.4291 -0.2684 -0.3560
   36MOL   H37822848   5.883   3.562   4.663  0.3111 -0.6931  1.2571
   36MOL   H37922849   5.653   3.764   4.670 -0.5890 -0.8468 -1.2169
   36MOL   H38022850   5.805   3.789   4.757  3.4920 -0.2609 -2.1549
   36MOL   H38122851   5.785   3.734   4.457 -0.8418 -0.6441  0.9655
   36MOL   H38222852   5.925   3.768   4.547 -0.6245 -1.8376 -0.2854
   36MOL   H38322853   5.810   3.998   4.606  0.3861  3.0540 -1.8943
   36MOL   H38422854   5.694   3.966   4.484 -0.2856 -1.6887  0.0159
   36MOL   H38522855   5.891   3.929   4.331 -0.4568  1.5127 -0.9258
   36MOL   C38622856   5.928   4.122   4.387  0.3409 -0.1520 -0.1923
   36MOL   O38722857   5.910   4.216   4.469  0.0741  0.4039 -0.3080
   36MOL   C38822858   5.989   4.146   4.249  0.2365 -0.0621 -0.7438
   36MOL   C38922859   6.134   4.094   4.242  0.1190  0.2713  0.5689
   36MOL   C39022860   6.198   4.091   4.102 -0.1180  0.2267  0.1229
   36MOL   C39122861   6.148   3.981   4.003 -0.0942  0.4832 -0.3540
   36MOL   C39222862   6.223   3.997   3.872 -0.4889  0.5449  0.3544
   36MOL   O39322863   6.324   4.072   3.864 -0.2852  0.1527  0.3352
   36MOL   N39422864   6.190   3.915   3.775  0.2419  0.8969  0.1226
   36MOL   C39522865   6.244   3.903   3.642 -0.2452  0.2386 -0.2463
   36MOL   C39622866   6.142   3.956   3.544 -0.4734 -0.3368  0.5209
   36MOL   C39722867   6.203   3.950   3.408 -0.1304  0.0602  0.0529
   36MOL   C39822868   6.098   3.966   3.296  0.3002  0.6235  0.0984
   36MOL   N39922869   5.999   4.069   3.315  0.1346  0.2805  0.2503
   36MOL   H40022870   5.932   4.085   4.180 -0.0307 -1.7398  0.9250
   36MOL   H40122871   5.972   4.250   4.221 -0.0916 -0.1003 -0.6909
   36MOL   H40222872   6.191   4.154   4.312 -1.1032  1.1480  0.8328
   36MOL   H40322873   6.138   3.993   4.283 -0.3862  0.4629  1.0864
   36MOL   H40422874   6.305   4.067   4.104  0.2043  1.7483  2.1209
   36MOL   H40522875   6.211   4.184   4.046 -1.6669  0.0703 -0.5313
   36MOL   H40622876   6.043   3.995   3.977 -0.3809 -2.0041 -0.6274
   36MOL   H40722877   6.153   3.880   4.043 -2.4278 -0.4876 -2.4058
   36MOL   H40822878   6.116   3.853   3.805 -0.4265  1.5560 -0.1324
   36MOL   H40922879   6.255   3.795   3.631 -0.4704 -0.0089  1.6475
   36MOL   H41022880   6.338   3.959   3.645  1.3308 -2.2901 -1.1143
   36MOL   H41122881   6.054   3.893   3.555 -1.7313  1.4202  0.7373
   36MOL   H41222882   6.129   4.062   3.568  0.0507 -0.4675  1.4178
   36MOL   H41322883   6.263   3.860   3.396 -1.6801 -1.0574  0.4443
   36MOL   H41422884   6.270   4.033   3.389  0.0132  0.0398  0.4738
   36MOL   H41522885   6.044   3.876   3.264 -1.4256  1.5789  0.2616
   36MOL   H41622886   6.142   4.000   3.203  2.7382  1.0009  1.3553
   36MOL   H41722887   5.998   4.108   3.408  1.6015 -0.3384  0.5540
   36MOL   C41822888   5.896   4.082   3.234 -0.2918 -0.4946 -0.0094
   36MOL   O41922889   5.895   4.032   3.123 -0.2544  0.1121 -0.6343
   36MOL   C42022890   5.782   4.172   3.286 -0.1128 -0.5650 -0.2095
   36MOL   C42122891   5.772   4.315   3.228 -0.2811 -0.0609 -0.8815
   36MOL   C42222892   5.891   4.407   3.263  0.6335 -0.0169 -0.9391
   36MOL   C42322893   5.889   4.468   3.408 -0.3954  0.3024 -0.1662
   36MOL   C42422894   5.945   4.377   3.524  0.1384  0.6790 -0.4142
   36MOL   O42522895   6.012   4.275   3.498  0.0723  0.2568 -0.3556
   36MOL   N42622896   5.923   4.419   3.650 -0.0572 -0.2543 -0.3142
   36MOL   C42722897   5.948   4.353   3.775  0.2515  0.0114  0.5273
   36MOL   C42822898   6.088   4.372   3.823 -0.1803 -0.1282 -0.3451
   36MOL   C42922899   6.080   4.469   3.940 -0.2024 -0.0620 -0.0294
   36MOL   C43022900   6.216   4.506   3.994 -0.0400  0.2096  0.8289
   36MOL   N43122901   6.204   4.549   4.133  0.2567 -0.1056  0.0798
   36MOL   H43222902   5.691   4.119   3.256  1.0220 -2.5752 -0.2191
   36MOL   H43322903   5.790   4.175   3.394 -2.0761  2.8110 -0.0897
   36MOL   H43422904   5.743   4.328   3.124  2.2203  3.5219 -1.2014
   36MOL   H43522905   5.687   4.364   3.276  0.9600  2.3763 -1.1253
   36MOL   H43622906   5.896   4.489   3.191 -0.5733  0.1430 -0.8434
   36MOL   H43722907   5.985   4.352   3.254  0.3874 -0.5655 -0.2207
   36MOL   H43822908   5.789   4.498   3.439  0.4611  1.4287  1.5458
   36MOL   H43922909   5.941   4.564   3.407  0.3284 -0.0858  0.0206
   36MOL   H44022910   5.867   4.502   3.656  0.6067  0.1199  0.8448
   36MOL   H44122911   5.922   4.247   3.763  0.3401 -0.2527  2.4569
   36MOL   H44222912   5.875   4.384   3.849 -0.6046  1.3231 -0.8507
   36MOL   H44322913   6.136   4.279   3.853 -1.2550 -1.2939 -2.1290
   36MOL   H44422914   6.145   4.426   3.747 -0.4721  1.4285  0.5099
   36MOL   H44522915   6.022   4.412   4.012 -1.0153  2.7079  1.6130
   36MOL   H44622916   6.027   4.560   3.912  0.9162  0.5028 -0.3383
   36MOL   H44722917   6.253   4.589   3.934 -1.0502 -0.1003 -0.2409
   36MOL   H44822918   6.279   4.421   3.969  1.1099  0.9778  1.1166
   36MOL   H44922919   6.167   4.642   4.145 -0.2061 -0.2659 -0.0881
   36MOL   C45022920   6.251   4.481   4.241 -0.1400 -0.0096  0.2341
   36MOL   O45122921   6.321   4.385   4.227  0.4260  0.2325  0.0479
   36MOL   C45222922   6.220   4.539   4.381  0.1165  0.3221  0.2005
   36MOL   C45322923   6.248   4.441   4.499 -0.2689  0.7439  0.9684
   36MOL   C45422924   6.229   4.492   4.643 -0.0236 -0.1143 -0.1360
   36MOL   C45522925   6.098   4.443   4.702 -0.2922 -0.3772  0.5633
   36MOL   C45622926   5.988   4.533   4.647 -0.2122 -1.0843 -0.1651
   36MOL   O45722927   5.983   4.656   4.681  0.7772  0.5064 -0.4581
   36MOL   N45822928   5.903   4.486   4.553 -0.1440 -0.0661 -0.4517
   36MOL   C45922929   5.812   4.566   4.475  0.2453 -0.0420 -0.1341
   36MOL   C46022930   5.806   4.510   4.330 -0.3408 -0.9936  0.7207
   36MOL   C46122931   5.746   4.613   4.233 -0.0253 -0.5562  0.5168
   36MOL   C46222932   5.749   4.569   4.085  0.6966 -0.5560  0.2119
   36MOL   N46322933   5.635   4.486   4.046  0.4059 -0.3695  0.2006
   36MOL   H46422934   6.274   4.633   4.393  3.1377 -1.2967 -0.2530
   36MOL   H46522935   6.114   4.567   4.386 -0.3183 -1.0883 -0.9155
   36MOL   H46622936   6.184   4.354   4.484 -1.2240  1.5346  0.3600
   36MOL   H46722937   6.348   4.402   4.482 -0.6881 -0.6237  1.5660
   36MOL   H46822938   6.252   4.599   4.644  0.2755 -0.0993 -2.9361
   36MOL   H46922939   6.310   4.449   4.701  0.1877 -0.4563 -0.6818
   36MOL   H47022940   6.095   4.458   4.810 -1.3512  1.5341  0.2910
   36MOL   H47122941   6.082   4.338   4.678  0.6929 -0.4299  0.1140
   36MOL   H47222942   5.918   4.388   4.533  2.0507  0.1720 -0.0957
   36MOL   H47322943   5.843   4.671   4.471  0.4015 -0.0877 -0.0924
   36MOL   H47422944   5.708   4.560   4.506  0.3639 -1.2021  0.0482
   36MOL   H47522945   5.909   4.489   4.302  1.0594  2.4743  2.8255
   36MOL   H47622946   5.756   4.414   4.337 -0.0181 -1.1250  1.2292
   36MOL   H47722947   5.794   4.711   4.240 -0.4899 -0.0959 -2.2322
   36MOL   H47822948   5.641   4.629   4.259 -0.3619  0.3404 -1.2955
   36MOL   H47922949   5.846   4.517   4.082 -0.4333 -2.6702 -1.0643
   36MOL   H48022950   5.752   4.651   4.013 -0.3787 -0.4244  0.3189
   36MOL   H48122951   5.543   4.527   4.041 -0.5202 -2.5155 -0.7020
   36MOL   C48222952   5.642   4.356   4.028  0.3264 -0.2764 -0.3397
   36MOL   O48322953   5.741   4.287   4.047  0.0702 -0.2081 -0.1564
   36MOL   C48422954   5.512   4.285   3.984  0.4132 -0.0574  0.4500
   36MOL   C48522955   5.530   4.211   3.852 -0.6701 -0.6327  0.1560
   36MOL   C48622956   5.566   4.302   3.734 -0.0788 -0.5282  0.3956
   36MOL   C48722957   5.636   4.228   3.617  0.7234 -0.7843 -0.5920
   36MOL   C48822958   5.546   4.150   3.536  0.8813 -0.2772  0.4479
   36MOL   O48922959   5.474   4.195   3.449  0.4099  0.3936  0.2511
   36MOL   N49022960   5.558   4.021   3.559  0.0419 -0.1042 -0.4279
   36MOL   C49122961   5.489   3.911   3.490 -0.0802 -0.3024  0.1240
   36MOL   C49222962   5.334   3.899   3.515 -0.0350 -0.2088  0.7879
   36MOL   C49322963   5.267   3.795   3.429  0.2258  0.1524  0.2807
   36MOL   C49422964   5.122   3.824   3.404  0.9188 -0.5794  0.3544
   36MOL   N49522965   5.100   3.951   3.336 -0.1161  0.2937  0.4183
   36MOL   H49622966   5.475   4.236   4.074  1.5110 -0.0202  0.9276
   36MOL   H49722967   5.433   4.354   3.953 -0.0061 -0.5728  0.3576
   36MOL   H49822968   5.616   4.144   3.854 -0.8572 -0.9134 -0.8409
   36MOL   H49922969   5.447   4.143   3.833 -2.9293  1.7502  1.1536
   36MOL   H50022970   5.635   4.381   3.762  1.3606 -0.3408 -3.4379
   36MOL   H50122971   5.470   4.348   3.711  0.6967  0.2325 -1.4484
   36MOL   H50222972   5.728   4.183   3.655 -0.4936 -1.8669  1.1729
   36MOL   H50322973   5.673   4.306   3.551 -0.9774 -0.6007 -1.3710
   36MOL   H50422974   5.634   3.999   3.622 -0.8397  0.3143  0.8063
   36MOL   H50522975   5.539   3.820   3.522 -0.1419 -0.1936  0.5340
   36MOL   H50622976   5.504   3.933   3.384 -2.0418  1.7241  0.2375
   36MOL   H50722977   5.308   3.892   3.621  0.4982 -0.6932  0.8873
   36MOL   H50822978   5.285   3.995   3.499 -0.7694 -0.9928 -2.0409
   36MOL   H50922979   5.268   3.702   3.486  0.3638  0.2293  0.4060
   36MOL   H51022980   5.323   3.793   3.336  0.4628  0.0219  0.4215
   36MOL   H51122981   5.071   3.824   3.501 -0.3466 -0.6106 -0.3042
   36MOL   H51222982   5.083   3.739   3.348  0.5164  0.9960 -1.8051
   36MOL   H51322983   5.082   4.038   3.385 -0.1586 -0.6325  2.0758
   36MOL   C51422984   5.142   3.985   3.217 -0.3137  0.5059  0.3418
   36MOL   O51522985   5.182   3.900   3.136 -0.0736  0.5732 -0.0155
   36MOL   C51622986   5.145   4.137   3.178 -0.0798 -0.2305 -0.2000
   36MOL   C51722987   5.232   4.166   3.048  0.6716 -0.0345  0.0715
   36MOL   C51822988   5.387   4.139   3.059  0.1046  0.3409  0.2856
   36MOL   C51922989   5.462   4.179   2.931  0.1198 -0.1136 -0.6972
   36MOL   C52022990   5.463   4.326   2.891 -0.0879  0.6292 -0.1110
   36MOL   O52122991   5.508   4.406   2.969 -0.5753 -0.3074  0.1359
   36MOL   N52222992   5.419   4.361   2.771  0.4529  0.1126  0.5326
   36MOL   C52322993   5.431   4.490   2.715 -0.0023 -0.9648  0.3865
   36MOL   C52422994   5.454   4.502   2.562 -0.1397 -0.7339 -0.1398
   36MOL   C52522995   5.568   4.408   2.509 -0.2975  0.1790 -0.4885
   36MOL   C52622996   5.584   4.407   2.359 -0.5146  0.0205  0.2789
   36MOL   N52722997   5.592   4.539   2.297 -0.2986 -0.3675  0.1827
   36MOL   H52822998   5.041   4.170   3.175 -0.4146 -1.3084 -0.7974
   36MOL   H52922999   5.187   4.189   3.264  0.0905  1.5962 -1.3549
   36MOL   H53023000   5.185   4.113   2.966 -0.3444 -1.2793  1.4314
   36MOL   H53123001   5.210   4.269   3.018 -0.3787 -0.2965 -0.0821
   36MOL   H53223002   5.398   4.032   3.075  3.3725  0.6088  0.1795
   36MOL   H53323003   5.412   4.195   3.149  1.5878  1.2472 -0.6669
   36MOL   H53423004   5.441   4.111   2.849  0.5872  0.7816 -1.5730
   36MOL   H53523005   5.568   4.158   2.945  0.1682  1.4059  1.6253
   36MOL   H53623006   5.387   4.286   2.711  1.1199  2.0851 -2.4236
   36MOL   H53723007   5.523   4.528   2.760  1.0887 -2.9908 -0.0534
   36MOL   H53823008   5.347   4.553   2.743  2.6280  3.2060 -0.7865
   36MOL   H53923009   5.362   4.468   2.515  0.4249  0.5436 -2.1949
   36MOL   H54023010   5.466   4.607   2.538  1.3774 -0.5004  1.5643
   36MOL   H54123011   5.554   4.306   2.545 -0.8920 -0.3446 -2.1624
   36MOL   H54223012   5.667   4.445   2.539  0.3975 -1.3281 -0.8787
   36MOL   H54323013   5.502   4.346   2.320  0.1328 -2.6765  2.9285
   36MOL   H54423014   5.676   4.354   2.335 -0.5787 -0.0509  0.1877
   36MOL   H54523015   5.633   4.612   2.354  0.0510 -0.6047  0.2358
   36MOL   C54623016   5.524   4.570   2.187  0.0906 -0.6169 -0.2499
   36MOL   O54723017   5.470   4.494   2.106 -0.3770 -0.1848 -0.2124
   36MOL   C54823018   5.525   4.718   2.147 -0.4195 -0.4586  0.3677
   36MOL   C54923019   5.388   4.788   2.169 -0.1620 -0.2314 -0.1195
   36MOL   C55023020   5.269   4.756   2.073  0.0973  0.0330 -0.6570
   36MOL   C55123021   5.145   4.836   2.114 -0.1315 -0.0850  0.4514
   36MOL   C55223022   5.069   4.796   2.240 -0.1307  0.2311 -0.5373
   36MOL   O55323023   5.094   4.855   2.341 -0.2384  0.6876 -0.3371
   36MOL   N55423024   4.977   4.702   2.234 -0.2578 -0.3106  0.6495
   36MOL   C55523025   4.876   4.659   2.333  0.1883 -0.0421  0.7790
   36MOL   C55623026   4.767   4.766   2.349  0.2390 -0.6102  0.3998
   36MOL   C55723027   4.701   4.813   2.221  0.2041  0.0100 -0.0278
   36MOL   C55823028   4.657   4.958   2.228  0.5518 -0.3672  0.2867
   36MOL   N55923029   4.769   5.049   2.250  0.3343  0.0484 -0.1827
   36MOL   H56023030   5.604   4.766   2.204  0.5139 -0.4366 -0.9310
   36MOL   H56123031   5.559   4.728   2.044 -1.5308 -4.2174 -0.4431
   36MOL   H56223032   5.360   4.766   2.272 -2.6459  0.1451 -0.6736
   36MOL   H56323033   5.416   4.893   2.167  3.5039 -1.1576 -1.2870
   36MOL   H56423034   5.260   4.647   2.073  2.4391 -0.2098  0.9480
   36MOL   H56523035   5.287   4.788   1.970  0.3348 -1.6065 -1.1493
   36MOL   H56623036   5.070   4.845   2.036 -0.0531  1.3366  0.5351
   36MOL   H56723037   5.187   4.936   2.125 -0.9409  0.2933  0.1287
   36MOL   H56823038   4.969   4.657   2.144 -3.2682  1.1205  0.1684
   36MOL   H56923039   4.931   4.645   2.426 -0.1199 -1.9226  0.7126
   36MOL   H57023040   4.835   4.561   2.307 -0.6140  0.6255 -0.5202
   36MOL   H57123041   4.688   4.721   2.410 -1.1255  0.7801 -0.3147
   36MOL   H57223042   4.803   4.837   2.424 -0.8654  1.7089 -1.2124
   36MOL   H57323043   4.616   4.749   2.201  0.4642 -0.6203  0.8711
   36MOL   H57423044   4.758   4.806   2.128 -0.0822 -0.1652 -0.1890
   36MOL   H57523045   4.577   4.976   2.300 -0.0873 -0.0301 -0.4996
   36MOL   H57623046   4.607   4.983   2.135 -0.3306  0.4830  0.9753
   36MOL   H57723047   4.859   5.005   2.238 -0.0252 -0.3404 -1.5318
   36MOL   C57823048   4.762   5.172   2.305 -0.5295  0.5945  0.7963
   36MOL   O57923049   4.660   5.239   2.324 -0.8869  0.3187 -0.1393
   36MOL   C58023050   4.905   5.233   2.339 -0.3977  0.0302  0.2018
   36MOL   C58123051   4.891   5.326   2.470 -0.1270 -1.0075  0.3261
   36MOL   C58223052   4.853   5.240   2.597 -0.2089 -0.3277  0.0468
   36MOL   C58323053   4.850   5.299   2.734  0.2752  0.3080  0.1611
   36MOL   C58423054   4.736   5.392   2.771 -0.2463  0.0120  0.0755
   36MOL   O58523055   4.628   5.386   2.705  0.2376  0.2482  0.1236
   36MOL   N58623056   4.760   5.477   2.873  0.3873  0.1134 -0.3748
   36MOL   C58723057   4.676   5.577   2.931 -0.1190 -0.0501 -0.4145
   36MOL   C58823058   4.748   5.682   3.018 -0.4637 -0.2771 -0.7467
   36MOL   C58923059   4.890   5.723   2.978  1.3210  0.2092 -0.1346
   36MOL   C59023060   4.896   5.811   2.858 -0.0361  0.8674 -1.0608
   36MOL   N59123061   4.875   5.737   2.732  0.1897 -0.7352 -0.3188
   36MOL   H59223062   4.980   5.155   2.353  0.0538  0.7146  1.6625
   36MOL   H59323063   4.930   5.283   2.246 -0.6565  0.6250  0.4474
   36MOL   H59423064   4.981   5.385   2.488 -0.0775 -0.5733 -1.2298
   36MOL   H59523065   4.810   5.395   2.448  0.5049 -0.8905 -1.7470
   36MOL   H59623066   4.930   5.163   2.600 -1.3389 -1.5431 -1.5352
   36MOL   H59723067   4.757   5.191   2.580 -1.1598  1.3276  0.4655
   36MOL   H59823068   4.941   5.352   2.760  0.4807  0.8899 -1.6667
   36MOL   H59923069   4.841   5.207   2.791  1.5537  0.1628  0.1334
   36MOL   H60023070   4.846   5.457   2.923  0.0751 -1.6884 -0.5209
   36MOL   H60123071   4.599   5.520   2.983  0.6537 -2.2884 -1.6295
   36MOL   H60223072   4.625   5.622   2.846  0.8684  2.0339  0.0624
   36MOL   H60323073   4.686   5.770   3.033 -1.2379 -0.8187 -0.7181
   36MOL   H60423074   4.754   5.637   3.118  2.4043  3.5212  0.9097
   36MOL   H60523075   4.961   5.641   2.970  1.1645 -0.2771  2.9002
   36MOL   H60623076   4.932   5.791   3.051  0.8732  0.1113  0.2176
   36MOL   H60723077   4.994   5.859   2.851  0.4240  0.0911 -0.1033
   36MOL   H60823078   4.818   5.888   2.854  0.9073  1.9361  0.5337
   36MOL   H60923079   4.862   5.637   2.739  1.9911 -0.9627 -0.0176
   36MOL   C61023080   4.875   5.798   2.614 -0.1196 -0.4681 -0.1347
   36MOL   O61123081   4.904   5.921   2.600 -0.3044 -0.0683 -0.2425
   36MOL   C61223082   4.815   5.720   2.496 -0.3567 -0.5058  0.2609
   36MOL   C61323083   4.677   5.772   2.456  0.1012  0.5812 -0.2730
   36MOL   C61423084   4.590   5.686   2.354 -0.0308  0.2043  0.0019
   36MOL   C61523085   4.448   5.720   2.320 -0.0463 -0.3084  0.4735
   36MOL   C61623086   4.425   5.823   2.215 -0.6399 -0.4161 -0.4026
   36MOL   O61723087   4.496   5.927   2.211 -0.2866 -0.1419 -0.8858
   36MOL   N61823088   4.315   5.822   2.136 -0.0598  0.2042  0.8131
   36MOL   C61923089   4.261   5.932   2.050 -0.1082  0.2184 -1.0246
   36MOL   C62023090   4.294   5.902   1.903 -0.2012  0.7644 -0.2742
   36MOL   C62123091   4.221   5.998   1.804 -0.0551  0.1456  0.0364
   36MOL   C62223092   4.221   5.968   1.654  0.8219  0.2078 -0.0210
   36MOL   N62323093   4.152   5.844   1.631 -0.1433 -0.5470 -0.6311
   36MOL   H62423094   4.887   5.709   2.415 -0.6606  1.6257 -0.3160
   36MOL   H62523095   4.810   5.614   2.524  0.4682 -0.8588 -0.8651
   36MOL   H62623096   4.618   5.788   2.546 -1.7842 -0.9918 -1.1668
   36MOL   H62723097   4.686   5.869   2.407 -0.0413 -0.1981 -1.8797
   36MOL   H62823098   4.585   5.591   2.408 -0.0761 -0.4984 -1.2201
   36MOL   H62923099   4.651   5.669   2.266  0.4507 -1.8398  0.7033
   36MOL   H63023100   4.385   5.750   2.403 -0.2253  1.0799 -0.1402
   36MOL   H63123101   4.404   5.634   2.270 -1.0156  0.8818 -0.7712
   36MOL   H63223102   4.254   5.744   2.158  0.3307 -0.9767 -2.1327
   36MOL   H63323103   4.291   6.036   2.060  1.0056 -0.0662 -1.2663
   36MOL   H63423104   4.153   5.923   2.061 -0.1808  0.4002 -1.5883
   36MOL   H63523105   4.401   5.919   1.890 -0.1793  3.1361  2.7039
   36MOL   H63623106   4.269   5.799   1.876 -0.8235  0.8013  0.1598
   36MOL   H63723107   4.262   6.099   1.817  1.1409 -0.4085  0.6727
   36MOL   H63823108   4.117   6.016   1.829  0.3321 -0.5066  2.1934
   36MOL   H63923109   4.319   5.965   1.606  0.1856 -0.0487 -1.3407
   36MOL   H64023110   4.169   6.044   1.597  0.4876  0.2167  0.2957
   36MOL   H64123111   4.084   5.837   1.705  2.1699 -1.4734  1.5171
   36MOL   H64223112   4.206   5.763   1.656 -2.5505 -2.2771 -0.9258
   37MOL     C123113   3.355   0.954   3.886 -0.2526 -0.3666 -0.4502
   37MOL     O223114   3.450   0.967   3.808  0.1828 -0.3272  0.2882
   37MOL     C323115   3.368   0.975   4.036  0.8345 -0.0214  0.9235
   37MOL     C423116   3.437   1.110   4.067  0.0645  0.2117 -0.3004
   37MOL     C523117   3.414   1.159   4.210 -0.4345  0.0734 -0.4389
   37MOL     C623118   3.345   1.292   4.222  0.4858  0.6522  0.1878
   37MOL     C723119   3.327   1.335   4.370 -0.3736 -0.4052 -0.3869
   37MOL     O823120   3.372   1.269   4.468 -0.4616 -0.5966  0.8591
   37MOL     N923121   3.256   1.450   4.389 -0.3815  0.2516  0.7462
   37MOL    C1023122   3.203   1.498   4.515  0.1632  0.5060 -0.1927
   37MOL    C1123123   3.299   1.598   4.579  0.7806  0.2404  0.0158
   37MOL    C1223124   3.251   1.662   4.704 -0.9157 -0.4395  0.4890
   37MOL    C1323125   3.127   1.747   4.679  0.3328 -0.2130 -0.3977
   37MOL    N1423126   3.093   1.802   4.808  0.0470 -0.4799 -0.0443
   37MOL    H1523127   3.265   0.980   4.072  0.0989 -1.0784 -0.9620
   37MOL    H1623128   3.399   0.877   4.074  2.6102 -1.1412 -3.2164
   37MOL    H1723129   3.543   1.085   4.062 -0.0211 -0.2564  0.2041
   37MOL    H1823130   3.420   1.189   3.994 -0.0395  1.2151  0.7913
   37MOL    H1923131   3.512   1.157   4.257  0.2148  1.6403 -1.6721
   37MOL    H2023132   3.347   1.087   4.257  0.4744 -0.2609  0.3656
   37MOL    H2123133   3.255   1.306   4.162  1.3389  0.8218 -1.0784
   37MOL    H2223134   3.415   1.364   4.180 -1.2076 -0.1864 -4.2983
   37MOL    H2323135   3.226   1.501   4.308  0.9746 -0.2788 -0.1058
   37MOL    H2423136   3.180   1.420   4.588  0.0916 -0.1967 -0.9600
   37MOL    H2523137   3.111   1.553   4.492 -1.5475 -1.4855  1.5989
   37MOL    H2623138   3.391   1.542   4.593  0.7844  0.1588 -0.3184
   37MOL    H2723139   3.327   1.678   4.510  1.8505  1.5159  1.8891
   37MOL    H2823140   3.325   1.725   4.754 -1.6728  0.4446  0.5290
   37MOL    H2923141   3.220   1.588   4.778 -1.1251 -0.3066  0.5357
   37MOL    H3023142   3.046   1.690   4.634  0.6520 -2.2183  1.5043
   37MOL    H3123143   3.150   1.830   4.612  0.7400 -0.7128 -0.8843
   37MOL    H3223144   3.059   1.740   4.880 -0.5620 -2.6181 -2.1312
   37MOL    H3323145   3.254   0.921   3.860  0.3646 -2.6250 -0.1198
   37MOL    C3423146   3.077   1.931   4.826  0.4379  0.1794  0.0734
   37MOL    O3523147   3.103   2.018   4.742  0.4470 -0.3437  0.0416
   37MOL    C3623148   3.001   1.977   4.957  0.3580  0.3848 -0.3452
   37MOL    C3723149   3.032   2.108   5.022 -0.1296 -0.1900 -0.1568
   37MOL    C3823150   3.179   2.128   5.066 -0.1100  0.2352  0.1550
   37MOL    C3923151   3.184   2.256   5.154  0.6107  0.1034 -0.0229
   37MOL    C4023152   3.121   2.232   5.295 -0.0574  0.3550  0.0864
   37MOL    O4123153   3.148   2.136   5.362  0.2112  0.1881  0.1874
   37MOL    N4223154   3.051   2.336   5.348 -0.2123  0.1861 -1.1967
   37MOL    C4323155   2.967   2.329   5.471  0.7446  0.6355  0.2147
   37MOL    C4423156   2.960   2.464   5.546 -0.3052  0.7883  0.0250
   37MOL    C4523157   3.083   2.501   5.628 -0.1398 -0.1119  0.1176
   37MOL    C4623158   3.063   2.638   5.690  0.0968  0.2320 -0.6455
   37MOL    N4723159   3.175   2.694   5.765  0.3880 -0.2614 -0.3854
   37MOL    H4823160   2.896   1.977   4.927  0.4358 -0.5050 -0.6156
   37MOL    H4923161   3.014   1.902   5.034  0.3129  1.1858  0.4501
   37MOL    H5023162   3.018   2.185   4.946 -0.3637  0.4820  0.5707
   37MOL    H5123163   2.963   2.123   5.104 -0.9254  0.4643 -0.9326
   37MOL    H5223164   3.229   2.147   4.971 -0.1076 -1.1764 -0.1408
   37MOL    H5323165   3.230   2.045   5.115 -0.0332 -1.1788 -2.2563
   37MOL    H5423166   3.136   2.342   5.107  0.9032  0.3523  0.1295
   37MOL    H5523167   3.288   2.288   5.167  0.2147  0.8144  1.5480
   37MOL    H5623168   3.045   2.425   5.300 -2.0782  1.0861  0.6193
   37MOL    H5723169   3.007   2.251   5.536  1.2798  0.8365  0.1268
   37MOL    H5823170   2.870   2.295   5.433  0.0459  1.0714  1.6079
   37MOL    H5923171   2.919   2.538   5.477  2.6562  0.5184 -2.1398
   37MOL    H6023172   2.886   2.448   5.624 -0.6843  1.1802 -0.2435
   37MOL    H6123173   3.165   2.514   5.557 -1.6099  2.6773 -1.1470
   37MOL    H6223174   3.101   2.420   5.698  0.1820 -1.4133 -1.4265
   37MOL    H6323175   2.978   2.643   5.757  1.4936  1.3994  1.0977
   37MOL    H6423176   3.050   2.713   5.612  1.2226  1.1436  0.0225
   37MOL    H6523177   3.264   2.645   5.772  1.2819  1.0715 -2.0787
   37MOL    C6623178   3.168   2.824   5.802 -0.0106 -0.0299  0.3932
   37MOL    O6723179   3.068   2.897   5.794 -0.2673 -0.1959  0.7952
   37MOL    C6823180   3.303   2.879   5.849  0.1725  0.1228 -0.0888
   37MOL    C6923181   3.372   2.977   5.751  0.3768 -0.6630 -0.2879
   37MOL    C7023182   3.461   2.896   5.655  0.5802  0.3450 -0.2547
   37MOL    C7123183   3.554   2.980   5.561 -0.0845  0.0317 -0.0125
   37MOL    C7223184   3.702   2.976   5.592  0.2930  0.1943  0.0141
   37MOL    O7323185   3.759   2.872   5.633 -0.1685 -0.2454 -0.3926
   37MOL    N7423186   3.760   3.094   5.576  0.1962 -0.3078 -0.3698
   37MOL    C7523187   3.896   3.131   5.610  0.7787  0.3988 -0.1123
   37MOL    C7623188   3.907   3.220   5.742  0.9320 -0.5424  0.3286
   37MOL    C7723189   4.044   3.220   5.809  0.3857 -0.2347 -0.1838
   37MOL    C7823190   4.070   3.319   5.924 -0.1424  0.8082  0.6168
   37MOL    N7923191   4.199   3.303   5.983  0.4518 -0.2022 -0.2544
   37MOL    H8023192   3.297   2.924   5.949 -0.0519  0.9815 -0.4846
   37MOL    H8123193   3.376   2.799   5.864  1.4732  1.7526  2.7215
   37MOL    H8223194   3.305   3.049   5.704  0.8678 -0.6311 -0.9590
   37MOL    H8323195   3.445   3.036   5.806 -0.4172 -0.1781  0.2435
   37MOL    H8423196   3.403   2.824   5.598 -1.7642 -0.0102  2.4561
   37MOL    H8523197   3.527   2.829   5.710  0.6506  0.5391 -0.0990
   37MOL    H8623198   3.508   3.074   5.531 -1.3850 -0.9821 -1.2589
   37MOL    H8723199   3.560   2.933   5.463 -0.9196 -0.4505  0.1610
   37MOL    H8823200   3.698   3.163   5.535 -0.1999  0.0759  0.8335
   37MOL    H8923201   3.938   3.178   5.522  2.4740  1.4593  1.2366
   37MOL    H9023202   3.945   3.036   5.633  0.1885  0.0932 -0.0929
   37MOL    H9123203   3.888   3.324   5.713 -0.5140 -0.6529  0.8541
   37MOL    H9223204   3.841   3.190   5.823  2.2927  0.8635  2.0101
   37MOL    H9323205   4.118   3.235   5.731  1.2136 -0.9874  0.4461
   37MOL    H9423206   4.068   3.120   5.845 -0.4006 -0.3436  0.0414
   37MOL    H9523207   3.992   3.320   6.000  1.9026  0.7637  2.7620
   37MOL    H9623208   4.066   3.418   5.878 -2.0715 -0.8360 -2.9793
   37MOL    H9723209   4.269   3.362   5.941  0.3907 -1.3695 -2.0413
   37MOL    C9823210   4.227   3.239   6.096  0.5027  0.0739 -0.6308
   37MOL    O9923211   4.152   3.148   6.129  0.4193  0.0841 -0.2463
   37MOL   C10023212   4.353   3.266   6.170  0.3491 -0.1622  0.1465
   37MOL   C10123213   4.315   3.338   6.308  0.3353  0.2437  0.1521
   37MOL   C10223214   4.438   3.390   6.375  0.4023 -0.4158  0.7726
   37MOL   C10323215   4.413   3.456   6.513  0.9245 -0.3432 -0.0536
   37MOL   C10423216   4.385   3.609   6.503 -0.8543 -0.2367 -0.4159
   37MOL   O10523217   4.309   3.652   6.418 -0.1777  0.2199 -0.1189
   37MOL   N10623218   4.446   3.686   6.595  0.5720 -0.2619  0.6061
   37MOL   C10723219   4.427   3.833   6.597  0.2872 -0.6442 -0.1626
   37MOL   C10823220   4.555   3.901   6.640 -0.1422 -0.1376  0.5662
   37MOL   C10923221   4.540   4.056   6.673 -0.4413 -0.4241  0.4044
   37MOL   C11023222   4.674   4.126   6.689  0.6751  0.0491 -0.1029
   37MOL   N11123223   4.741   4.074   6.807 -0.1583 -0.2471 -0.1705
   37MOL   H11223224   4.409   3.174   6.187 -2.4046 -2.0771 -0.9296
   37MOL   H11323225   4.413   3.336   6.111 -3.9908  0.4956 -3.7252
   37MOL   H11423226   4.237   3.413   6.300  2.0442  2.1928  1.1629
   37MOL   H11523227   4.278   3.258   6.372  1.2694  1.1264  1.8558
   37MOL   H11623228   4.480   3.471   6.316 -0.8769  2.3352  3.5061
   37MOL   H11723229   4.511   3.312   6.394  2.0061  1.5785  3.0321
   37MOL   H11823230   4.493   3.439   6.584  0.1201 -2.3905  0.3947
   37MOL   H11923231   4.325   3.407   6.556  1.5113 -1.2667  0.1076
   37MOL   H12023232   4.494   3.642   6.672 -1.2441 -1.3634  1.1428
   37MOL   H12123233   4.336   3.850   6.655  1.0017  0.1949  0.7201
   37MOL   H12223234   4.404   3.874   6.498  0.3439  0.7192  0.3789
   37MOL   H12323235   4.593   3.863   6.735  1.1585  3.8698  1.7801
   37MOL   H12423236   4.630   3.886   6.563  0.0950  0.0220  0.7631
   37MOL   H12523237   4.472   4.073   6.757 -0.9633 -2.5726  0.4712
   37MOL   H12623238   4.481   4.103   6.595 -0.5674 -1.3508 -0.0633
   37MOL   H12723239   4.656   4.234   6.689  0.8006  0.1610 -3.9882
   37MOL   H12823240   4.740   4.102   6.606  1.2782 -0.5848  0.5562
   37MOL   H12923241   4.703   4.100   6.897 -2.6118 -0.4732 -1.1009
   37MOL   C13023242   4.840   3.983   6.809  0.1013  0.3663 -0.1219
   37MOL   O13123243   4.889   3.941   6.706  0.3142 -0.7904 -0.0052
   37MOL   C13223244   4.901   3.939   6.943 -0.2673 -0.1217 -0.1415
   37MOL   C13323245   4.907   3.794   6.968  0.2671  0.2621 -0.9506
   37MOL   C13423246   4.782   3.719   7.008  0.2107 -0.0465 -0.3145
   37MOL   C13523247   4.796   3.566   6.989 -0.8376  0.2715  0.8095
   37MOL   C13623248   4.743   3.520   6.856  0.1420 -0.5588 -0.0887
   37MOL   O13723249   4.654   3.581   6.796  0.2041  0.6731 -0.0268
   37MOL   N13823250   4.807   3.408   6.805 -0.2308 -0.4619 -0.1206
   37MOL   C13923251   4.769   3.329   6.690  0.0571  0.2656 -0.4516
   37MOL   C14023252   4.869   3.218   6.646 -0.4233 -0.0290 -0.0597
   37MOL   C14123253   4.794   3.109   6.570  0.0652  0.4731 -0.8089
   37MOL   C14223254   4.869   2.981   6.523 -0.1950  0.6237  1.1607
   37MOL   N14323255   4.779   2.875   6.479  0.8887  0.1800 -0.4930
   37MOL   H14423256   5.000   3.984   6.936 -0.1739 -0.4081 -0.6670
   37MOL   H14523257   4.863   3.990   7.032 -0.9614 -1.5230  0.3725
   37MOL   H14623258   4.942   3.753   6.874 -1.3316 -0.4752 -1.2453
   37MOL   H14723259   4.990   3.764   7.032 -1.3102  0.4218  1.2200
   37MOL   H14823260   4.688   3.744   6.959  0.6367  0.5319 -0.8340
   37MOL   H14923261   4.770   3.741   7.114  5.2502 -1.8752  0.7740
   37MOL   H15023262   4.735   3.522   7.068  1.0589  2.0185  3.2909
   37MOL   H15123263   4.901   3.536   6.992 -1.3254 -1.3640  3.0937
   37MOL   H15223264   4.887   3.373   6.856  0.3334  0.4240 -0.3767
   37MOL   H15323265   4.738   3.405   6.618 -0.4581  1.1795  0.7097
   37MOL   H15423266   4.676   3.280   6.717 -0.3266  0.9019 -0.5884
   37MOL   H15523267   4.952   3.252   6.584  1.6481 -3.6521  0.6276
   37MOL   H15623268   4.917   3.181   6.736  0.0374  0.0710 -0.2614
   37MOL   H15723269   4.748   3.147   6.479  1.7375 -0.7351 -2.1734
   37MOL   H15823270   4.703   3.084   6.626  1.8108 -1.5570  1.2526
   37MOL   H15923271   4.940   2.958   6.603  0.4017  1.3412  0.8447
   37MOL   H16023272   4.934   2.991   6.436 -1.1015 -1.1749  0.2421
   37MOL   H16123273   4.775   2.802   6.548  0.5960  1.5846  1.0078
   37MOL   C16223274   4.704   2.882   6.371  0.0394  0.1075 -0.1446
   37MOL   O16323275   4.720   2.966   6.286 -0.2136  0.0161 -0.5587
   37MOL   C16423276   4.592   2.780   6.357 -0.1160  0.6081 -0.2079
   37MOL   C16523277   4.465   2.856   6.418 -0.1071  0.6479  0.1197
   37MOL   C16623278   4.433   2.813   6.563  0.0587 -0.3695 -0.6115
   37MOL   C16723279   4.325   2.907   6.624 -0.2715  1.1294 -0.1429
   37MOL   C16823280   4.379   3.042   6.672 -0.4822  0.3342  0.3512
   37MOL   O16923281   4.446   3.108   6.593  0.0667 -0.4416  0.3372
   37MOL   N17023282   4.357   3.078   6.803  0.1982 -0.5968 -0.4111
   37MOL   C17123283   4.413   3.198   6.863 -0.6723  0.5711  0.0128
   37MOL   C17223284   4.418   3.206   7.013 -0.0170  0.6432 -0.2853
   37MOL   C17323285   4.513   3.320   7.052  0.3119  0.2950  0.3785
   37MOL   C17423286   4.522   3.352   7.199  0.3399 -0.7619  0.0137
   37MOL   N17523287   4.585   3.251   7.277  1.1218  0.8590 -0.1527
   37MOL   H17623288   4.578   2.763   6.250 -1.3233 -0.6104  0.1437
   37MOL   H17723289   4.612   2.693   6.419  2.1792  0.1562 -1.5020
   37MOL   H17823290   4.484   2.963   6.428  2.7117  0.4241 -2.1599
   37MOL   H17923291   4.386   2.846   6.344  0.1258  0.3737 -0.0912
   37MOL   H18023292   4.520   2.818   6.629 -0.0822  2.2852 -0.5684
   37MOL   H18123293   4.401   2.710   6.554 -1.4788 -0.0415  0.8727
   37MOL   H18223294   4.274   2.861   6.708  1.5926 -1.0323 -0.1600
   37MOL   H18323295   4.244   2.931   6.555 -2.7554  1.9529  2.9561
   37MOL   H18423296   4.313   3.011   6.865  2.3099 -2.3668 -0.7555
   37MOL   H18523297   4.377   3.289   6.815  2.5284  1.9527  0.1117
   37MOL   H18623298   4.517   3.177   6.837 -0.0718  2.4076  0.8658
   37MOL   H18723299   4.320   3.210   7.060 -0.1173  1.2198 -0.5413
   37MOL   H18823300   4.451   3.115   7.063 -1.1342  1.1244  1.3675
   37MOL   H18923301   4.465   3.407   7.007  0.5685  1.2265  1.9056
   37MOL   H19023302   4.607   3.311   6.997 -0.0830 -2.5823  0.0598
   37MOL   H19123303   4.416   3.364   7.220 -0.2291 -1.5416 -2.2794
   37MOL   H19223304   4.553   3.456   7.214 -1.1240 -0.4680  1.2493
   37MOL   H19323305   4.551   3.158   7.262 -1.0931  1.5193  0.6262
   37MOL   C19423306   4.664   3.271   7.388 -0.7051 -0.1103  0.1290
   37MOL   O19523307   4.714   3.383   7.418  0.0507  0.4528  0.2033
   37MOL   C19623308   4.700   3.148   7.469 -0.6157 -0.2547  0.3074
   37MOL   C19723309   4.741   3.175   7.618  0.1447  0.2572  0.3097
   37MOL   C19823310   4.725   3.043   7.699 -0.8107 -0.2584 -0.1066
   37MOL   C19923311   4.724   3.072   0.148  1.0279 -0.7690 -0.5843
   37MOL   C20023312   4.651   2.971   0.229  0.0831 -0.8206 -0.3693
   37MOL   O20123313   4.534   2.937   0.209  0.9063  0.1658  0.0505
   37MOL   N20223314   4.713   2.940   0.343  0.3615  0.0958  0.6861
   37MOL   C20323315   4.662   2.836   0.437 -0.3555  0.1936  0.5243
   37MOL   C20423316   4.772   2.822   0.546  0.5130 -0.2512 -0.2212
   37MOL   C20523317   4.741   2.760   0.683  0.5340 -0.4344  0.8051
   37MOL   C20623318   4.855   2.691   0.766  0.4440 -0.6890  0.2243
   37MOL   N20723319   4.975   2.771   0.781 -0.0257  0.2091 -0.3686
   37MOL   H20823320   4.611   3.086   7.460 -0.3209 -0.4990 -0.9724
   37MOL   H20923321   4.781   3.095   7.420 -1.3325 -2.2144  1.2051
   37MOL   H21023322   4.843   3.212   7.631 -0.4329  1.9064  0.3666
   37MOL   H21123323   4.678   3.257   7.654 -0.7501 -0.3616  0.1411
   37MOL   H21223324   4.816   2.986   7.678 -0.5376 -0.5960  1.9038
   37MOL   H21323325   4.634   2.990   7.672  0.8790 -2.4592 -1.7230
   37MOL   H21423326   4.669   3.165   0.166  1.5734 -0.8067  1.3442
   37MOL   H21523327   4.822   3.097   0.189  0.3686 -1.4672  1.4393
   37MOL   H21623328   4.809   2.968   0.350  0.9125 -1.8614  1.2159
   37MOL   H21723329   4.645   2.742   0.385 -1.8378 -0.3205  1.8682
   37MOL   H21823330   4.561   2.865   0.468  0.1415  2.6926 -0.0925
   37MOL   H21923331   4.847   2.761   0.494  1.2144  0.0964  0.3677
   37MOL   H22023332   4.817   2.921   0.555  0.3747 -0.3165  1.2056
   37MOL   H22123333   4.664   2.686   0.659  0.2890 -0.1394  0.6898
   37MOL   H22223334   4.692   2.836   0.743 -0.3489  2.4151 -3.3232
   37MOL   H22323335   4.884   2.597   0.719  0.5292 -0.4466 -0.2078
   37MOL   H22423336   4.820   2.668   0.866  1.4186 -1.6603  0.3563
   37MOL   H22523337   4.973   2.830   0.862 -0.8928  0.4219 -0.5428
   37MOL   C22623338   5.079   2.773   0.692 -0.0638 -0.5720 -0.0885
   37MOL   O22723339   5.084   2.703   0.598  0.2350 -0.2896  0.2978
   37MOL   C22823340   5.195   2.871   0.725  0.1240 -0.4018 -0.2421
   37MOL   C22923341   5.202   2.983   0.620  0.2808  0.2416  0.1161
   37MOL   C23023342   5.098   3.094   0.631  0.2671 -0.6846 -0.0914
   37MOL   C23123343   5.111   3.210   0.533 -0.0146 -0.0470  0.8200
   37MOL   C23223344   5.094   3.155   0.386 -0.7618 -0.3109  0.7670
   37MOL   O23323345   4.998   3.088   0.350  0.1500 -0.1762  0.2188
   37MOL   N23423346   5.197   3.179   0.303 -0.5255 -0.1157 -0.4750
   37MOL   C23523347   5.224   3.130   0.170  0.1448 -0.1014 -0.0076
   37MOL   C23623348   5.379   3.139   0.131  0.4099  0.1904  0.0967
   37MOL   C23723349   5.406   3.086   7.689 -0.0989 -0.2404  0.2086
   37MOL   C23823350   5.549   3.116   7.649  0.0198  0.6484 -0.3982
   37MOL   N23923351   5.564   3.061   7.517 -0.1163  0.4238 -0.2447
   37MOL   H24023352   5.168   2.918   0.820 -0.7346  0.7117 -1.0136
   37MOL   H24123353   5.290   2.822   0.745  0.4331  0.9366  1.7447
   37MOL   H24223354   5.297   3.036   0.613 -1.2076  2.7229 -2.8808
   37MOL   H24323355   5.197   2.940   0.519 -3.0118  0.7444  0.0120
   37MOL   H24423356   5.084   3.139   0.729 -0.7190  0.7780 -0.8800
   37MOL   H24523357   5.001   3.046   0.615  1.3863 -2.9530 -0.2433
   37MOL   H24623358   5.208   3.259   0.545  0.0316  0.2959 -0.8445
   37MOL   H24723359   5.037   3.290   0.539  1.3522  1.6606 -3.2086
   37MOL   H24823360   5.265   3.246   0.335 -1.8888  0.2031  1.8836
   37MOL   H24923361   5.170   3.196   0.101  0.8006 -0.0691 -0.4976
   37MOL   H25023362   5.185   3.030   0.155 -0.7755  0.5310 -2.1424
   37MOL   H25123363   5.411   3.243   0.134 -0.5569  0.4986 -0.1799
   37MOL   H25223364   5.449   3.080   0.191 -1.2715 -1.7818  0.1765
   37MOL   H25323365   5.337   3.129   7.617 -1.0326 -0.7159  0.8050
   37MOL   H25423366   5.390   2.979   7.680  0.0700 -0.2150 -0.3937
   37MOL   H25523367   5.619   3.075   0.020 -1.5371  0.0629  0.8019
   37MOL   H25623368   5.563   3.224   7.643  1.9004  0.3921 -1.0932
   37MOL   H25723369   5.500   2.999   7.470  0.8888 -1.9382  1.4195
   37MOL   C25823370   5.675   3.080   7.447  0.2809 -1.4675 -0.2954
   37MOL   O25923371   5.768   3.154   7.478 -0.0739  0.9197 -0.0493
   37MOL   C26023372   5.695   3.001   7.311 -0.0799 -0.3930 -0.2542
   37MOL   C26123373   5.830   2.916   7.319 -0.2287  0.5071  0.1812
   37MOL   C26223374   5.863   2.846   7.190 -0.0471  0.7668  0.0927
   37MOL   C26323375   5.990   2.888   7.119  0.2460  0.0733  0.3453
   37MOL   C26423376   6.119   2.856   7.185 -0.5806  0.4760 -0.4554
   37MOL   O26523377   6.136   2.738   7.224 -0.2593 -0.5878  0.0096
   37MOL   N26623378   6.204   2.956   7.205 -0.0772 -0.1569  0.4319
   37MOL   C26723379   6.329   2.942   7.285 -0.8776 -0.2084 -0.0213
   37MOL   C26823380   6.445   2.968   7.190  0.7029 -0.0287 -0.0183
   37MOL   C26923381   6.580   2.978   7.267 -0.9514 -0.2316 -1.1580
   37MOL   C27023382   6.691   3.053   7.181 -0.2274  0.1485  0.0725
   37MOL   N27123383   6.660   3.195   7.168 -0.4472  0.5381 -0.2513
   37MOL   H27223384   5.616   2.926   7.311 -0.9704  0.5140 -1.8092
   37MOL   H27323385   5.679   3.062   7.222  2.8363  1.1185  0.1814
   37MOL   H27423386   5.915   2.977   7.348 -0.7479  2.1581 -1.5722
   37MOL   H27523387   5.824   2.839   7.396  0.2551  0.8036  0.5124
   37MOL   H27623388   5.778   2.858   7.123 -1.6250 -2.2515  1.4667
   37MOL   H27723389   5.865   2.739   7.213  2.4991  1.2040  2.1505
   37MOL   H27823390   5.971   2.995   7.108  0.5677  0.1046  0.1033
   37MOL   H27923391   5.992   2.843   7.020 -4.1559  0.0985  0.1549
   37MOL   H28023392   6.175   3.051   7.184  1.9350  0.5343  0.6697
   37MOL   H28123393   6.330   2.841   7.326 -0.1333 -0.4554 -0.6298
   37MOL   H28223394   6.316   3.003   7.374  1.2702  0.1898  0.0425
   37MOL   H28323395   6.465   2.898   7.109  0.2966  0.4862 -0.5675
   37MOL   H28423396   6.419   3.063   7.142  0.3090  0.8220  1.8494
   37MOL   H28523397   6.623   2.883   7.296  0.6101  1.1915  1.3337
   37MOL   H28623398   6.561   3.043   7.352 -2.0782 -1.6131 -0.3489
   37MOL   H28723399   6.705   3.004   7.085  0.8798  1.0244 -0.2291
   37MOL   H28823400   6.789   3.047   7.230 -0.0159  1.7236 -0.1298
   37MOL   H28923401   6.621   3.224   7.080 -1.9374  0.6884  0.4384
   37MOL   C29023402   6.672   3.287   7.263  0.4145  0.0358 -0.2247
   37MOL   O29123403   6.721   3.254   7.375 -0.2047  0.2272  0.5719
   37MOL   C29223404   6.652   3.426   7.221  0.7522 -0.2570 -0.0228
   37MOL   C29323405   6.777   3.520   7.235  0.0219  0.9066  0.2122
   37MOL   C29423406   6.757   3.681   7.220 -0.4491 -0.2248 -0.2709
   37MOL   C29523407   6.895   3.756   7.238 -0.7301 -0.2166 -0.6478
   37MOL   C29623408   6.903   3.876   7.139  0.1912  0.0027 -0.1231
   37MOL   O29723409   6.880   3.861   7.020 -0.2047  0.0986  0.4941
   37MOL   N29823410   6.923   3.998   7.192 -0.3801  0.1288 -0.0711
   37MOL   C29923411   6.895   4.126   7.125  0.0072 -0.0116  0.5561
   37MOL   C30023412   6.872   4.255   7.215  1.2580 -0.3818 -0.5286
   37MOL   C30123413   6.876   4.395   7.143  0.3897 -0.6475 -0.1272
   37MOL   C30223414   6.866   4.517   7.231  0.5942 -0.3818  0.5005
   37MOL   N30323415   6.735   4.510   7.297 -0.5203 -0.7622 -0.4555
   37MOL   H30423416   6.622   3.429   7.116  2.3831 -1.1870 -0.5356
   37MOL   H30523417   6.571   3.465   7.282  0.9593  0.4984 -0.2295
   37MOL   H30623418   6.818   3.511   7.336  0.6683  1.0120 -0.0329
   37MOL   H30723419   6.848   3.492   7.157 -0.9993 -0.6518 -0.1635
   37MOL   H30823420   6.684   3.710   7.295 -0.4793  1.6176 -0.9979
   37MOL   H30923421   6.708   3.699   7.124  0.7635 -1.0212 -1.0506
   37MOL   H31023422   6.976   3.692   7.203 -1.3540 -1.2177 -0.3165
   37MOL   H31123423   6.903   3.784   7.343 -2.9459  1.7366 -0.9387
   37MOL   H31223424   6.945   4.005   7.290  1.8189 -1.9867 -0.3396
   37MOL   H31323425   6.803   4.108   7.069  0.1086  0.2133  0.3184
   37MOL   H31423426   6.966   4.132   7.042 -0.7160  0.6067 -0.0267
   37MOL   H31523427   6.772   4.247   7.257  1.0521  0.8928 -0.7581
   37MOL   H31623428   6.949   4.260   7.293  2.2484  2.7021 -1.6561
   37MOL   H31723429   6.791   4.389   7.075 -0.6246 -1.1749  1.1684
   37MOL   H31823430   6.960   4.385   7.074 -0.7829  0.7754 -1.7935
   37MOL   H31923431   6.879   4.607   7.171  2.0122 -2.2415 -2.0678
   37MOL   H32023432   6.940   4.515   7.311  1.1704  0.7779 -0.0002
   37MOL   H32123433   6.728   4.470   7.390  1.1141  0.2143  0.1026
   37MOL   C32223434   6.614   4.555   7.250 -0.4049 -0.0002 -0.0376
   37MOL   O32323435   6.597   4.604   7.139  0.6886 -0.1043  0.4018
   37MOL   C32423436   6.498   4.545   7.348  0.0212  0.0258 -0.1262
   37MOL   C32523437   6.394   4.440   7.298  0.6472 -0.6587 -0.3968
   37MOL   C32623438   6.296   4.390   7.404  0.0068 -0.0120  0.5026
   37MOL   C32723439   6.228   4.267   7.347 -0.4243 -0.1213 -0.2594
   37MOL   C32823440   6.141   4.201   7.449 -0.2210 -0.2099  0.6213
   37MOL   O32923441   6.109   4.267   7.547  0.2225  0.0962 -0.2051
   37MOL   N33023442   6.093   4.081   7.421 -0.1806  0.6790  0.8057
   37MOL   C33123443   6.030   4.001   7.521 -0.2036  0.0881  0.4444
   37MOL   C33223444   5.886   4.023   7.548 -0.0920  0.3574 -0.4589
   37MOL   C33323445   5.802   3.894   7.564  0.1903  0.2405 -0.1805
   37MOL   C33423446   5.795   3.810   7.441  0.1200 -0.5373 -0.1028
   37MOL   N33523447   5.702   3.701   7.473 -0.3483 -0.0111 -0.3098
   37MOL   H33623448   6.534   4.530   7.450  1.3698 -1.4972 -0.8117
   37MOL   H33723449   6.461   4.647   7.332 -1.1091 -0.4894 -0.8868
   37MOL   H33823450   6.344   4.484   7.213  2.1077 -1.7768 -1.8844
   37MOL   H33923451   6.438   4.348   7.260 -1.5251 -1.1695 -1.7075
   37MOL   H34023452   6.225   4.464   7.442 -0.0747 -1.8685  4.2234
   37MOL   H34123453   6.357   4.373   7.493  0.0137 -2.5576  0.0570
   37MOL   H34223454   6.296   4.198   7.296  0.0763 -0.1800  0.4693
   37MOL   H34323455   6.171   4.298   7.260 -0.7348  2.0925  0.6984
   37MOL   H34423456   6.124   4.044   7.333 -0.4097  1.4389  0.4030
   37MOL   H34523457   6.081   4.006   7.617  1.3651  2.7297 -0.4524
   37MOL   H34623458   6.055   3.898   7.495 -2.8207 -0.5149  0.2171
   37MOL   H34723459   5.871   4.066   7.647 -2.6677 -0.4082 -0.4702
   37MOL   H34823460   5.844   4.097   7.480  2.1747  0.8647 -1.3681
   37MOL   H34923461   5.701   3.931   7.583 -0.0162 -0.7339  0.6902
   37MOL   H35023462   5.838   3.836   7.650  0.4148 -1.4649 -1.3849
   37MOL   H35123463   5.895   3.774   7.419  0.7959  1.6431 -0.7026
   37MOL   H35223464   5.761   3.865   7.354  0.7789 -1.0731 -0.7042
   37MOL   H35323465   5.622   3.728   7.529  0.9090  1.0528  1.0134
   37MOL   C35423466   5.706   3.581   7.421 -0.1968  0.1674  0.1489
   37MOL   O35523467   5.804   3.552   7.352  0.0953 -0.3273  0.0827
   37MOL   C35623468   5.593   3.478   7.443 -0.0854 -0.0691 -1.1554
   37MOL   C35723469   5.541   3.408   7.320  0.3395  0.6422 -0.7308
   37MOL   C35823470   5.449   3.494   7.228  0.4966 -0.3537 -0.5116
   37MOL   C35923471   5.400   3.425   7.103  0.2273 -0.4351  0.0194
   37MOL   C36023472   5.301   3.507   7.025  0.0864 -0.7105  0.1671
   37MOL   O36123473   5.256   3.609   7.074 -0.1005 -0.5714 -0.8714
   37MOL   N36223474   5.283   3.488   6.897 -0.0218 -0.0385 -0.2961
   37MOL   C36323475   5.192   3.567   6.817 -0.1798  0.3923  0.2200
   37MOL   C36423476   5.223   3.535   6.670  0.4606 -0.4567 -0.0256
   37MOL   C36523477   5.153   3.637   6.574 -0.0093  0.5851  0.8044
   37MOL   C36623478   5.004   3.629   6.587 -0.8156 -0.4964  0.1271
   37MOL   N36723479   4.937   3.736   6.505 -1.0658 -0.5229 -0.3216
   37MOL   H36823480   5.626   3.412   7.523 -2.2981  0.3139  0.1170
   37MOL   H36923481   5.510   3.537   7.483  0.1671 -0.5776  0.1499
   37MOL   H37023482   5.623   3.366   7.262  0.6039  0.8973 -0.5449
   37MOL   H37123483   5.489   3.317   7.349  0.2944  0.9371  0.1362
   37MOL   H37223484   5.501   3.583   7.191 -1.4898  0.2521 -1.9499
   37MOL   H37323485   5.364   3.532   7.285  1.9354 -0.8260  1.9879
   37MOL   H37423486   5.341   3.342   7.142 -0.0836 -0.0645  0.3387
   37MOL   H37523487   5.486   3.399   7.041  0.5948 -0.0868  0.3835
   37MOL   H37623488   5.342   3.414   6.861 -1.1232 -0.3572 -1.4821
   37MOL   H37723489   5.195   3.675   6.830  0.7679  0.6743 -2.1174
   37MOL   H37823490   5.088   3.546   6.842 -0.6111  0.5166 -1.4028
   37MOL   H37923491   5.330   3.533   6.649  0.2591  0.1138 -1.1470
   37MOL   H38023492   5.182   3.441   6.632 -1.4730  0.4578 -0.2547
   37MOL   H38123493   5.182   3.610   6.472  0.9148  0.3615  1.1242
   37MOL   H38223494   5.188   3.740   6.586  0.2086  0.6471 -0.2927
   37MOL   H38323495   4.978   3.646   6.692  2.0288 -0.1145  0.8108
   37MOL   H38423496   4.961   3.535   6.554 -2.0234  0.4256 -0.9954
   37MOL   H38523497   4.892   3.807   6.562 -0.6579  0.3090 -1.0310
   37MOL   C38623498   4.915   3.736   6.375 -0.0216  0.7077 -0.0886
   37MOL   O38723499   4.929   3.632   6.310  0.5772  0.3880 -0.1166
   37MOL   C38823500   4.836   3.852   6.315  0.4498 -0.9887 -0.1817
   37MOL   C38923501   4.691   3.816   6.276 -0.5424  0.5900 -0.4717
   37MOL   C39023502   4.604   3.946   6.258  0.2337 -0.3538 -0.3209
   37MOL   C39123503   4.463   3.899   6.214  0.4079  0.1351  0.1289
   37MOL   C39223504   4.357   4.018   6.222 -0.5066 -0.4930  0.2153
   37MOL   O39323505   4.408   4.130   6.218 -0.0014  0.7329 -0.3543
   37MOL   N39423506   4.226   3.993   6.242 -0.0650 -0.0635  0.1433
   37MOL   C39523507   4.133   4.105   6.274  0.5070 -0.2188 -0.1651
   37MOL   C39623508   4.094   4.167   6.141  0.4688 -0.8946 -0.2638
   37MOL   C39723509   3.981   4.272   6.166 -0.0238  0.0337  0.1672
   37MOL   C39823510   3.959   4.377   6.049  0.0514  0.3000  0.8761
   37MOL   N39923511   3.825   4.443   6.052 -0.1055  0.5518 -0.0484
   37MOL   H40023512   4.832   3.939   6.381 -0.6450 -0.3943 -1.0242
   37MOL   H40123513   4.890   3.885   6.227 -2.3345  1.3241 -1.0946
   37MOL   H40223514   4.690   3.750   6.189 -0.7215 -1.2891  0.9230
   37MOL   H40323515   4.651   3.756   6.357 -1.6513  0.9963 -0.7107
   37MOL   H40423516   4.634   4.010   6.175 -0.2091  0.4546  0.1353
   37MOL   H40523517   4.591   4.003   6.351 -1.8858 -1.1297 -0.1012
   37MOL   H40623518   4.432   3.826   6.289 -1.4323  1.0150  0.2469
   37MOL   H40723519   4.452   3.866   6.111 -0.5750  2.0362 -0.3988
   37MOL   H40823520   4.180   3.903   6.251 -2.5619  1.0414 -1.0229
   37MOL   H40923521   4.190   4.177   6.333  0.8776  0.3968 -1.2752
   37MOL   H41023522   4.039   4.070   6.317  1.4104 -2.9435 -0.2533
   37MOL   H41123523   4.183   4.222   6.112 -1.5143  2.2903 -0.6070
   37MOL   H41223524   4.060   4.098   6.064  1.4076 -0.0528 -1.4442
   37MOL   H41323525   4.013   4.332   6.252 -3.7967  1.5053  0.6089
   37MOL   H41423526   3.888   4.223   6.194 -0.3571 -0.1641 -1.2326
   37MOL   H41523527   3.974   4.327   5.953 -1.5301  0.4674  0.5217
   37MOL   H41623528   4.039   4.451   6.047 -0.0284  0.3885  1.0036
   37MOL   H41723529   3.743   4.385   6.059 -0.8227  1.2065 -2.5082
   37MOL   C41823530   3.796   4.571   6.074 -0.1122  0.4328 -0.4848
   37MOL   O41923531   3.876   4.665   6.094  0.5734  0.1298  0.0375
   37MOL   C42023532   3.645   4.599   6.077 -0.6499  0.0604  0.1251
   37MOL   C42123533   3.585   4.631   5.941 -0.5547 -0.6444  0.0961
   37MOL   C42223534   3.439   4.601   5.926  0.0407  0.1450  0.8292
   37MOL   C42323535   3.344   4.718   5.951 -0.1083 -0.1150 -0.3882
   37MOL   C42423536   3.198   4.677   5.915 -0.7431  0.0802  0.0528
   37MOL   O42523537   3.166   4.665   5.796 -0.5865  0.4055  0.0449
   37MOL   N42623538   3.114   4.662   6.018  0.3014  0.1846  0.6857
   37MOL   C42723539   2.984   4.604   6.003  0.3812 -0.1636  0.1363
   37MOL   C42823540   2.894   4.642   6.124  0.4329  0.3266  0.1936
   37MOL   C42923541   2.745   4.640   6.078 -0.0926 -0.5014  0.3957
   37MOL   C43023542   2.653   4.613   6.196  0.3030 -0.3729  0.6263
   37MOL   N43123543   2.671   4.692   6.314  0.2042  0.6433  0.5786
   37MOL   H43223544   3.603   4.504   6.110 -0.3770 -0.4130 -0.8521
   37MOL   H43323545   3.614   4.674   6.149 -1.4651 -1.2192  1.1385
   37MOL   H43423546   3.610   4.730   5.902  1.8272 -1.7447 -1.2613
   37MOL   H43523547   3.640   4.561   5.878 -0.0765 -2.6980  2.7028
   37MOL   H43623548   3.410   4.520   5.992 -0.8082 -1.1309 -1.0613
   37MOL   H43723549   3.437   4.549   5.830  0.5601  0.3832  0.6918
   37MOL   H43823550   3.394   4.804   5.907  0.3915 -0.5658 -0.7025
   37MOL   H43923551   3.353   4.733   6.059  0.8842  1.7157 -0.6985
   37MOL   H44023552   3.146   4.702   6.105 -0.7226 -0.7090  1.4833
   37MOL   H44123553   2.984   4.499   5.977 -1.4457 -0.3305  0.7327
   37MOL   H44223554   2.936   4.666   5.927  0.1966 -1.0113 -0.4343
   37MOL   H44323555   2.905   4.561   6.196  2.1330 -0.6985 -1.1534
   37MOL   H44423556   2.923   4.737   6.169 -0.0066  0.6361 -0.1783
   37MOL   H44523557   2.724   4.561   6.007  0.2639 -0.7870  0.6086
   37MOL   H44623558   2.708   4.732   6.032  0.4794 -0.6847 -0.4305
   37MOL   H44723559   2.659   4.506   6.216  1.3263 -0.4274  0.0785
   37MOL   H44823560   2.548   4.625   6.168  0.9617  0.1784 -1.7264
   37MOL   H44923561   2.661   4.641   6.401 -0.8847  0.4411  0.3466
   37MOL   C45023562   2.657   4.825   6.332  0.1057  0.6535 -0.2064
   37MOL   O45123563   2.633   4.910   6.247 -0.2763  0.2396  0.3052
   37MOL   C45223564   2.677   4.865   6.481  0.2369  0.3578  0.0958
   37MOL   C45323565   2.619   5.004   6.519 -0.3455 -0.7444 -0.0824
   37MOL   C45423566   2.628   5.043   6.667 -0.1691  0.0730  0.0499
   37MOL   C45523567   2.767   5.074   6.724  0.1166  0.3154 -0.2263
   37MOL   C45623568   2.773   5.132   6.862 -0.0215  0.5366  0.4647
   37MOL   O45723569   2.678   5.201   6.899  0.2870  0.3723 -0.5747
   37MOL   N45823570   2.868   5.088   6.948  0.0647  0.2698  0.3523
   37MOL   C45923571   2.887   5.117   7.091 -0.9678 -0.1320  0.0166
   37MOL   C46023572   2.860   5.258   7.138  0.0354  0.3999 -0.3483
   37MOL   C46123573   2.877   5.286   7.286 -0.0378  0.3892  0.0030
   37MOL   C46223574   2.845   5.434   7.334 -0.5316  0.2208  0.3012
   37MOL   N46323575   2.709   5.472   7.294  0.0165 -0.2797 -0.3180
   37MOL   H46423576   2.634   4.796   6.553  0.8348  1.0136  1.0967
   37MOL   H46523577   2.784   4.865   6.503  0.6299  0.8915 -1.7307
   37MOL   H46623578   2.664   5.087   6.463 -3.7857 -0.0184 -1.9413
   37MOL   H46723579   2.513   5.005   6.496 -0.5547  0.9501  0.8365
   37MOL   H46823580   2.588   4.976   6.742 -1.6958  0.7692 -0.1166
   37MOL   H46923581   2.554   5.123   6.673 -1.9900 -1.6593  1.0521
   37MOL   H47023582   2.829   5.148   6.674  0.4206  1.3766  1.6794
   37MOL   H47123583   2.823   4.981   6.720 -0.1176  0.2015 -0.9139
   37MOL   H47223584   2.948   5.052   6.898  0.7881 -0.6049  2.1062
   37MOL   H47323585   2.990   5.096   7.118 -1.1166 -1.6848 -0.6100
   37MOL   H47423586   2.830   5.039   7.142  1.0333 -2.7521 -1.6506
   37MOL   H47523587   2.917   5.337   7.089  1.5876  0.7700  1.9562
   37MOL   H47623588   2.755   5.276   7.115  0.1821  1.8368  0.0246
   37MOL   H47723589   2.971   5.248   7.325 -0.3076  1.9959  2.3714
   37MOL   H47823590   2.806   5.219   7.335 -0.8149 -0.8727 -2.7739
   37MOL   H47923591   2.913   5.507   7.291 -2.0875 -0.0715 -2.8669
   37MOL   H48023592   2.854   5.448   7.441 -2.1804  0.6377  0.3987
   37MOL   H48123593   2.700   5.526   7.209  0.8402 -0.0947 -0.2975
   37MOL   C48223594   2.596   5.411   7.335  0.3707  0.6992  0.0696
   37MOL   O48323595   2.585   5.342   7.436  0.4188 -0.6788  0.2613
   37MOL   C48423596   2.469   5.427   7.245 -0.7787 -0.3491 -1.1007
   37MOL   C48523597   2.381   5.554   7.293  0.7369 -0.4172  0.3568
   37MOL   C48623598   2.451   5.694   7.283 -0.4442 -0.0384 -0.1812
   37MOL   C48723599   2.352   5.814   7.293  0.0265 -0.1454 -0.5105
   37MOL   C48823600   2.329   5.873   7.155  0.3012  0.7519 -0.4872
   37MOL   O48923601   2.253   5.819   7.071 -0.2379  0.2149 -0.2007
   37MOL   N49023602   2.402   5.977   7.110 -0.1002  0.0983  0.8420
   37MOL   C49123603   2.392   6.061   6.987  0.0118 -0.1265 -0.4384
   37MOL   C49223604   2.486   6.013   6.877 -0.2177  0.1388 -0.2233
   37MOL   C49323605   2.443   6.078   6.740  1.4400  0.0901  0.7655
   37MOL   C49423606   2.532   6.074   6.612 -0.5004 -0.9177 -0.2590
   37MOL   N49523607   2.666   6.133   6.632  0.8557  0.5073  1.0988
   37MOL   H49623608   2.495   5.429   7.139  1.2042  3.3236 -0.6587
   37MOL   H49723609   2.407   5.338   7.246 -0.2815 -0.7048 -1.9076
   37MOL   H49823610   2.296   5.551   7.226 -0.3794  1.3758  1.6583
   37MOL   H49923611   2.337   5.547   7.393  0.7125  1.1454  0.4613
   37MOL   H50023612   2.516   5.699   7.196 -0.3173 -0.3221 -0.1059
   37MOL   H50123613   2.513   5.707   7.372 -2.2706  2.4962  0.7907
   37MOL   H50223614   2.400   5.902   7.335 -1.6656  1.3312 -1.6043
   37MOL   H50323615   2.260   5.782   7.343  0.5213 -2.1432 -0.8392
   37MOL   H50423616   2.463   6.014   7.181 -0.4138 -2.7602  2.6623
   37MOL   H50523617   2.412   6.168   6.997  1.8301 -0.4547 -0.4454
   37MOL   H50623618   2.288   6.052   6.956 -0.7496 -0.2736  2.0548
   37MOL   H50723619   2.586   6.028   6.917 -0.0882 -1.2597  0.0020
   37MOL   H50823620   2.489   5.904   6.878 -2.7706  0.0478  0.2828
   37MOL   H50923621   2.418   6.181   6.766  0.0666  0.2119 -0.9392
   37MOL   H51023622   2.342   6.041   6.724  2.0293 -0.8324 -0.9786
   37MOL   H51123623   2.478   6.139   6.543  1.3601  1.1187  0.1437
   37MOL   H51223624   2.528   5.973   6.572 -0.3761 -1.7068  1.6782
   37MOL   H51323625   2.667   6.228   6.597 -4.6204  0.1042 -0.5727
   37MOL   C51423626   2.774   6.087   6.695 -0.3870  0.0855  0.2889
   37MOL   O51523627   2.782   5.975   6.732  0.5234  0.4726  0.0016
   37MOL   C51623628   2.886   6.190   6.724  0.5128 -0.0542  0.6599
   37MOL   C51723629   2.976   6.154   6.847 -0.1610 -0.8580 -0.1586
   37MOL   C51823630   3.068   6.274   6.887 -0.1040  0.3007 -0.1331
   37MOL   C51923631   3.176   6.238   6.995  0.9837  0.6560 -0.0522
   37MOL   C52023632   3.125   6.252   7.140  0.5475 -0.1306 -0.1403
   37MOL   O52123633   3.063   6.354   7.177  0.0494  0.2868 -0.9109
   37MOL   N52223634   3.163   6.160   7.229  0.0536 -0.5089 -0.1268
   37MOL   C52323635   3.136   6.174   7.377 -0.2874 -0.1622  0.0843
   37MOL   C52423636   3.252   6.242   7.450  0.3718 -0.0144  1.1026
   37MOL   C52523637   3.391   6.177   7.445 -0.2189 -0.7140  0.2835
   37MOL   C52623638   3.491   6.243   7.536 -0.0831  0.0106  0.0312
   37MOL   N52723639   3.623   6.170   7.520 -0.1226 -0.3107 -0.2485
   37MOL   H52823640   2.947   6.216   6.637 -1.2787  2.2665  0.0430
   37MOL   H52923641   2.835   6.285   6.740 -0.6800 -0.4026 -0.9393
   37MOL   H53023642   2.916   6.128   6.934  2.8425 -1.7214  1.6838
   37MOL   H53123643   3.020   6.061   6.813 -0.5608  0.3065 -4.1246
   37MOL   H53223644   3.012   6.363   6.914  1.4688  0.9494  1.0428
   37MOL   H53323645   3.127   6.307   6.801  1.4120 -0.7934  0.4575
   37MOL   H53423646   3.263   6.305   6.996 -0.6528  2.8511 -0.0694
   37MOL   H53523647   3.221   6.139   6.991  2.0124  1.0992  0.1780
   37MOL   H53623648   3.210   6.077   7.196  0.7424 -0.3080  0.3480
   37MOL   H53723649   3.133   6.071   7.413  1.7889 -0.5787 -0.8586
   37MOL   H53823650   3.035   6.212   7.388 -0.1493  0.2928 -0.1957
   37MOL   H53923651   3.267   6.346   7.421 -0.1408  0.3578  2.1388
   37MOL   H54023652   3.213   6.254   7.552  0.6205 -1.0957  1.3396
   37MOL   H54123653   3.430   6.183   7.344 -0.1668 -0.6214  0.3094
   37MOL   H54223654   3.391   6.071   7.470 -0.0125  0.0275  3.8031
   37MOL   H54323655   3.457   6.226   7.638 -0.6320 -0.3718 -0.2140
   37MOL   H54423656   3.486   6.352   7.538  0.3042  0.1787 -3.6633
   37MOL   H54523657   3.646   6.094   7.582 -0.4751 -0.2607 -0.0523
   37MOL   C54623658   3.712   6.198   7.427 -0.5526 -1.4110  0.1110
   37MOL   O54723659   3.683   6.297   7.356 -0.1718 -0.3851 -0.0017
   37MOL   C54823660   3.838   6.114   7.417  0.1841 -0.6379 -0.6266
   37MOL   C54923661   3.956   6.191   7.355  0.3214  0.6461  0.2005
   37MOL   C55023662   3.961   6.198   7.204 -0.8974 -0.9609 -0.0339
   37MOL   C55123663   4.085   6.283   7.159 -0.8083 -0.3223  0.0052
   37MOL   C55223664   4.225   6.209   7.175 -0.4237 -0.4942 -0.0387
   37MOL   O55323665   4.268   6.133   7.090 -0.0048 -0.3147 -0.0135
   37MOL   N55423666   4.306   6.250   7.275  0.4879 -0.1035 -0.8505
   37MOL   C55523667   4.450   6.230   7.268 -0.2488  0.5453  0.3735
   37MOL   C55623668   4.529   6.341   7.343 -0.7631  0.3459 -0.6208
   37MOL   C55723669   4.515   6.476   7.269 -0.4798  0.6751  0.3212
   37MOL   C55823670   4.617   6.577   7.305 -0.3347 -0.2089 -0.0514
   37MOL   N55923671   4.745   6.563   7.242  0.0822 -0.4700 -0.1673
   37MOL   H56023672   3.871   6.067   7.510  2.2420 -0.5041 -1.2822
   37MOL   H56123673   3.797   6.033   7.355  0.5925 -0.2180 -1.4497
   37MOL   H56223674   3.960   6.289   7.403 -0.8512  0.3640  0.8856
   37MOL   H56323675   4.047   6.137   7.382  0.2666 -0.0366 -0.9242
   37MOL   H56423676   3.873   6.246   7.161 -0.9015  1.0153  2.1232
   37MOL   H56523677   3.981   6.101   7.156  1.8337 -2.8246  4.5736
   37MOL   H56623678   4.104   6.378   7.209  0.3008 -1.7697  2.4473
   37MOL   H56723679   4.082   6.313   7.054  0.5972 -1.5550 -0.4107
   37MOL   H56823680   4.262   6.312   7.342  0.7867  1.4214 -2.0466
   37MOL   H56923681   4.476   6.220   7.162 -2.1271  2.4918 -0.3067
   37MOL   H57023682   4.457   6.133   7.318  1.0705  0.2493 -0.3675
   37MOL   H57123683   4.488   6.352   7.443 -1.9117 -0.4253 -0.9904
   37MOL   H57223684   4.633   6.310   7.356 -0.8968 -0.5319 -1.6011
   37MOL   H57323685   4.417   6.518   7.296 -0.9677  0.9993 -1.8253
   37MOL   H57423686   4.520   6.453   7.162  4.9609  1.8615  0.2175
   37MOL   H57523687   4.627   6.580   7.414  0.1989  0.8713 -0.1185
   37MOL   H57623688   4.585   6.675   7.270 -0.1855 -0.1946 -0.1485
   37MOL   H57723689   4.753   6.570   7.141  0.2360 -0.1308 -0.1318
   37MOL   C57823690   4.853   6.506   7.298  0.3745 -0.7788  0.4365
   37MOL   O57923691   4.860   6.462   7.413 -0.0860  0.7470 -0.0372
   37MOL   C58023692   4.978   6.504   7.207  1.0016  0.6898  0.6936
   37MOL   C58123693   5.111   6.521   7.270  0.0035  0.2744 -0.0841
   37MOL   C58223694   5.234   6.547   7.180  0.2214  0.4256 -0.2452
   37MOL   C58323695   5.269   6.692   7.144 -0.3519 -0.6206  0.9880
   37MOL   C58423696   5.185   6.750   7.032  1.0308  0.2203 -0.0460
   37MOL   O58523697   5.088   6.819   7.058 -0.3832  0.1811  0.1652
   37MOL   N58623698   5.238   6.741   6.910  0.4125 -0.2701  0.4288
   37MOL   C58723699   5.163   6.788   6.799 -0.6029  0.4249 -0.0763
   37MOL   C58823700   5.248   6.771   6.672 -0.4953  0.1830  0.1098
   37MOL   C58923701   5.275   6.622   6.627  0.7107  0.6709  0.2880
   37MOL   C59023702   5.394   6.621   6.528 -0.2224 -0.2560  0.7458
   37MOL   N59123703   5.426   6.485   6.487 -0.0964 -0.0719 -0.0569
   37MOL   H59223704   4.975   6.406   7.161 -1.6519  1.5725 -1.1236
   37MOL   H59323705   4.962   6.586   7.137  0.7089 -0.1626 -0.2491
   37MOL   H59423706   5.116   6.585   7.359  0.5370 -1.4029  1.1143
   37MOL   H59523707   5.132   6.424   7.314 -1.4083  0.4862  1.0898
   37MOL   H59623708   5.215   6.494   7.087 -0.7901  0.9888 -0.3599
   37MOL   H59723709   5.318   6.505   7.236  0.0859 -0.4676 -0.6914
   37MOL   H59823710   5.375   6.706   7.119 -0.4886 -0.9727  0.1943
   37MOL   H59923711   5.254   6.764   7.225 -0.8595  1.0774 -0.6000
   37MOL   H60023712   5.333   6.708   6.893 -0.2824 -0.9718 -2.4109
   37MOL   H60123713   5.145   6.895   6.812  2.2075  0.8305  0.7246
   37MOL   H60223714   5.079   6.719   6.793 -0.7990  0.7483 -1.1249
   37MOL   H60323715   5.197   6.812   6.585  2.0106 -1.8204 -2.3804
   37MOL   H60423716   5.346   6.819   6.683  0.4253 -1.5559 -0.2033
   37MOL   H60523717   5.195   6.570   6.574 -0.1040  1.3071  0.8848
   37MOL   H60623718   5.297   6.562   6.715  0.4197 -0.5205 -0.4290
   37MOL   H60723719   5.479   6.664   6.581  0.5488 -0.6963 -0.1086
   37MOL   H60823720   5.373   6.691   6.448  0.0768  0.4159  1.2474
   37MOL   H60923721   5.485   6.434   6.551 -1.8273 -0.1349  1.5475
   37MOL   C61023722   5.388   6.410   6.380  0.0438  0.4306 -0.2002
   37MOL   O61123723   5.332   6.459   6.283  0.6368  0.8979  0.6958
   37MOL   C61223724   5.423   6.261   6.379 -0.4418  0.3606  0.4244
   37MOL   C61323725   5.298   6.164   6.369 -0.3980 -0.0402  0.2598
   37MOL   C61423726   5.208   6.163   6.493 -0.4250  0.7145 -0.0081
   37MOL   C61523727   5.080   6.067   6.466  0.9000 -0.6072 -0.6661
   37MOL   C61623728   4.943   6.145   6.477 -0.3929 -0.7291 -0.8701
   37MOL   O61723729   4.939   6.265   6.457  0.3972  0.1888  0.9066
   37MOL   N61823730   4.841   6.062   6.512  0.0125 -0.7972 -0.2896
   37MOL   C61923731   4.704   6.101   6.544 -0.5846 -0.0468 -0.2311
   37MOL   C62023732   4.674   6.051   6.691 -0.5591  0.1974 -0.0033
   37MOL   C62123733   4.522   6.074   6.723 -0.7727  0.2679 -0.3785
   37MOL   C62223734   4.500   6.103   6.866  0.6878  0.6805 -0.4887
   37MOL   N62323735   4.518   5.978   6.937  0.2834  0.0777  0.4378
   37MOL   H62423736   5.499   6.252   6.301 -0.2852  3.1298  0.2181
   37MOL   H62523737   5.483   6.226   6.464 -0.5239 -0.4017  0.1756
   37MOL   H62623738   5.237   6.191   6.283  0.0979 -0.4234 -0.2182
   37MOL   H62723739   5.332   6.063   6.346  2.0635  0.3808  1.8139
   37MOL   H62823740   5.173   6.260   6.528  1.4047  0.7875  1.7804
   37MOL   H62923741   5.267   6.131   6.580  0.7856  0.7999 -0.7834
   37MOL   H63023742   5.082   5.978   6.529  0.4769  0.0814  0.3374
   37MOL   H63123743   5.091   6.027   6.365 -0.6859  0.4161 -1.2551
   37MOL   H63223744   4.861   5.966   6.536  2.5119 -0.5406 -1.2489
   37MOL   H63323745   4.640   6.046   6.475 -0.7616  0.1014 -0.1867
   37MOL   H63423746   4.673   6.205   6.539 -0.0038  0.2772  2.1418
   37MOL   H63523747   4.706   5.951   6.718 -1.0380  0.9642  3.6098
   37MOL   H63623748   4.716   6.121   6.762 -0.8672 -0.8369  1.2076
   37MOL   H63723749   4.459   5.989   6.697 -0.4464  0.1084 -0.6561
   37MOL   H63823750   4.479   6.156   6.666 -0.7800  0.3120 -0.3092
   37MOL   H63923751   4.398   6.141   6.872  0.0361 -0.7098 -2.4947
   37MOL   H64023752   4.565   6.176   6.916  3.0823 -1.6068 -0.1423
   37MOL   H64123753   4.466   5.906   6.888 -0.6699  0.2141  1.2298
   37MOL   H64223754   4.464   5.986   7.022  1.6839 -1.1722  1.4709
   38MOL     C123755   0.010   6.872   3.535  0.2429  0.3307 -0.0758
   38MOL     O223756   7.646   6.972   3.571 -0.1114  0.3754 -0.0386
   38MOL     C323757   0.072   6.858   3.396  0.0835  0.8366 -0.5174
   38MOL     C423758   0.173   6.969   3.358  0.6609  0.0363  0.4875
   38MOL     C523759   0.124   7.113   3.357  0.6353  0.0762  0.5637
   38MOL     C623760   7.693   7.124   3.283 -0.3066  0.1194 -0.3743
   38MOL     C723761   7.607   7.250   3.313  0.0841  0.2791 -0.5075
   38MOL     O823762   7.662   7.344   3.374 -0.0103  0.0138 -0.3819
   38MOL     N923763   7.484   7.252   3.260  0.0192  0.0663 -0.3163
   38MOL    C1023764   7.406   7.377   3.253  0.4122 -0.2707 -0.0448
   38MOL    C1123765   7.269   7.349   3.316 -0.8488  0.9283 -0.1745
   38MOL    C1223766   7.152   7.459   3.306  0.1314 -0.1196 -0.5971
   38MOL    C1323767   7.014   7.399   3.319  0.0632  0.3485  0.1872
   38MOL    N1423768   6.989   7.367   3.461  0.5406 -0.9185  0.1782
   38MOL    H1523769   0.126   6.763   3.403  0.9067  1.3355 -0.1184
   38MOL    H1623770   7.699   6.848   3.317 -0.2752 -0.6916 -0.0134
   38MOL    H1723771   0.269   6.941   3.401  0.9007 -1.3491 -0.8816
   38MOL    H1823772   0.197   6.956   3.252  3.0444 -1.5148  1.1671
   38MOL    H1923773   0.193   7.179   3.305 -1.3545  0.8916 -1.1481
   38MOL    H2023774   0.113   7.143   3.461  0.5762  2.1742 -0.0313
   38MOL    H2123775   7.627   7.038   3.298  0.0146 -0.0232  0.2264
   38MOL    H2223776   0.023   7.128   3.179  1.0158  0.8873  0.0431
   38MOL    H2323777   7.450   7.179   3.199 -0.4505  0.1049 -0.0979
   38MOL    H2423778   7.381   7.405   3.151 -1.2498 -0.7539  0.2098
   38MOL    H2523779   7.452   7.465   3.298  0.5657  0.0018 -0.7307
   38MOL    H2623780   7.235   7.253   3.278  0.8364  0.0906  0.3891
   38MOL    H2723781   7.279   7.328   3.423  1.6613  1.9654 -0.1845
   38MOL    H2823782   7.156   7.505   3.207  1.7834 -3.1489 -2.0197
   38MOL    H2923783   7.160   7.544   3.373  0.5578 -0.6251 -0.0020
   38MOL    H3023784   7.013   7.311   3.255 -1.1389  0.8936 -0.5524
   38MOL    H3123785   6.931   7.463   3.290  0.8211  0.4138 -1.8884
   38MOL    H3223786   6.994   7.443   3.528 -0.1479 -1.8708  1.3300
   38MOL    H3323787   0.029   6.786   3.599  0.3432  0.3748 -0.0468
   38MOL    C3423788   6.958   7.244   3.501 -0.0115 -0.3299 -0.1828
   38MOL    O3523789   6.971   7.146   3.427  0.0742 -0.4599 -0.3205
   38MOL    C3623790   6.906   7.233   3.645  0.3747 -0.4464  0.9488
   38MOL    C3723791   6.898   7.089   3.699  0.9655 -0.2480 -0.0236
   38MOL    C3823792   6.785   7.006   3.646 -0.1361  0.8028 -0.1633
   38MOL    C3923793   6.631   7.039   3.675 -0.4171 -0.1885 -0.0015
   38MOL    C4023794   6.545   6.921   3.670 -0.4326  0.4247 -0.2263
   38MOL    O4123795   6.577   6.811   3.723 -0.5675  0.3367  0.1026
   38MOL    N4223796   6.428   6.934   3.615  0.5758 -0.1612 -0.1316
   38MOL    C4323797   6.320   6.843   3.644 -0.3680 -0.2438  0.5733
   38MOL    C4423798   6.246   6.803   3.509 -0.1776  0.6942  0.0337
   38MOL    C4523799   6.108   6.740   3.534 -0.5102 -0.2691 -0.0133
   38MOL    C4623800   6.048   6.652   3.428 -0.2786  0.4363 -0.1081
   38MOL    N4723801   5.909   6.628   3.462 -0.1325  0.0375  0.7158
   38MOL    H4823802   6.980   7.293   3.697  0.3546  0.4201 -0.0047
   38MOL    H4923803   6.812   7.287   3.658  2.1686  2.7714  1.1100
   38MOL    H5023804   6.992   7.034   3.685  1.1275 -0.2088  0.8647
   38MOL    H5123805   6.882   7.092   3.807  0.3308 -1.5918 -0.0697
   38MOL    H5223806   6.811   6.912   3.694 -0.9507 -0.3692 -1.9612
   38MOL    H5323807   6.794   6.979   3.541 -0.1578 -1.3030  0.3546
   38MOL    H5423808   6.596   7.122   3.613 -0.7763  0.5605  1.1903
   38MOL    H5523809   6.632   7.074   3.778  1.4858  0.9915 -0.4038
   38MOL    H5623810   6.417   7.027   3.576  2.4249  0.3870  0.5991
   38MOL    H5723811   6.241   6.890   3.703  2.3213  3.5320  1.3881
   38MOL    H5823812   6.347   6.759   3.708  0.3491 -1.6726 -1.5585
   38MOL    H5923813   6.238   6.884   3.436  0.2449  0.4796 -0.2510
   38MOL    H6023814   6.309   6.735   3.452 -0.1107 -1.0138  2.0669
   38MOL    H6123815   6.039   6.822   3.553  0.1488  0.0593  0.9910
   38MOL    H6223816   6.122   6.678   3.623  3.6203 -0.5264 -0.7306
   38MOL    H6323817   6.100   6.556   3.431  0.3194  0.6110 -3.1246
   38MOL    H6423818   6.065   6.686   3.325 -1.5407 -0.7919 -0.7294
   38MOL    H6523819   5.900   6.576   3.548  0.4857  1.5560  1.7247
   38MOL    C6623820   5.801   6.672   3.400  0.0330 -0.1881 -0.1029
   38MOL    O6723821   5.800   6.733   3.292  0.5849  0.0908  0.3371
   38MOL    C6823822   5.666   6.619   3.455  0.1396  0.6368  0.5807
   38MOL    C6923823   5.617   6.672   3.598 -0.3279 -0.4566  0.1145
   38MOL    C7023824   5.560   6.811   3.610 -0.4213 -0.2371 -0.6224
   38MOL    C7123825   5.497   6.832   3.749  0.1010 -0.0819 -0.3348
   38MOL    C7223826   5.428   6.971   3.768 -0.3238  0.1151  0.4108
   38MOL    O7323827   5.311   6.977   3.731  0.0573 -0.1063  0.0506
   38MOL    N7423828   5.495   7.065   3.818  0.6531 -0.2476  0.3306
   38MOL    C7523829   5.463   7.207   3.821 -0.8112 -0.0622  0.3161
   38MOL    C7623830   5.429   7.237   3.974  0.0068  0.1808  0.3004
   38MOL    C7723831   5.297   7.171   4.015 -0.4014 -0.2103  0.0845
   38MOL    C7823832   5.261   7.172   4.162  0.0608  0.4962 -0.4711
   38MOL    N7923833   5.135   7.102   4.186 -0.4133 -0.2776 -0.1689
   38MOL    H8023834   5.593   6.641   3.377 -0.9493  1.2186  1.7562
   38MOL    H8123835   5.683   6.512   3.470  1.0304  0.9031  1.4777
   38MOL    H8223836   5.538   6.599   3.612  1.2584 -2.8758 -2.8182
   38MOL    H8323837   5.698   6.640   3.664 -0.0085 -0.4765 -0.2859
   38MOL    H8423838   5.486   6.833   3.533  0.3161  2.3286 -0.6369
   38MOL    H8523839   5.632   6.888   3.580  0.4319 -0.8029 -0.0518
   38MOL    H8623840   5.573   6.809   3.824 -0.4223  0.7992  0.4773
   38MOL    H8723841   5.416   6.760   3.758 -0.3842  0.4534 -0.3483
   38MOL    H8823842   5.592   7.039   3.832  0.1946 -2.0839  0.2515
   38MOL    H8923843   5.379   7.216   3.753 -0.8154 -2.3095 -0.0058
   38MOL    H9023844   5.553   7.256   3.784  0.1627 -1.1130  1.2571
   38MOL    H9123845   5.516   7.201   4.029  1.5233  0.5892 -1.7549
   38MOL    H9223846   5.426   7.344   3.993 -1.5874  0.5876 -1.9956
   38MOL    H9323847   5.288   7.065   3.990  1.7073 -0.5496  0.6506
   38MOL    H9423848   5.218   7.228   3.966  0.8410  1.9885  0.5736
   38MOL    H9523849   5.246   7.278   4.182 -0.7293  0.7980 -2.5252
   38MOL    H9623850   5.338   7.127   4.225 -0.1120 -0.1692 -0.7269
   38MOL    H9723851   5.138   7.007   4.219  0.1711  0.4263  1.8878
   38MOL    C9823852   5.015   7.153   4.157 -0.0813  0.0983 -0.6578
   38MOL    O9923853   4.993   7.269   4.123  0.0858  0.5662 -0.2190
   38MOL   C10023854   4.896   7.055   4.176  0.6904  0.9690  0.4127
   38MOL   C10123855   4.785   7.112   4.277 -0.3526  0.1690 -0.0959
   38MOL   C10223856   4.686   7.213   4.216 -0.2766  0.4487 -0.1798
   38MOL   C10323857   4.608   7.159   4.093  0.1661 -0.0548  0.0548
   38MOL   C10423858   4.470   7.230   4.074 -0.6445  0.3807  0.4856
   38MOL   O10523859   4.455   7.345   4.114  0.7404 -0.1916  0.2610
   38MOL   N10623860   4.372   7.154   4.027  0.5142 -0.3597  0.0640
   38MOL   C10723861   4.234   7.196   4.003 -0.2074  0.5325 -1.1204
   38MOL   C10823862   4.188   7.191   3.854 -0.1394  0.0702 -0.1979
   38MOL   C10923863   4.037   7.191   3.839  0.4357 -0.4437  0.3412
   38MOL   C11023864   3.995   7.177   3.693  0.5178 -0.3886  0.3865
   38MOL   N11123865   4.043   7.051   3.631  0.0840 -0.3001 -1.1404
   38MOL   H11223866   4.852   7.019   4.083  0.0054  2.1685  0.2613
   38MOL   H11323867   4.938   6.973   4.235 -2.4111  1.0678  2.8920
   38MOL   H11423868   4.728   7.035   4.328  1.4820 -0.9419  0.2953
   38MOL   H11523869   4.844   7.165   4.352 -0.4570  1.8439 -1.1562
   38MOL   H11623870   4.747   7.296   4.180  0.5529  0.0500  0.2869
   38MOL   H11723871   4.627   7.253   4.299 -0.5048 -0.3845  0.0644
   38MOL   H11823872   4.588   7.055   4.118 -0.4613  0.7144  2.9616
   38MOL   H11923873   4.659   7.170   3.997  0.3041  1.0377  0.2475
   38MOL   H12023874   4.401   7.060   4.003 -0.8400 -0.6982 -0.3153
   38MOL   H12123875   4.214   7.293   4.050 -0.3262  0.5101 -1.1235
   38MOL   H12223876   4.173   7.132   4.067  0.3424  1.4638  0.3791
   38MOL   H12323877   4.227   7.277   3.798  0.2554 -1.8478 -2.9436
   38MOL   H12423878   4.238   7.106   3.807  0.3788  0.4783 -0.3971
   38MOL   H12523879   3.985   7.277   3.882 -0.4640 -2.0776  2.6262
   38MOL   H12623880   4.005   7.110   3.904  1.7302 -1.2539 -0.0172
   38MOL   H12723881   4.034   7.263   3.640 -0.2857 -0.3219 -0.1038
   38MOL   H12823882   3.886   7.174   3.689  0.5760 -2.4120 -0.3665
   38MOL   H12923883   4.102   7.063   3.550  0.8392 -2.2263 -0.9183
   38MOL   C13023884   4.016   6.929   3.674  0.0379  0.2940 -0.4147
   38MOL   O13123885   3.954   6.903   3.781  0.3090 -0.2809  0.1893
   38MOL   C13223886   4.089   6.817   3.598 -0.7327  0.5658 -0.5524
   38MOL   C13323887   4.087   6.682   3.668  0.7931  0.3267 -0.6370
   38MOL   C13423888   4.177   6.581   3.605 -0.1531 -0.0636 -0.2354
   38MOL   C13523889   4.186   6.453   3.684 -0.2999  0.0778 -0.3520
   38MOL   C13623890   4.270   6.453   3.815 -0.4974 -0.6963 -0.1753
   38MOL   O13723891   4.377   6.516   3.818  0.6396 -0.1963 -0.0683
   38MOL   N13823892   4.222   6.382   3.919 -0.1182 -0.6112 -0.1700
   38MOL   C13923893   4.292   6.370   4.043 -1.0978  0.1257 -0.2904
   38MOL   C14023894   4.200   6.321   4.153  0.4287 -1.0006  0.1221
   38MOL   C14123895   4.267   6.354   4.288 -0.1360  0.1812  0.0413
   38MOL   C14223896   4.163   6.324   4.399  0.5194  0.4263 -0.2270
   38MOL   N14323897   4.219   6.351   4.531 -0.6378 -0.2963  0.1024
   38MOL   H14423898   4.045   6.815   3.498 -0.4712 -0.2902 -0.6531
   38MOL   H14523899   4.192   6.844   3.576 -1.2228  2.6978 -0.4076
   38MOL   H14623900   4.114   6.696   3.773 -0.1638 -0.6521 -0.2639
   38MOL   H14723901   3.983   6.652   3.658 -0.3769  4.5658 -2.4348
   38MOL   H14823902   4.275   6.621   3.578 -0.2031  0.5630  0.4955
   38MOL   H14923903   4.127   6.552   3.512 -1.0653  0.5041  0.0681
   38MOL   H15023904   4.231   6.383   3.613 -1.5855 -2.5927  1.3811
   38MOL   H15123905   4.087   6.414   3.710  1.0736 -3.4718 -0.2264
   38MOL   H15223906   4.129   6.345   3.912 -1.1027  2.1774 -2.6569
   38MOL   H15323907   4.326   6.470   4.071  0.4853 -0.1873 -1.0352
   38MOL   H15423908   4.386   6.316   4.027 -0.7148  0.7956 -0.3222
   38MOL   H15523909   4.098   6.359   4.156  0.8503  0.1128  0.9950
   38MOL   H15623910   4.198   6.216   4.125  1.1485 -0.6130 -1.4705
   38MOL   H15723911   4.310   6.454   4.283 -3.2755  1.5282 -1.1087
   38MOL   H15823912   4.347   6.281   4.305 -0.7799  0.3845  4.6741
   38MOL   H15923913   4.120   6.225   4.387  2.5881 -0.4594 -0.4789
   38MOL   H16023914   4.074   6.387   4.391  0.7705  0.6414 -1.4269
   38MOL   H16123915   4.266   6.440   4.543 -3.4144  1.3108 -0.3510
   38MOL   C16223916   4.212   6.272   4.631  0.0430  0.7095  0.0437
   38MOL   O16323917   4.177   6.155   4.618 -0.2305 -0.4192  0.3605
   38MOL   C16423918   4.258   6.331   4.760  0.4675 -0.3435 -0.7479
   38MOL   C16523919   4.144   6.410   4.841 -0.1500  0.0377 -0.0660
   38MOL   C16623920   4.060   6.307   4.915 -0.5191  0.2403  0.6097
   38MOL   C16723921   4.136   6.253   5.036 -0.3595 -0.1316  0.2159
   38MOL   C16823922   4.044   6.187   5.135 -0.1438  0.5390  0.2316
   38MOL   O16923923   3.924   6.170   5.118 -0.0314 -0.2825 -0.3436
   38MOL   N17023924   4.103   6.144   5.248  0.2678  0.5647 -0.4759
   38MOL   C17123925   4.235   6.185   5.294  0.3100  0.2940  0.0181
   38MOL   C17223926   4.265   6.132   5.437 -0.3748 -0.0382 -0.4672
   38MOL   C17323927   4.273   5.974   5.444  0.0292 -0.3794 -0.7133
   38MOL   C17423928   4.272   5.914   5.583  0.2960  0.2968 -0.4222
   38MOL   N17523929   4.389   5.958   5.659  0.1965  0.6589 -0.0317
   38MOL   H17623930   4.300   6.247   4.814 -1.4450 -1.6271 -1.2058
   38MOL   H17723931   4.338   6.404   4.747 -1.0723  1.8125  1.3798
   38MOL   H17823932   4.179   6.493   4.903 -0.5591  0.9149 -0.9906
   38MOL   H17923933   4.085   6.458   4.763 -1.3917 -0.1212  0.7585
   38MOL   H18023934   4.026   6.227   4.850 -1.9216 -0.9574  2.7584
   38MOL   H18123935   3.964   6.351   4.939  0.7585  2.0399  2.6338
   38MOL   H18223936   4.189   6.338   5.081 -1.0334  0.9363 -0.9939
   38MOL   H18323937   4.209   6.177   5.010  1.1671  0.7530  1.7867
   38MOL   H18423938   4.047   6.096   5.317  0.1914  1.2594 -0.0471
   38MOL   H18523939   4.239   6.294   5.294 -1.0116  0.3636  1.0767
   38MOL   H18623940   4.317   6.161   5.227 -1.1184  2.5815 -2.6482
   38MOL   H18723941   4.357   6.174   5.478  1.5747 -2.7174 -1.9121
   38MOL   H18823942   4.184   6.165   5.501 -2.8005 -0.9912 -2.9121
   38MOL   H18923943   4.368   5.948   5.396  0.9510  1.6661 -0.0643
   38MOL   H19023944   4.193   5.922   5.391 -0.8299  0.1756  0.0205
   38MOL   H19123945   4.262   5.807   5.571 -1.7591  0.5136 -0.8183
   38MOL   H19223946   4.186   5.956   5.636  1.2899 -0.4047  1.8167
   38MOL   H19323947   4.463   5.993   5.600  0.6252 -1.1114 -0.5784
   38MOL   C19423948   4.399   5.987   5.788 -0.7560 -0.0090 -0.1055
   38MOL   O19523949   4.313   5.966   5.869 -0.0292 -0.2698  0.5585
   38MOL   C19623950   4.533   6.047   5.832 -0.4545 -0.7832 -0.5866
   38MOL   C19723951   4.532   6.081   5.983 -0.5498  0.3895  0.2868
   38MOL   C19823952   4.671   6.115   6.037  0.3058  0.3279 -0.0610
   38MOL   C19923953   4.681   6.142   6.188  0.1012 -0.2687  0.0595
   38MOL   C20023954   4.628   6.277   6.225 -0.0924  0.3319 -0.3719
   38MOL   O20123955   4.524   6.329   6.180  0.1618  0.0807 -0.0689
   38MOL   N20223956   4.710   6.337   6.312  0.2729 -0.3840  0.2874
   38MOL   C20323957   4.686   6.471   6.377  0.9904 -0.2625 -0.1002
   38MOL   C20423958   4.765   6.579   6.315 -0.1226 -0.2112 -0.3049
   38MOL   C20523959   4.708   6.717   6.346  0.0973 -0.2499  0.2096
   38MOL   C20623960   4.748   6.760   6.488  0.0088  0.4390  0.3110
   38MOL   N20723961   4.753   6.905   6.510  0.3670  0.3355 -0.2436
   38MOL   H20823962   4.616   5.979   5.812  0.5142  0.0710  0.4964
   38MOL   H20923963   4.546   6.133   5.767 -1.6945 -0.3531 -0.2802
   38MOL   H21023964   4.460   6.159   6.005 -0.1572  0.6226  0.7722
   38MOL   H21123965   4.501   5.988   6.030 -1.1299 -0.2995 -1.4128
   38MOL   H21223966   4.690   6.196   5.967 -0.7390  0.8293  0.2360
   38MOL   H21323967   4.742   6.034   6.019  0.8567  0.7492  0.2215
   38MOL   H21423968   4.783   6.113   6.210  0.0226  0.1019  0.9360
   38MOL   H21523969   4.619   6.071   6.244  1.6414 -1.9636 -0.3633
   38MOL   H21623970   4.800   6.294   6.331 -0.2756 -1.4020  0.6348
   38MOL   H21723971   4.704   6.461   6.484  0.5691  0.1416  0.0124
   38MOL   H21823972   4.581   6.501   6.374  0.8358 -0.8593 -0.7231
   38MOL   H21923973   4.872   6.581   6.336  0.2532 -1.0257 -2.0248
   38MOL   H22023974   4.757   6.568   6.207  1.6699  0.0683 -0.4912
   38MOL   H22123975   4.601   6.705   6.326  0.0948 -1.2175  0.7509
   38MOL   H22223976   4.757   6.781   6.274  1.4715 -0.9061  0.5478
   38MOL   H22323977   4.845   6.720   6.518 -1.4676 -1.1596  3.1874
   38MOL   H22423978   4.675   6.719   6.558 -2.3547 -0.5676 -2.6138
   38MOL   H22523979   4.674   6.957   6.473  0.0976  0.5497  0.6276
   38MOL   C22623980   4.824   6.968   6.599 -0.6554  0.2192 -0.2879
   38MOL   O22723981   4.928   6.911   6.650  0.7851  0.0547  0.1681
   38MOL   C22823982   4.777   7.108   6.635  0.0204  0.0787  0.0898
   38MOL   C22923983   4.896   7.201   6.672  0.3164 -0.1083  0.4988
   38MOL   C23023984   4.988   7.237   6.551  0.4616 -0.0462 -0.5418
   38MOL   C23123985   4.929   7.285   6.415  0.4241 -0.4989 -0.4909
   38MOL   C23223986   4.849   7.416   6.423 -1.1584  0.0509  0.1505
   38MOL   O23323987   4.886   7.521   6.486  0.7436  0.5401 -0.2567
   38MOL   N23423988   4.734   7.410   6.352 -0.3203  0.1466 -0.0695
   38MOL   C23523989   4.629   7.517   6.352 -0.4027  0.2305  0.6118
   38MOL   C23623990   4.524   7.499   6.248  0.0114 -1.1969 -0.3562
   38MOL   C23723991   4.560   7.570   6.119  0.5605 -0.4765  0.2836
   38MOL   C23823992   4.474   7.539   5.997  0.0008  0.3070  0.0885
   38MOL   N23923993   4.537   7.594   5.876  0.5754  0.4880 -0.1912
   38MOL   H24023994   4.728   7.148   6.546  1.1732  0.1418 -0.5283
   38MOL   H24123995   4.700   7.091   6.711 -0.3720  0.8637 -0.1219
   38MOL   H24223996   4.843   7.288   6.712 -1.3194 -0.5636 -0.6470
   38MOL   H24323997   4.948   7.167   6.762 -0.1422 -2.7402 -0.1992
   38MOL   H24423998   5.057   7.155   6.529  2.0670  1.2939 -0.6582
   38MOL   H24523999   5.051   7.314   6.596 -1.1988  1.0478 -0.0746
   38MOL   H24624000   4.875   7.203   6.369  3.0394 -2.5181 -0.1278
   38MOL   H24724001   5.010   7.301   6.343  0.6441  1.7000  0.1906
   38MOL   H24824002   4.708   7.321   6.312 -1.8210  0.6969 -0.3549
   38MOL   H24924003   4.671   7.618   6.343  2.0813 -0.7544  0.9441
   38MOL   H25024004   4.573   7.509   6.445 -0.6205 -0.8464  0.3901
   38MOL   H25124005   4.493   7.396   6.232  1.8708 -2.0375  1.3907
   38MOL   H25224006   4.429   7.540   6.282 -0.0268 -1.4876 -0.1144
   38MOL   H25324007   4.665   7.553   6.096  0.9162  3.7475 -1.7814
   38MOL   H25424008   4.563   7.679   6.127 -1.1927 -0.2861 -1.3003
   38MOL   H25524009   4.375   7.584   6.010  0.2847  0.9641  0.0045
   38MOL   H25624010   4.461   7.432   5.985 -0.1232  0.4126 -0.7651
   38MOL   H25724011   4.614   7.538   5.840 -1.2138 -1.4870 -1.0743
   38MOL   C25824012   4.505   0.004   5.819 -0.0624  0.6652 -0.3999
   38MOL   O25924013   4.421   0.078   5.865 -0.2534 -0.3640  0.1553
   38MOL   C26024014   4.584   0.047   5.699  0.0540 -0.0987  0.0812
   38MOL   C26124015   4.491   0.107   5.595  0.3467  0.1015  0.3597
   38MOL   C26224016   4.550   0.151   5.462 -0.2666 -0.2782  0.1399
   38MOL   C26324017   4.443   0.208   5.367 -0.9886  0.2953 -0.4008
   38MOL   C26424018   4.368   0.096   5.290  0.7714  0.2688  0.0748
   38MOL   O26524019   4.416   7.680   5.279 -0.6469  0.4972  0.2313
   38MOL   N26624020   4.249   0.129   5.236 -0.1211 -0.3499 -0.1291
   38MOL   C26724021   4.165   0.046   5.157 -0.1882 -0.7712 -0.3698
   38MOL   C26824022   4.194   0.048   5.007  0.0420 -0.7695 -0.1298
   38MOL   C26924023   4.098   7.667   4.917 -0.0954 -0.7147  0.9387
   38MOL   C27024024   4.158   7.631   4.785 -0.0444  0.0268 -0.3664
   38MOL   N27124025   4.269   7.547   4.807  0.5951  0.8042  0.0195
   38MOL   H27224026   4.663   0.119   5.724 -0.0086  0.3395 -0.9836
   38MOL   H27324027   4.625   7.655   5.663 -2.5642 -0.8643 -1.0000
   38MOL   H27424028   4.413   0.032   5.578  1.9894 -1.0736 -2.3294
   38MOL   H27524029   4.458   0.200   5.641 -0.1931  0.7773 -1.3573
   38MOL   H27624030   4.607   0.068   5.421  1.7439  0.9469  0.3887
   38MOL   H27724031   4.622   0.231   5.480  1.1732 -1.1942 -1.4961
   38MOL   H27824032   4.482   0.273   5.289 -0.7894 -0.6936 -1.1286
   38MOL   H27924033   4.372   0.278   5.411 -0.6394 -1.1004  2.5372
   38MOL   H28024034   4.215   0.221   5.258  1.3903  0.8656 -2.5622
   38MOL   H28124035   4.066   0.088   5.173  0.2045 -0.5843  1.7374
   38MOL   H28224036   4.175   7.645   5.195 -0.2172 -0.2423  1.0592
   38MOL   H28324037   4.179   0.152   4.976 -0.7164 -1.1263 -0.9710
   38MOL   H28424038   4.297   0.016   4.996  0.2499 -0.4651  0.8753
   38MOL   H28524039   4.004   0.015   4.895 -0.2796 -2.1126 -1.6593
   38MOL   H28624040   4.078   7.580   4.980 -2.8127 -0.6279  0.2714
   38MOL   H28724041   4.180   0.018   4.726 -1.5552 -0.1879 -1.2573
   38MOL   H28824042   4.088   7.572   4.727  0.3078  0.0050 -0.7749
   38MOL   H28924043   4.359   7.584   4.830  0.9622 -0.0304 -0.0407
   38MOL   C29024044   4.266   7.415   4.813  0.4997 -0.1226  0.4997
   38MOL   O29124045   4.162   7.355   4.773 -0.2355 -0.2273  0.4331
   38MOL   C29224046   4.386   7.348   4.872 -0.3222 -0.1744 -0.9775
   38MOL   C29324047   4.366   7.259   4.990  0.0609 -0.3416  0.0383
   38MOL   C29424048   4.279   7.141   4.968 -0.3467  0.0440 -0.0709
   38MOL   C29524049   4.301   7.065   4.843  0.0960 -0.0181  0.5988
   38MOL   C29624050   4.433   6.989   4.845 -1.0196  0.1334 -0.0854
   38MOL   O29724051   4.444   6.892   4.921 -0.6907 -0.2724  0.1980
   38MOL   N29824052   4.529   7.038   4.765 -0.2408 -0.5444 -0.1691
   38MOL   C29924053   4.664   6.990   4.754 -0.4042  0.0959  0.7898
   38MOL   C30024054   4.686   6.941   4.613  0.1043  0.4542  0.2024
   38MOL   C30124055   4.815   6.866   4.593 -0.1499  0.1828  0.1659
   38MOL   C30224056   4.808   6.775   4.465 -0.2908 -0.0257  0.0355
   38MOL   N30324057   4.938   6.716   4.433 -0.1909 -0.1528 -0.2401
   38MOL   H30424058   4.430   7.284   4.795 -0.2845 -1.9921  0.5404
   38MOL   H30524059   4.460   7.425   4.897 -0.7605  0.4068 -1.4555
   38MOL   H30624060   4.461   7.217   5.025  0.5075  0.9621  0.3983
   38MOL   H30724061   4.331   7.323   5.071  1.4673  1.3621 -0.6717
   38MOL   H30824062   4.174   7.170   4.960 -0.4827 -0.2866  0.4633
   38MOL   H30924063   4.282   7.077   5.056 -1.2695 -1.8312 -1.3689
   38MOL   H31024064   4.287   7.130   4.757  1.2342 -0.2547  0.2190
   38MOL   H31124065   4.224   6.988   4.833  0.1254 -0.0575  0.6680
   38MOL   H31224066   4.503   7.105   4.694  1.4575  1.7931  1.3247
   38MOL   H31324067   4.683   6.910   4.826  0.3156  0.2991  0.8290
   38MOL   H31424068   4.739   7.065   4.776  1.4466 -0.9008 -1.9482
   38MOL   H31524069   4.610   6.871   4.578  0.3975  1.0516 -1.6841
   38MOL   H31624070   4.681   7.015   4.533 -0.4605  1.7828  1.4264
   38MOL   H31724071   4.853   6.815   4.682  1.9308 -0.0195 -0.8012
   38MOL   H31824072   4.890   6.945   4.585 -1.2132  1.0434 -1.6493
   38MOL   H31924073   4.776   6.817   4.369  1.5993  1.3147 -0.0440
   38MOL   H32024074   4.732   6.697   4.466  1.9580 -2.2543  0.7226
   38MOL   H32124075   5.007   6.773   4.386 -0.3378 -0.5557 -0.9531
   38MOL   C32224076   4.970   6.589   4.462  0.3193 -0.2638 -0.0708
   38MOL   O32324077   4.904   6.506   4.518 -0.4024 -0.0669  0.1117
   38MOL   C32424078   5.112   6.547   4.424  1.1647 -0.2794 -0.8100
   38MOL   C32524079   5.193   6.523   4.552 -0.4022  0.2099 -0.5911
   38MOL   C32624080   5.338   6.562   4.564  0.4431 -0.3316  0.2363
   38MOL   C32724081   5.415   6.505   4.449  0.2035 -0.2886  0.4639
   38MOL   C32824082   5.565   6.526   4.468  0.6648  0.0362 -0.3532
   38MOL   O32924083   5.614   6.634   4.441  0.2094  0.1539  0.4404
   38MOL   N33024084   5.637   6.425   4.518  0.5279  0.0796  0.1815
   38MOL   C33124085   5.776   6.407   4.515 -0.6287  0.8585  0.3158
   38MOL   C33224086   5.812   6.388   4.371  0.7716  0.2978  0.2062
   38MOL   C33324087   5.953   6.353   4.346 -0.1144  0.8284  0.1115
   38MOL   C33424088   5.981   6.324   4.199  0.3532  0.0796  0.6277
   38MOL   N33524089   6.122   6.301   4.180 -0.5254 -0.1149 -0.0463
   38MOL   H33624090   5.095   6.454   4.370  1.6063 -0.7344 -0.1751
   38MOL   H33724091   5.167   6.616   4.360 -0.7534  3.2167  1.1790
   38MOL   H33824092   5.140   6.568   4.636  0.7632  0.4481  0.0299
   38MOL   H33924093   5.190   6.419   4.584  4.4362  0.0345 -0.2937
   38MOL   H34024094   5.374   6.520   4.658  1.6022  1.7059  0.7177
   38MOL   H34124095   5.341   6.669   4.583  0.0213 -0.5210  1.4197
   38MOL   H34224096   5.387   6.543   4.351  0.3430  0.6050  0.7698
   38MOL   H34324097   5.404   6.397   4.441 -0.2681 -0.4550  2.8727
   38MOL   H34424098   5.588   6.345   4.555  2.4980 -0.9957  0.5361
   38MOL   H34524099   5.797   6.318   4.574  3.0117  1.3543 -0.1455
   38MOL   H34624100   5.828   6.491   4.561 -1.0642  1.5411 -0.4267
   38MOL   H34724101   5.764   6.298   4.332 -0.5951  0.5906  1.1868
   38MOL   H34824102   5.783   6.469   4.305 -0.2818 -0.4738 -0.2997
   38MOL   H34924103   5.972   6.262   4.402 -1.2581  0.8197  0.4733
   38MOL   H35024104   6.029   6.424   4.378  3.1983 -0.6379 -3.9313
   38MOL   H35124105   5.967   6.405   4.127  1.3250 -1.2807 -1.1369
   38MOL   H35224106   5.924   6.240   4.159  2.0070 -1.0225  0.5318
   38MOL   H35324107   6.162   6.371   4.120  0.7658 -0.8403 -0.0439
   38MOL   C35424108   6.183   6.192   4.214 -0.3504  0.2090 -0.3203
   38MOL   O35524109   6.122   6.095   4.258  0.3301 -0.1229 -0.4374
   38MOL   C35624110   6.334   6.196   4.197  0.2718 -0.5475  0.0752
   38MOL   C35724111   6.405   6.154   4.321 -0.6885  0.0660  0.6179
   38MOL   C35824112   6.552   6.138   4.320  0.2308 -0.3573  0.0779
   38MOL   C35924113   6.601   6.027   4.219 -0.2926 -0.6372  0.1795
   38MOL   C36024114   6.566   5.885   4.248 -0.4686  0.2610 -0.0576
   38MOL   O36124115   6.623   5.823   4.344  0.2585  0.2359  0.6608
   38MOL   N36224116   6.480   5.829   4.165  0.6241  0.4478 -0.1483
   38MOL   C36324117   6.435   5.691   4.184  0.3791 -0.3345 -0.1988
   38MOL   C36424118   6.315   5.663   4.095  0.5647 -0.7237 -0.9392
   38MOL   C36524119   6.192   5.746   4.119  0.1245 -0.1204  0.4594
   38MOL   C36624120   6.129   5.730   4.259 -0.0433  0.2150  0.0959
   38MOL   N36724121   6.028   5.829   4.292 -0.2150 -0.3530  0.2998
   38MOL   H36824122   6.357   6.120   4.122  0.0452 -0.3859 -0.1601
   38MOL   H36924123   6.362   6.298   4.171 -2.3356  0.7125  1.9780
   38MOL   H37024124   6.392   6.241   4.386  2.4643 -0.4369  1.9906
   38MOL   H37124125   6.361   6.063   4.363 -0.3989 -0.2493  0.2308
   38MOL   H37224126   6.589   6.119   4.420  1.4559  2.3533  0.1766
   38MOL   H37324127   6.587   6.238   4.298 -0.1925 -0.0198  0.9159
   38MOL   H37424128   6.710   6.028   4.219 -0.2959  1.0643 -1.8821
   38MOL   H37524129   6.577   6.042   4.114  1.8087  0.0786 -0.2178
   38MOL   H37624130   6.462   5.883   4.082 -1.0063  2.6074  1.5359
   38MOL   H37724131   6.427   5.673   4.291 -2.1539 -2.8391 -0.7612
   38MOL   H37824132   6.515   5.620   4.162  0.3857 -0.2242 -0.5417
   38MOL   H37924133   6.343   5.674   3.990  0.9335  0.8184 -0.6843
   38MOL   H38024134   6.288   5.557   4.099 -2.1732 -0.1077 -2.1877
   38MOL   H38124135   6.118   5.723   4.042  0.3176 -1.2293  0.5907
   38MOL   H38224136   6.212   5.852   4.107 -2.5715  0.2624 -1.0413
   38MOL   H38324137   6.217   5.747   4.321 -0.2068  1.0713  0.0847
   38MOL   H38424138   6.094   5.626   4.260  0.5525 -0.0148 -1.1482
   38MOL   H38524139   6.055   5.921   4.322  3.4279 -1.7391  1.4910
   38MOL   C38624140   5.897   5.812   4.290 -0.3222 -0.3058 -0.0248
   38MOL   O38724141   5.842   5.709   4.258 -0.5212 -0.0518  0.4206
   38MOL   C38824142   5.824   5.932   4.352  0.1895 -0.2394 -0.0516
   38MOL   C38924143   5.696   5.893   4.422 -0.6735 -0.4597  0.7641
   38MOL   C39024144   5.664   6.010   4.519 -0.0195  0.0455 -0.4583
   38MOL   C39124145   5.524   5.986   4.575  0.0535  0.0044  0.1539
   38MOL   C39224146   5.468   6.118   4.644  0.3081  0.3534  0.4615
   38MOL   O39324147   5.442   6.210   4.571 -0.8128  0.6540  0.5121
   38MOL   N39424148   5.452   6.120   4.776  0.4058 -0.0655 -0.3714
   38MOL   C39524149   5.393   6.222   4.854 -0.0032 -0.2306  0.4514
   38MOL   C39624150   5.235   6.214   4.838 -0.1625  0.1523  0.1346
   38MOL   C39724151   5.159   6.337   4.895 -0.2375 -0.0793  0.1138
   38MOL   C39824152   5.013   6.351   4.850  0.4484  0.7126 -0.2810
   38MOL   N39924153   4.933   6.250   4.901  0.4275 -0.2656  0.1537
   38MOL   H40024154   5.885   5.999   4.413 -0.8303 -1.4343  2.3779
   38MOL   H40124155   5.803   5.999   4.269 -0.2343 -0.3361 -0.0242
   38MOL   H40224156   5.610   5.887   4.355 -1.8064 -0.0913  2.1625
   38MOL   H40324157   5.716   5.807   4.484  0.2613 -1.8074 -1.3473
   38MOL   H40424158   5.669   6.106   4.467  1.2017 -0.8556 -2.0579
   38MOL   H40524159   5.727   6.018   4.607 -1.9594  0.1483  0.9703
   38MOL   H40624160   5.529   5.895   4.634 -0.7142 -0.6322 -0.7414
   38MOL   H40724161   5.446   5.966   4.501 -0.4873  1.4525  0.3136
   38MOL   H40824162   5.502   6.042   4.815  0.3763  0.4557  0.7130
   38MOL   H40924163   5.433   6.317   4.819  0.6200 -0.0032  1.7345
   38MOL   H41024164   5.428   6.221   4.957  1.7449 -2.7464 -0.1280
   38MOL   H41124165   5.206   6.222   4.733 -1.9724  1.8718  0.7199
   38MOL   H41224166   5.200   6.114   4.866 -1.5241  0.4445 -0.4472
   38MOL   H41324167   5.218   6.427   4.880 -0.4360  0.1884  0.8890
   38MOL   H41424168   5.167   6.319   5.002 -2.2187 -2.7198 -0.1171
   38MOL   H41524169   5.008   6.345   4.741 -0.9814  2.2288 -0.3070
   38MOL   H41624170   4.961   6.444   4.868 -0.3023  0.3990 -0.8231
   38MOL   H41724171   4.915   6.179   4.831 -1.0306  2.5190 -2.4216
   38MOL   C41824172   4.882   6.249   5.021  0.2318 -0.0233 -0.1787
   38MOL   O41924173   4.901   6.340   5.104 -0.1525 -0.1957 -0.4286
   38MOL   C42024174   4.788   6.131   5.061  0.2973  0.5600  1.0823
   38MOL   C42124175   4.767   6.110   5.210 -0.1637  1.1541  0.3108
   38MOL   C42224176   4.649   6.189   5.276  0.5215 -0.2079  0.0585
   38MOL   C42324177   4.673   6.229   5.423 -1.0096  0.8462  0.4854
   38MOL   C42424178   4.706   6.123   5.525  0.6063 -0.5776  0.3914
   38MOL   O42524179   4.624   6.030   5.535  0.0259  0.5122 -0.5272
   38MOL   N42624180   4.810   6.138   5.607 -0.1928 -0.2530  0.0805
   38MOL   C42724181   4.868   6.027   5.681 -0.3655 -0.3394 -0.7441
   38MOL   C42824182   5.008   5.991   5.637 -0.4840 -0.0684  0.3772
   38MOL   C42924183   5.021   5.948   5.492 -0.5251  0.2066 -0.2472
   38MOL   C43024184   4.902   5.851   5.449 -0.3502 -0.0717  0.1155
   38MOL   N43124185   4.903   5.816   5.311  0.2379 -0.0808 -0.2158
   38MOL   H43224186   4.690   6.153   5.018  0.3417  0.2372  0.8113
   38MOL   H43324187   4.814   6.036   5.013 -1.2232  0.3298  0.6798
   38MOL   H43424188   4.738   6.005   5.220  0.4788  0.8094 -1.2953
   38MOL   H43524189   4.860   6.109   5.266  0.4491 -0.0546 -0.7168
   38MOL   H43624190   4.549   6.148   5.263 -0.1285  0.7926  1.6961
   38MOL   H43724191   4.650   6.287   5.229  1.8253 -0.8539 -1.2975
   38MOL   H43824192   4.596   6.302   5.449 -0.3537  1.0663  1.8533
   38MOL   H43924193   4.768   6.284   5.420 -0.2919 -0.4100 -0.2968
   38MOL   H44024194   4.866   6.222   5.595 -0.7334 -0.1004 -1.3418
   38MOL   H44124195   4.806   5.938   5.696  0.7208 -0.6760  2.0599
   38MOL   H44224196   4.876   6.059   5.784 -1.2628  0.9001 -1.0514
   38MOL   H44324197   5.085   6.066   5.658 -1.3515  0.4713  1.6971
   38MOL   H44424198   5.047   5.908   5.695  1.5703  0.1610 -0.6147
   38MOL   H44524199   5.118   5.902   5.471  0.2820  2.2468 -1.1193
   38MOL   H44624200   5.011   6.033   5.424 -0.1319  0.9605  0.6301
   38MOL   H44724201   4.798   5.875   5.471 -0.5774 -2.4739  1.8145
   38MOL   H44824202   4.923   5.759   5.503  1.5099  0.0830 -0.2889
   38MOL   H44924203   4.963   5.868   5.248 -1.8049 -0.0607 -2.2088
   38MOL   C45024204   4.830   5.721   5.252  0.2721  0.0868  0.2688
   38MOL   O45124205   4.764   5.634   5.320 -0.4615  0.2590 -0.4009
   38MOL   C45224206   4.831   5.721   5.098  0.3749  0.3784  0.4115
   38MOL   C45324207   4.702   5.708   5.034 -0.0745  0.8928  0.2010
   38MOL   C45424208   4.716   5.664   4.888 -0.2577  0.2437 -0.2029
   38MOL   C45524209   4.758   5.519   4.876 -0.2153 -0.1692  0.1492
   38MOL   C45624210   4.678   5.422   4.956  0.1618  0.0529  0.1468
   38MOL   O45724211   4.556   5.402   4.929  0.5532 -0.2288  0.9069
   38MOL   N45824212   4.738   5.357   5.056 -0.0858 -0.1317 -0.3556
   38MOL   C45924213   4.675   5.256   5.137 -0.3685 -0.4315 -0.5200
   38MOL   C46024214   4.631   5.129   5.059  0.0900 -0.8461 -0.1864
   38MOL   C46124215   4.582   5.013   5.160 -0.1222 -0.0963 -0.2172
   38MOL   C46224216   4.523   4.896   5.076  0.1748 -0.1236 -0.2378
   38MOL   N46324217   4.387   4.930   5.045 -0.2084  0.4348 -0.0437
   38MOL   H46424218   4.868   5.814   5.056  0.9153 -0.1517 -0.2973
   38MOL   H46524219   4.911   5.650   5.075  0.7692  1.6546 -2.2763
   38MOL   H46624220   4.621   5.657   5.086  1.8243 -1.9090  0.4898
   38MOL   H46724221   4.655   5.806   5.024 -2.6928 -0.3098  0.4044
   38MOL   H46824222   4.791   5.732   4.848  2.1766 -2.7632 -0.8853
   38MOL   H46924223   4.629   5.679   4.824 -0.5072 -1.1276 -0.2003
   38MOL   H47024224   4.858   5.511   4.919  0.3296 -3.1318 -1.5200
   38MOL   H47124225   4.758   5.493   4.770  1.6256  2.1854 -0.4768
   38MOL   H47224226   4.830   5.385   5.087 -0.1253  1.8474 -1.9012
   38MOL   H47324227   4.595   5.293   5.200  0.8348 -1.4235  1.6921
   38MOL   H47424228   4.746   5.227   5.215 -0.9106 -1.5981 -0.4448
   38MOL   H47524229   4.542   5.139   4.997  0.3637  0.4047 -0.3891
   38MOL   H47624230   4.712   5.089   4.998  0.1870 -0.8229 -0.0726
   38MOL   H47724231   4.525   5.048   5.246 -0.0781  0.0463 -0.2457
   38MOL   H47824232   4.674   4.977   5.207 -0.2727  1.8435  1.6585
   38MOL   H47924233   4.528   4.800   5.126 -0.1240  0.7454  1.5136
   38MOL   H48024234   4.582   4.882   4.985  0.0583 -1.2181 -0.1427
   38MOL   H48124235   4.365   4.967   4.954  0.2039 -2.7210 -1.4946
   38MOL   C48224236   4.282   4.892   5.118  0.3983  0.3116  0.0300
   38MOL   O48324237   4.294   4.820   5.221  0.1813  0.2863  0.5283
   38MOL   C48424238   4.141   4.925   5.060 -0.2125 -0.4842  0.1005
   38MOL   C48524239   4.043   4.978   5.166 -0.2605 -0.1121  0.6866
   38MOL   C48624240   3.904   5.012   5.112 -0.4037  0.7542  0.8733
   38MOL   C48724241   3.908   5.145   5.037 -0.4195 -0.3084 -0.2498
   38MOL   C48824242   3.774   5.196   4.983 -0.1488  0.8434 -0.1572
   38MOL   O48924243   3.679   5.122   4.955 -0.0428  0.1355  1.1759
   38MOL   N49024244   3.768   5.328   4.960  0.4547  0.4265 -0.6730
   38MOL   C49124245   3.659   5.397   4.911  0.4389 -0.6512  0.0788
   38MOL   C49224246   3.710   5.494   4.803 -0.5985  0.4667 -1.2683
   38MOL   C49324247   3.749   5.427   4.672 -0.3938 -0.4536 -0.1014
   38MOL   C49424248   3.800   5.525   4.570 -0.9323  0.4999  0.0865
   38MOL   N49524249   3.827   5.466   4.438  0.2883  0.3043 -0.2495
   38MOL   H49624250   4.147   4.992   4.974 -0.1184  0.8830  1.1528
   38MOL   H49724251   4.098   4.830   5.028 -0.2758  0.4573 -2.7222
   38MOL   H49824252   4.030   4.916   5.255  0.6578 -0.5590  0.5176
   38MOL   H49924253   4.076   5.078   5.193  0.5127 -0.3336  0.5608
   38MOL   H50024254   3.837   5.027   5.197 -0.0564 -0.1168  1.3030
   38MOL   H50124255   3.864   4.933   5.048  3.7691  0.7179 -1.9054
   38MOL   H50224256   3.986   5.147   4.962  0.4598 -1.5420  0.6114
   38MOL   H50324257   3.935   5.221   5.110 -0.4697 -0.0935 -0.4544
   38MOL   H50424258   3.842   5.383   5.000  0.6150 -0.5071  0.3363
   38MOL   H50524259   3.611   5.444   4.996  0.3902  1.2795 -0.9872
   38MOL   H50624260   3.589   5.330   4.859  0.4041 -1.1124  0.7216
   38MOL   H50724261   3.633   5.571   4.797 -0.8200  0.2622 -1.1004
   38MOL   H50824262   3.796   5.549   4.841 -1.0361 -0.8225  1.7027
   38MOL   H50924263   3.660   5.383   4.626 -1.3275  1.2253  0.0850
   38MOL   H51024264   3.829   5.354   4.687  1.7305  1.4351 -1.9224
   38MOL   H51124265   3.890   5.576   4.603 -2.6034  3.1897  0.6653
   38MOL   H51224266   3.734   5.612   4.569  0.7479  1.8014  0.4086
   38MOL   H51324267   3.740   5.461   4.388 -0.8315 -0.5826  1.7241
   38MOL   C51424268   3.942   5.428   4.380 -0.6320  0.3632 -0.1575
   38MOL   O51524269   4.052   5.469   4.422 -0.3553 -0.5677  0.3974
   38MOL   C51624270   3.932   5.350   4.251  0.7686 -0.9411 -0.2503
   38MOL   C51724271   4.003   5.215   4.261 -0.5633 -0.2701  0.9351
   38MOL   C51824272   4.008   5.145   4.117 -0.5792  0.7323  0.6023
   38MOL   C51924273   3.871   5.080   4.074 -0.3890  0.0117 -0.8473
   38MOL   C52024274   3.842   4.934   4.105  0.4640 -1.0973 -0.5747
   38MOL   O52124275   3.882   4.879   4.207 -0.4285  0.5215  0.2545
   38MOL   N52224276   3.777   4.866   4.015 -0.5774 -0.2738  0.9851
   38MOL   C52324277   3.717   4.732   4.034 -0.2836  0.7926  0.6863
   38MOL   C52424278   3.678   4.676   3.895 -0.2536  0.4762  0.7150
   38MOL   C52524279   3.570   4.562   3.894 -0.4762 -0.3348 -0.0919
   38MOL   C52624280   3.424   4.606   3.913 -0.1921  0.7779  0.6314
   38MOL   N52724281   3.346   4.485   3.923  0.1905  0.1057 -0.0098
   38MOL   H52824282   3.829   5.336   4.217  0.2024  2.0551  0.0844
   38MOL   H52924283   3.971   5.420   4.176 -0.7818  1.1313  0.8283
   38MOL   H53024284   4.107   5.222   4.293 -0.8796  1.6256  1.6297
   38MOL   H53124285   3.960   5.144   4.331  1.4820 -1.9348  0.5384
   38MOL   H53224286   4.080   5.064   4.116 -1.3100  0.0524  1.7423
   38MOL   H53324287   4.034   5.207   4.031  2.1547 -0.7105  0.3576
   38MOL   H53424288   3.871   5.099   3.967  0.5177  0.5936 -0.7518
   38MOL   H53524289   3.792   5.146   4.111  0.8800 -0.2579  2.5539
   38MOL   H53624290   3.757   4.916   3.929 -2.2049 -0.9251  0.9777
   38MOL   H53724291   3.633   4.736   4.104  1.0118 -0.1279  2.3383
   38MOL   H53824292   3.791   4.662   4.072  1.1538  1.2271 -1.2494
   38MOL   H53924293   3.643   4.754   3.827  0.7717  0.1555 -0.1987
   38MOL   H54024294   3.766   4.635   3.844 -0.6441 -2.1313  2.0292
   38MOL   H54124295   3.594   4.500   3.981 -1.5618 -1.9469 -0.9217
   38MOL   H54224296   3.571   4.489   3.814  3.3450 -0.1665 -0.3010
   38MOL   H54324297   3.395   4.660   3.823 -0.2562  2.7241  1.7878
   38MOL   H54424298   3.401   4.673   3.996  1.6144  0.7042  1.2283
   38MOL   H54524299   3.387   4.393   3.909  0.0497  0.2654 -1.5008
   38MOL   C54624300   3.208   4.477   3.911 -0.2369 -0.1302  0.2300
   38MOL   O54724301   3.137   4.577   3.911  0.2168 -0.3054 -0.3871
   38MOL   C54824302   3.143   4.340   3.924 -0.7076  0.0882  0.0730
   38MOL   C54924303   3.036   4.306   3.821  0.2793 -0.3365  0.6822
   38MOL   C55024304   3.009   4.153   3.802  0.5090  0.0311  0.1782
   38MOL   C55124305   2.915   4.117   3.692  0.1218 -0.5036  0.1866
   38MOL   C55224306   2.774   4.179   3.706 -0.1803 -0.0350  0.4352
   38MOL   O55324307   2.748   4.233   3.811 -0.3837 -0.1757  0.6661
   38MOL   N55424308   2.694   4.177   3.599  0.3418 -0.3297  0.2897
   38MOL   C55524309   2.561   4.231   3.602  0.4565 -0.3820 -0.4638
   38MOL   C55624310   2.500   4.256   3.459  0.7170 -0.3983  0.2377
   38MOL   C55724311   2.396   4.365   3.470  0.2362  0.3656 -0.6144
   38MOL   C55824312   2.298   4.375   3.349 -0.0290  0.0145 -0.2593
   38MOL   N55924313   2.196   4.472   3.377  0.2305 -0.2823  0.1078
   38MOL   H56024314   3.218   4.267   3.954 -1.2393  0.3979  2.2623
   38MOL   H56124315   3.100   4.351   4.024  2.8554  1.6578  1.5206
   38MOL   H56224316   2.946   4.351   3.864 -0.1406 -1.9784  1.5773
   38MOL   H56324317   3.060   4.336   3.719  1.6163  0.4955  1.2324
   38MOL   H56424318   2.975   4.115   3.898  1.7859 -0.9168  0.2747
   38MOL   H56524319   3.104   4.104   3.782  0.3461  0.8108 -2.7593
   38MOL   H56624320   2.901   4.012   3.669 -0.6411 -0.0085 -1.7287
   38MOL   H56724321   2.963   4.149   3.599 -2.6630  1.5216 -0.6491
   38MOL   H56824322   2.728   4.128   3.517 -2.0953 -1.1634 -0.2689
   38MOL   H56924323   2.566   4.332   3.643 -1.2826  0.4379 -2.1568
   38MOL   H57024324   2.507   4.161   3.665 -1.0692  0.7628 -0.4638
   38MOL   H57124325   2.578   4.278   3.386  1.0367  0.3426  0.8017
   38MOL   H57224326   2.448   4.166   3.426 -0.6754  1.0425 -1.5335
   38MOL   H57324327   2.449   4.457   3.492  0.5951 -0.3943  1.9181
   38MOL   H57424328   2.344   4.339   3.562  3.2745  1.5849  1.5316
   38MOL   H57524329   2.267   4.275   3.316 -0.8220 -0.1201  0.8384
   38MOL   H57624330   2.362   4.406   3.267 -0.1713  0.2055 -0.2987
   38MOL   H57724331   2.217   4.560   3.421 -0.7807  0.6325 -1.2037
   38MOL   C57824332   2.070   4.451   3.356  0.4256 -0.4044 -0.8274
   38MOL   O57924333   2.030   4.349   3.315  0.0802  0.0636  0.1156
   38MOL   C58024334   1.978   4.577   3.381 -0.1546  0.2120 -0.6234
   38MOL   C58124335   1.825   4.541   3.409  0.2789 -0.1141 -0.2984
   38MOL   C58224336   1.809   4.490   3.557  0.0079  0.3209  0.0033
   38MOL   C58324337   1.660   4.474   3.599  0.4506  0.2318  0.4068
   38MOL   C58424338   1.585   4.369   3.513 -0.9917  1.2911 -0.5162
   38MOL   O58524339   1.475   4.396   3.466 -0.2298 -0.0067 -0.0815
   38MOL   N58624340   1.637   4.245   3.524 -0.2387  0.0258 -0.3397
   38MOL   C58724341   1.581   4.125   3.463 -0.1810  0.4022 -1.0783
   38MOL   C58824342   1.641   4.094   3.323  0.0518  0.4840  0.4252
   38MOL   C58924343   1.560   3.994   3.241  0.5311 -0.2292  0.1375
   38MOL   C59024344   1.579   3.994   3.090 -0.1550 -0.3035  0.4773
   38MOL   N59124345   1.527   3.878   3.017 -0.2210  0.2811  0.2846
   38MOL   H59224346   2.018   4.658   3.442  0.7905 -2.0357  1.8805
   38MOL   H59324347   1.978   4.625   3.283  0.8846  0.4005 -0.5416
   38MOL   H59424348   1.771   4.635   3.404  0.8789  0.2042 -0.7736
   38MOL   H59524349   1.773   4.474   3.340  0.1659 -1.3826  0.9818
   38MOL   H59624350   1.860   4.564   3.618 -0.9718  0.2069  0.9787
   38MOL   H59724351   1.860   4.396   3.580 -1.0023  0.2494  2.0294
   38MOL   H59824352   1.608   4.569   3.582 -0.7777 -0.8581 -2.1919
   38MOL   H59924353   1.656   4.444   3.704  0.6764 -0.6640  0.1630
   38MOL   H60024354   1.719   4.227   3.579  0.4454 -0.3948 -1.4718
   38MOL   H60124355   1.473   4.137   3.462 -0.1767  1.3855  2.9533
   38MOL   H60224356   1.606   4.044   3.531 -2.6301  2.6908  2.7356
   38MOL   H60324357   1.646   4.183   3.260 -0.2937 -0.0070 -0.3001
   38MOL   H60424358   1.749   4.075   3.328  0.6077  3.3790  0.2481
   38MOL   H60524359   1.452   4.009   3.247  0.3881 -1.3021  0.5461
   38MOL   H60624360   1.590   3.891   3.262  0.0931 -0.5454 -0.7794
   38MOL   H60724361   1.684   4.020   3.072 -0.6038  1.8155  0.8129
   38MOL   H60824362   1.525   4.083   3.058  0.3108 -0.3075 -0.3441
   38MOL   H60924363   1.436   3.894   2.975 -0.3208 -0.5315  0.1772
   38MOL   C61024364   1.585   3.759   3.005 -0.1581  0.8548  0.7643
   38MOL   O61124365   1.689   3.728   3.065 -0.1086 -0.0191 -0.0617
   38MOL   C61224366   1.521   3.650   2.918  0.1404 -0.3855  0.3863
   38MOL   C61324367   1.466   3.544   3.009  0.8384 -0.0489 -0.0353
   38MOL   C61424368   1.335   3.573   3.083 -0.3605  0.2256  0.6950
   38MOL   C61524369   1.288   3.464   3.184  0.3332  0.2987  0.0794
   38MOL   C61624370   1.242   3.327   3.126  0.0608 -0.7325  0.0215
   38MOL   O61724371   1.318   3.251   3.066  0.0136 -0.8316  0.3393
   38MOL   N61824372   1.122   3.294   3.157 -0.2893 -0.2957 -0.1090
   38MOL   C61924373   1.065   3.172   3.121  0.2168 -0.0262  0.3385
   38MOL   C62024374   0.918   3.179   3.172 -0.2286 -0.5264 -0.7748
   38MOL   C62124375   0.847   3.037   3.165  0.5822  0.1268  0.2728
   38MOL   C62224376   0.705   3.047   3.229  0.0147 -0.1000  0.4658
   38MOL   N62324377   0.619   3.130   3.149  0.1628 -0.2016 -0.6311
   38MOL   H62424378   1.437   3.692   2.864  1.3690  0.2227 -1.0834
   38MOL   H62524379   1.591   3.607   2.847  0.4808 -3.3007  2.3683
   38MOL   H62624380   1.458   3.453   2.948 -1.4703  0.2519 -0.2349
   38MOL   H62724381   1.537   3.510   3.084 -0.2334  1.3181  1.6401
   38MOL   H62824382   1.261   3.604   3.008  0.8622 -1.6667 -1.3399
   38MOL   H62924383   1.348   3.664   3.141  0.5795 -0.2681  1.2633
   38MOL   H63024384   1.207   3.512   3.240 -0.5369 -0.0454 -0.8797
   38MOL   H63124385   1.373   3.440   3.248  0.8252  0.6173 -0.4535
   38MOL   H63224386   1.058   3.359   3.200  0.6191  1.5485 -1.4832
   38MOL   H63324387   1.111   3.083   3.165  1.5008 -0.4218 -1.7041
   38MOL   H63424388   1.052   3.151   3.015 -0.7204  0.9770  0.2513
   38MOL   H63524389   0.927   3.212   3.276  0.5927 -0.1495 -0.9554
   38MOL   H63624390   0.870   3.262   3.120 -2.5426 -0.4453  1.4044
   38MOL   H63724391   0.918   2.973   3.217  0.2130 -1.2632 -0.9370
   38MOL   H63824392   0.837   2.989   3.068  1.4599 -2.0865  1.2398
   38MOL   H63924393   0.728   3.086   3.328  1.0302  0.9747 -0.1804
   38MOL   H64024394   0.653   2.954   3.253  2.1768 -0.0893  5.9999
   38MOL   H64124395   0.605   3.094   3.056 -0.5182 -0.6032 -0.3744
   38MOL   H64224396   0.654   3.224   3.143  0.0516 -0.0971  0.2312
   39MOL     C124397   3.861   3.848   7.456  0.1551  0.1263  0.2796
   39MOL     O224398   3.818   3.927   7.551 -0.4810  0.3886  0.5937
   39MOL     C324399   4.004   3.856   7.390  0.8387 -0.6387 -0.7672
   39MOL     C424400   4.043   4.003   7.387  0.1068 -0.0481  0.4753
   39MOL     C524401   4.173   4.024   7.312 -0.2520 -0.0263 -0.1242
   39MOL     C624402   4.207   4.172   7.291 -0.7097 -0.3464  0.0548
   39MOL     C724403   4.286   4.242   7.404 -0.7744 -0.1613  0.4364
   39MOL     O824404   4.294   4.196   7.518  0.0646 -1.1011 -0.4691
   39MOL     N924405   4.358   4.348   7.366  0.5006 -0.7501 -0.2613
   39MOL    C1024406   4.441   4.422   7.459 -0.1260 -0.4035  0.1323
   39MOL    C1124407   4.509   4.538   7.386 -0.0976  0.5238  0.1015
   39MOL    C1224408   4.547   4.653   7.480 -0.1143 -0.5827 -0.1695
   39MOL    C1324409   4.426   4.727   7.543 -0.5831 -0.1320 -0.3443
   39MOL    N1424410   4.329   4.758   7.437  0.1375  0.5033 -0.4877
   39MOL    H1524411   4.081   3.808   7.451  1.6052  2.0130  0.4315
   39MOL    H1624412   3.999   3.811   7.291  3.3763 -0.2511 -1.1021
   39MOL    H1724413   3.967   4.064   7.338  0.8247 -1.3974 -2.4065
   39MOL    H1824414   4.054   4.039   7.490  0.7439 -0.5561  0.5914
   39MOL    H1924415   4.164   3.967   7.219 -0.1583  0.1340 -0.2315
   39MOL    H2024416   4.250   3.977   7.373 -0.5780 -0.1875  0.1639
   39MOL    H2124417   4.120   4.235   7.275 -1.5061 -2.0649 -2.6757
   39MOL    H2224418   4.275   4.164   7.205 -0.4968 -2.8544  0.4372
   39MOL    H2324419   4.371   4.372   7.268 -0.5878  1.1665  0.0364
   39MOL    H2424420   4.515   4.354   7.500 -1.1461 -0.4425  1.9506
   39MOL    H2524421   4.384   4.451   7.547  0.4250 -4.0768  1.7607
   39MOL    H2624422   4.586   4.490   7.325 -0.5084 -1.5496  1.1726
   39MOL    H2724423   4.455   4.576   7.300  0.1971 -3.1217 -1.8233
   39MOL    H2824424   4.604   4.725   7.422 -0.7854 -0.1316 -0.2618
   39MOL    H2924425   4.613   4.608   7.555 -0.5726  2.0889  1.8934
   39MOL    H3024426   4.458   4.816   7.599 -1.4073 -0.7371  1.0972
   39MOL    H3124427   4.382   4.657   7.614 -1.9585  1.1631  0.0999
   39MOL    H3224428   4.360   4.829   7.372  0.4307 -0.6235 -1.6164
   39MOL    H3324429   3.789   3.789   7.399  1.9280 -0.4211 -1.4588
   39MOL    C3424430   4.204   4.711   7.431 -0.9226 -0.1280  0.2038
   39MOL    O3524431   4.170   4.625   7.511  0.1737 -0.0698 -0.4624
   39MOL    C3624432   4.101   4.746   7.317  0.3426  0.0899  0.6124
   39MOL    C3724433   4.032   4.626   7.251  0.5063 -0.2282  0.2164
   39MOL    C3824434   4.120   4.508   7.196 -0.8347 -0.5420  0.1486
   39MOL    C3924435   4.191   4.557   7.064  0.1553 -0.1351  0.2614
   39MOL    C4024436   4.312   4.474   7.011 -0.0149 -0.4181 -0.0612
   39MOL    O4124437   4.380   4.407   7.088 -0.5392 -0.4829  0.2355
   39MOL    N4224438   4.346   4.479   6.883  0.2031 -0.3366  0.1905
   39MOL    C4324439   4.448   4.393   6.826  0.1422  0.2973  0.3664
   39MOL    C4424440   4.588   4.472   6.818 -0.6291 -0.3689  0.3075
   39MOL    C4524441   4.664   4.421   6.947 -0.1250  0.5609  0.6588
   39MOL    C4624442   4.805   4.473   6.937  1.0362  0.1236 -0.4701
   39MOL    N4724443   4.881   4.392   6.849  0.6305  0.0211  0.8532
   39MOL    H4824444   4.017   4.791   7.370 -1.2934 -0.9062 -1.0791
   39MOL    H4924445   4.140   4.819   7.246  0.0759  1.7091  2.1012
   39MOL    H5024446   3.974   4.584   7.333 -2.4864  4.4066  0.6481
   39MOL    H5124447   3.963   4.657   7.172 -1.0176 -2.8854  0.4389
   39MOL    H5224448   4.060   4.421   7.171  0.3702 -1.1482 -0.6900
   39MOL    H5324449   4.187   4.485   7.279 -2.4416  1.8026  2.1896
   39MOL    H5424450   4.224   4.661   7.073  0.1774 -0.0265 -1.0283
   39MOL    H5524451   4.114   4.553   6.987 -0.6010  1.9771  0.8783
   39MOL    H5624452   4.299   4.547   6.824 -2.4039 -1.9168  0.3570
   39MOL    H5724453   4.417   4.369   6.724  0.7461 -1.3105  0.5494
   39MOL    H5824454   4.458   4.293   6.869  0.5089 -0.4379 -1.3840
   39MOL    H5924455   4.660   4.445   6.741  0.0470  1.2787  0.3529
   39MOL    H6024456   4.578   4.580   6.816 -1.1219 -0.3355  2.9104
   39MOL    H6124457   4.669   4.313   6.955 -0.7027  0.2050 -2.7010
   39MOL    H6224458   4.605   4.451   7.033 -1.6613 -1.1696  0.2312
   39MOL    H6324459   4.853   4.484   7.034  2.0687 -0.2330 -0.9343
   39MOL    H6424460   4.803   4.572   6.890  1.2870  1.2978  1.9260
   39MOL    H6524461   4.882   4.424   6.753  0.7380 -0.2340  0.7696
   39MOL    C6624462   4.986   4.313   6.872 -0.7169 -0.2698 -0.4854
   39MOL    O6724463   5.018   4.276   6.988 -0.0133  0.0851 -0.7490
   39MOL    C6824464   5.078   4.272   6.755 -0.1237 -0.4738 -0.1662
   39MOL    C6924465   5.230   4.296   6.792  0.6937  0.2109  0.4566
   39MOL    C7024466   5.286   4.434   6.762 -0.0003  0.1350  0.8804
   39MOL    C7124467   5.426   4.457   6.803  0.4161 -0.7045  0.0329
   39MOL    C7224468   5.456   4.598   6.771 -0.7651 -0.3179  0.2163
   39MOL    O7324469   5.370   4.685   6.774  0.1930 -0.1213 -0.6676
   39MOL    N7424470   5.582   4.617   6.727 -0.1323  0.8569  0.3320
   39MOL    C7524471   5.616   4.726   6.637  0.3563 -0.1936 -0.9402
   39MOL    C7624472   5.655   4.856   6.709  0.3101  0.5396 -0.2567
   39MOL    C7724473   5.772   4.842   6.803  0.7308 -0.0759 -0.6784
   39MOL    C7824474   5.913   4.866   6.739 -0.0635  0.6316 -0.7001
   39MOL    N7924475   5.946   4.754   6.647 -0.0578  0.8212 -0.4519
   39MOL    H8024476   5.063   4.165   6.757 -2.7450 -0.1220  3.3100
   39MOL    H8124477   5.060   4.316   6.657  0.2644  2.1672  0.8792
   39MOL    H8224478   5.233   4.297   6.901 -0.0153 -0.1968  0.4870
   39MOL    H8324479   5.289   4.218   6.745 -1.5230 -1.2282 -0.0333
   39MOL    H8424480   5.212   4.506   6.798  0.6615  0.7980  0.9290
   39MOL    H8524481   5.291   4.439   6.653 -3.2912 -0.0078  0.6738
   39MOL    H8624482   5.503   4.399   6.752  1.5778  0.7055  0.1464
   39MOL    H8724483   5.434   4.430   6.908  0.1614 -2.6323 -0.4191
   39MOL    H8824484   5.653   4.545   6.730 -1.6258 -0.6190  0.8858
   39MOL    H8924485   5.546   4.762   6.561 -1.4556  0.1184  0.8253
   39MOL    H9024486   5.693   4.673   6.582  0.6146 -1.6127  0.7372
   39MOL    H9124487   5.673   4.926   6.627 -0.1806 -1.4605 -2.0976
   39MOL    H9224488   5.574   4.899   6.768 -1.5329 -2.1289 -0.7930
   39MOL    H9324489   5.761   4.747   6.855 -0.1366  0.7520  0.7046
   39MOL    H9424490   5.765   4.918   6.882 -1.6515 -1.1833  0.2164
   39MOL    H9524491   5.995   4.884   6.808  0.3556  0.7853 -1.2321
   39MOL    H9624492   5.916   4.958   6.681 -1.2206  1.4442  0.5123
   39MOL    H9724493   5.979   4.665   6.682  2.1791  1.2093 -1.5113
   39MOL    C9824494   5.940   4.762   6.514  0.6102  0.0071 -0.4180
   39MOL    O9924495   5.908   4.859   6.453  0.0071  0.5578  0.1999
   39MOL   C10024496   5.973   4.634   6.433 -0.8211 -0.4318 -0.1449
   39MOL   C10124497   6.043   4.664   6.306 -0.4838  0.3761  0.0823
   39MOL   C10224498   6.077   4.538   6.228 -0.3254 -0.3003  0.1105
   39MOL   C10324499   6.150   4.578   6.096  0.1462  0.1073 -0.1311
   39MOL   C10424500   6.168   4.455   6.008  0.1820 -0.0725  0.2342
   39MOL   O10524501   6.075   4.379   5.977 -0.6177 -0.4738 -0.5738
   39MOL   N10624502   6.294   4.436   5.973 -0.4204  0.0792 -0.4385
   39MOL   C10724503   6.341   4.308   5.918 -0.0107  0.2324 -0.4974
   39MOL   C10824504   6.490   4.311   5.886  0.2936  0.3222  0.9519
   39MOL   C10924505   6.536   4.174   5.820  0.5409 -0.5040 -0.2662
   39MOL   C11024506   6.685   4.167   5.793  0.0803 -0.3968 -0.2056
   39MOL   N11124507   6.736   4.264   5.701  0.0331  0.0512 -0.3393
   39MOL   H11224508   6.047   4.578   6.489  0.3058 -0.5814 -1.7546
   39MOL   H11324509   5.884   4.571   6.433 -1.8907  1.0281  0.4952
   39MOL   H11424510   5.988   4.737   6.247  1.6707  2.8904  1.1071
   39MOL   H11524511   6.132   4.725   6.320  0.6762 -0.8491 -1.6785
   39MOL   H11624512   5.995   4.473   6.198  0.6642 -1.6238  0.2531
   39MOL   H11724513   6.143   4.482   6.294  1.4943  2.6738  0.9147
   39MOL   H11824514   6.235   4.644   6.113 -1.4586  1.2345  4.0449
   39MOL   H11924515   6.078   4.632   6.034 -0.0178  0.7193  0.5856
   39MOL   H12024516   6.365   4.489   6.021 -1.5378  0.5316  0.7453
   39MOL   H12124517   6.281   4.297   5.828  2.1361 -1.1548 -1.8108
   39MOL   H12224518   6.325   4.231   5.993 -0.5393 -1.2138 -2.0636
   39MOL   H12324519   6.502   4.392   5.814  1.4911 -1.4300 -0.8432
   39MOL   H12424520   6.537   4.342   5.979  2.0576  1.1794 -0.2064
   39MOL   H12524521   6.469   4.165   5.735 -2.5698 -1.0596  2.1230
   39MOL   H12624522   6.503   4.085   5.875  1.7110 -0.9966 -0.3509
   39MOL   H12724523   6.704   4.068   5.750 -2.8477 -1.1926  0.2145
   39MOL   H12824524   6.750   4.184   5.878  0.1409 -0.1630 -0.2979
   39MOL   H12924525   6.678   4.343   5.677 -0.4669  0.1556  1.1364
   39MOL   C13024526   6.858   4.254   5.645 -0.4813  0.4059  0.0911
   39MOL   O13124527   6.942   4.164   5.682  0.3020 -0.5010  0.0680
   39MOL   C13224528   6.894   4.361   5.540  0.5161 -0.5272 -0.0515
   39MOL   C13324529   7.043   4.361   5.496 -0.4216 -0.2696  0.4542
   39MOL   C13424530   7.085   4.295   5.365  0.1991  0.2733 -0.0759
   39MOL   C13524531   7.231   4.325   5.334 -0.5255  0.4385 -0.0829
   39MOL   C13624532   7.285   4.254   5.213  0.6719 -0.2670  0.5310
   39MOL   O13724533   7.302   4.131   5.218 -0.4208  0.1714 -0.7796
   39MOL   N13824534   7.321   4.316   5.103 -0.4685 -0.1059 -0.4230
   39MOL   C13924535   7.382   4.261   4.982 -1.0877 -0.5809 -0.2593
   39MOL   C14024536   7.544   4.255   4.980 -0.2496  0.1736 -1.1288
   39MOL   C14124537   7.605   4.247   4.843 -0.0775  1.1144  0.8715
   39MOL   C14224538   0.059   4.235   4.840  0.5518  0.1064 -0.4158
   39MOL   N14324539   0.123   4.305   4.727 -0.0406 -0.0037  0.1161
   39MOL   H14424540   6.824   4.339   5.460 -2.1526  1.1349  1.7385
   39MOL   H14524541   6.869   4.461   5.576 -0.8903 -0.1838 -1.9461
   39MOL   H14624542   7.069   4.467   5.486 -0.0616 -0.2758  1.3474
   39MOL   H14724543   7.116   4.326   5.569  1.0970 -1.1883 -1.4527
   39MOL   H14824544   7.017   4.336   5.290  1.7259 -0.2058 -1.7596
   39MOL   H14924545   7.061   4.188   5.365  0.6280  0.1650 -1.4324
   39MOL   H15024546   7.278   4.275   5.418  0.9230  2.4719  0.3527
   39MOL   H15124547   7.247   4.433   5.327 -0.6891  0.3888 -1.4488
   39MOL   H15224548   7.304   4.415   5.110 -2.0460 -0.5383  3.4747
   39MOL   H15324549   7.339   4.312   4.896 -0.2856  0.7646  0.1274
   39MOL   H15424550   7.345   4.159   4.964  1.6953 -1.5603 -0.7154
   39MOL   H15524551   7.592   4.338   5.033  0.6673  0.2414 -2.0709
   39MOL   H15624552   7.567   4.165   5.036 -3.9967 -0.1108  0.1013
   39MOL   H15724553   7.579   4.342   4.795  2.0743  1.6966  0.7886
   39MOL   H15824554   7.561   4.169   4.781 -2.0221  1.8702  1.2467
   39MOL   H15924555   0.076   4.127   4.843  1.5214  0.3015  3.3391
   39MOL   H16024556   0.090   4.277   4.936 -1.3395  1.9617 -0.5813
   39MOL   H16124557   0.092   4.400   4.715  0.9248  0.2192 -0.6641
   39MOL   C16224558   0.215   4.258   4.645  0.0044 -1.0220 -0.0288
   39MOL   O16324559   0.246   4.140   4.642 -0.6057  0.3310  0.2053
   39MOL   C16424560   0.278   4.353   4.544  0.0608  0.1255  0.0630
   39MOL   C16524561   0.410   4.305   4.478  0.4073 -0.8492  0.5592
   39MOL   C16624562   0.437   4.345   4.331  0.4515 -0.2309  0.6628
   39MOL   C16724563   0.560   4.270   4.262  0.3669  0.4967  0.3848
   39MOL   C16824564   0.589   4.315   4.116 -0.2563  0.8227  0.5051
   39MOL   O16924565   0.558   4.242   4.023 -0.7601  0.7449 -0.5799
   39MOL   N17024566   0.654   4.427   4.100 -1.0697  0.1453 -0.0270
   39MOL   C17124567   0.712   4.479   3.977  0.0115 -1.0447 -0.5867
   39MOL   C17224568   0.815   4.383   3.908 -0.6931 -0.2550 -0.0088
   39MOL   C17324569   0.924   4.319   4.001 -0.1203 -0.0591 -0.2131
   39MOL   C17424570   1.028   4.417   4.052  0.0347  0.4019 -0.5025
   39MOL   N17524571   1.143   4.355   4.110 -0.6088 -0.0639 -0.2748
   39MOL   H17624572   0.212   4.376   4.461  2.6420  2.1654 -1.5268
   39MOL   H17724573   0.282   4.449   4.595  0.6791 -0.3935  1.0053
   39MOL   H17824574   0.492   4.352   4.534  1.0163 -0.1072 -0.9324
   39MOL   H17924575   0.427   4.198   4.467 -1.3330 -0.8634 -2.3594
   39MOL   H18024576   0.470   4.448   4.317  1.0513 -0.3343  1.3199
   39MOL   H18124577   0.345   4.320   4.278  0.8385 -1.0268  0.3674
   39MOL   H18224578   0.553   4.162   4.250  1.0001  0.6581 -1.5731
   39MOL   H18324579   0.655   4.279   4.315 -0.3867  2.6550  1.4156
   39MOL   H18424580   0.668   4.477   4.187  2.9650 -0.0983 -0.4294
   39MOL   H18524581   0.749   4.581   3.982  2.4094 -1.9137 -0.2443
   39MOL   H18624582   0.625   4.484   3.911 -0.7714 -3.5667  0.1951
   39MOL   H18724583   0.749   4.304   3.872  0.9389 -1.3682 -0.6380
   39MOL   H18824584   0.859   4.431   3.820 -0.3102 -1.4952 -0.5121
   39MOL   H18924585   0.984   4.249   3.943  1.1324  0.6404  0.2160
   39MOL   H19024586   0.886   4.249   4.076  0.9407 -0.8710 -0.4184
   39MOL   H19124587   0.969   4.481   4.118  1.4280  1.0632  0.1245
   39MOL   H19224588   1.077   4.468   3.969  0.1309 -0.8520 -1.2272
   39MOL   H19324589   1.179   4.272   4.066  2.2363  0.3766  1.1254
   39MOL   C19424590   1.207   4.409   4.219 -0.3999 -0.0090  0.2810
   39MOL   O19524591   1.159   4.505   4.284 -0.5906 -0.0663  0.4011
   39MOL   C19624592   1.344   4.345   4.255  0.9263  0.3004  0.5778
   39MOL   C19724593   1.359   4.267   4.391 -0.3326 -0.3359 -0.0784
   39MOL   C19824594   1.306   4.120   4.383 -0.7175  0.5631 -0.1771
   39MOL   C19924595   1.329   4.041   4.514  0.7075 -0.9551  0.3585
   39MOL   C20024596   1.302   3.891   4.518  0.3142  0.0774  0.7389
   39MOL   O20124597   1.295   3.832   4.408  0.1568  0.6130 -0.0256
   39MOL   N20224598   1.288   3.835   4.640  0.0407 -0.2755  0.3980
   39MOL   C20324599   1.248   3.699   4.662  0.1282  0.3615 -0.4804
   39MOL   C20424600   1.111   3.691   4.716 -0.2333  0.1693  0.2328
   39MOL   C20524601   1.074   3.800   4.812 -0.5602 -0.5822 -0.0162
   39MOL   C20624602   0.936   3.775   4.879  0.0819  0.5611  0.5017
   39MOL   N20724603   0.922   3.876   4.986 -0.8782  0.4428  0.5343
   39MOL   H20824604   1.398   4.294   4.175  0.5641 -1.3364  1.3494
   39MOL   H20924605   1.412   4.427   4.277  3.4940 -1.3029 -1.0855
   39MOL   H21024606   1.464   4.250   4.411 -0.5029 -0.3673  0.8122
   39MOL   H21124607   1.314   4.321   4.474  0.6035 -0.7607  0.7075
   39MOL   H21224608   1.369   4.064   4.313 -0.4188  0.0021  0.5379
   39MOL   H21324609   1.201   4.123   4.353 -1.1314  1.8902  1.3320
   39MOL   H21424610   1.264   4.092   4.585  0.8669  2.0155 -1.5506
   39MOL   H21524611   1.433   4.057   4.545  0.3614  1.0127  0.5522
   39MOL   H21624612   1.288   3.890   4.725 -2.5124 -0.8700  0.8212
   39MOL   H21724613   1.329   3.668   4.729 -1.7967  2.9979  3.1762
   39MOL   H21824614   1.269   3.638   4.574 -0.2353  1.6989 -1.4906
   39MOL   H21924615   1.036   3.684   4.637  1.3232 -0.8522 -1.1753
   39MOL   H22024616   1.091   3.593   4.758 -1.2083  0.4597  0.4651
   39MOL   H22124617   1.069   3.893   4.757 -0.3675 -1.8822 -2.3136
   39MOL   H22224618   1.153   3.810   4.887 -0.6868 -0.5063  0.1077
   39MOL   H22324619   0.924   3.671   4.907 -1.2275  0.2667 -1.1097
   39MOL   H22424620   0.852   3.799   4.815  0.4609 -0.6334 -0.4599
   39MOL   H22524621   0.890   3.964   4.949 -0.9672  0.2836  0.2337
   39MOL   C22624622   0.940   3.854   5.111 -0.4917  0.1912  0.1301
   39MOL   O22724623   0.966   3.743   5.159 -0.1226  0.2402 -0.0407
   39MOL   C22824624   0.943   3.970   5.208  0.0889 -0.2223  0.1185
   39MOL   C22924625   0.861   3.947   5.327 -0.1989  0.2048 -0.5078
   39MOL   C23024626   0.709   3.946   5.304 -0.0182  0.0876  0.4702
   39MOL   C23124627   0.640   3.809   5.293 -0.2613  0.2498 -0.1509
   39MOL   C23224628   0.490   3.815   5.306 -0.0573 -0.2510  0.0271
   39MOL   O23324629   0.435   3.915   5.344 -0.2438  0.4362  0.2230
   39MOL   N23424630   0.424   3.705   5.265  0.0428 -0.3824 -0.0414
   39MOL   C23524631   0.278   3.692   5.255 -0.4443  0.5379  0.0814
   39MOL   C23624632   0.237   3.551   5.291  0.2126 -0.6062 -0.3554
   39MOL   C23724633   0.087   3.529   5.242 -0.0159 -0.3838 -0.7086
   39MOL   C23824634   0.042   3.386   5.254  0.2621  0.0516  0.1434
   39MOL   N23924635   7.610   3.361   5.197  0.3544 -0.2104  0.3153
   39MOL   H24024636   1.044   3.985   5.246 -0.6809  0.1676  2.0904
   39MOL   H24124637   0.905   4.065   5.170 -1.2843 -0.0862  1.7236
   39MOL   H24224638   0.892   3.853   5.371  1.0162  1.6402  1.8416
   39MOL   H24324639   0.879   4.030   5.396 -0.6313 -1.4428  1.6081
   39MOL   H24424640   0.672   4.015   5.228 -1.3040 -0.2936  0.7305
   39MOL   H24524641   0.661   3.997   5.388 -0.7963 -0.5573  0.4252
   39MOL   H24624642   0.680   3.739   5.366  0.8783  1.1519  0.1214
   39MOL   H24724643   0.659   3.770   5.193 -0.2666  0.9601 -0.4306
   39MOL   H24824644   0.476   3.631   5.218  1.2463  1.2508 -1.3216
   39MOL   H24924645   0.246   3.715   5.153 -0.9703 -0.9272 -0.0881
   39MOL   H25024646   0.218   3.756   5.319 -1.6418 -0.4399 -0.0356
   39MOL   H25124647   0.306   3.487   5.236 -1.1665 -0.6639 -2.0690
   39MOL   H25224648   0.245   3.547   5.399 -0.9341 -0.5282 -0.2603
   39MOL   H25324649   0.081   3.561   5.138 -2.8926 -1.3854 -0.8714
   39MOL   H25424650   0.015   3.597   5.287  1.3528 -0.3240  1.4783
   39MOL   H25524651   0.047   3.345   5.355  0.4899 -1.1604 -0.3542
   39MOL   H25624652   0.106   3.335   5.182  1.4128 -1.2201  1.9997
   39MOL   H25724653   7.603   3.346   5.098 -1.8977 -0.2955  0.4625
   39MOL   C25824654   7.497   3.359   5.268  0.4877 -0.2479  0.8690
   39MOL   O25924655   7.497   3.356   5.386 -0.7140 -0.0527 -0.4593
   39MOL   C26024656   7.370   3.351   5.190  0.3676 -0.4955  0.3716
   39MOL   C26124657   7.248   3.406   5.275  0.0415  0.8070  0.3537
   39MOL   C26224658   7.244   3.555   5.278  0.2537 -0.1891 -0.4725
   39MOL   C26324659   7.155   3.622   5.389 -0.0195  0.6553 -0.1223
   39MOL   C26424660   7.156   3.774   5.395  0.5062  0.1225  0.3686
   39MOL   O26524661   7.097   3.843   5.310 -0.1023  0.5358  0.4069
   39MOL   N26624662   7.217   3.831   5.498  0.7026 -0.3120  0.0148
   39MOL   C26724663   7.174   3.960   5.551  0.4795 -0.5795  0.0841
   39MOL   C26824664   7.277   4.020   5.647  0.7813 -0.4251  0.1308
   39MOL   C26924665   7.314   3.921   5.765  0.0155  0.0782  0.4107
   39MOL   C27024666   7.439   3.947   5.851 -0.0686 -0.4178  0.2404
   39MOL   N27124667   7.465   3.842   5.947  0.0834 -0.0952 -0.0543
   39MOL   H27224668   7.367   3.413   5.101 -2.2072 -0.5695  0.3786
   39MOL   H27324669   7.354   3.245   5.173  0.0970 -0.1843 -1.3748
   39MOL   H27424670   7.153   3.368   5.234  0.8489  0.2712 -1.0792
   39MOL   H27524671   7.258   3.355   5.371  3.3137  2.0790  0.7350
   39MOL   H27624672   7.213   3.586   5.179  2.2528  2.2880 -0.3853
   39MOL   H27724673   7.347   3.591   5.282  0.1335  0.0642  0.6509
   39MOL   H27824674   7.203   3.594   5.483 -2.2253 -0.2613  0.7515
   39MOL   H27924675   7.054   3.585   5.371 -0.3270  1.3919  0.0746
   39MOL   H28024676   7.266   3.773   5.565  0.7821 -0.6915 -0.3690
   39MOL   H28124677   7.083   3.950   5.609 -0.6295 -0.9980 -1.6830
   39MOL   H28224678   7.161   4.028   5.466 -2.4539 -0.0838  0.8835
   39MOL   H28324679   7.373   4.033   5.596  0.2952  0.8229 -0.4980
   39MOL   H28424680   7.237   4.114   5.686  0.0058 -1.4496  1.8483
   39MOL   H28524681   7.348   3.828   5.719 -0.6651  0.1850 -0.3266
   39MOL   H28624682   7.229   3.890   5.827 -0.7043  0.1497 -0.5199
   39MOL   H28724683   7.415   4.046   5.890  0.7697  0.0421 -0.3831
   39MOL   H28824684   7.531   3.959   5.793 -0.0886 -0.2176  0.2498
   39MOL   H28924685   7.466   3.748   5.911  1.6071  0.2063 -0.8158
   39MOL   C29024686   7.485   3.858   6.082  0.2003  0.7985 -0.3578
   39MOL   O29124687   7.469   3.964   6.136  0.4107  0.3836  0.4200
   39MOL   C29224688   7.513   3.730   6.158  1.1120  0.2299 -0.3102
   39MOL   C29324689   7.565   3.749   6.303  0.0118 -0.6937  0.0760
   39MOL   C29424690   7.453   3.755   6.410  0.4789  0.6590 -0.3391
   39MOL   C29524691   7.347   3.876   6.416  0.5851  0.6089  0.5437
   39MOL   C29624692   7.417   4.000   6.471 -0.0663  0.7778  0.2333
   39MOL   O29724693   7.412   4.018   6.590 -0.4061  0.5268 -0.2504
   39MOL   N29824694   7.478   4.074   6.379 -0.3557  0.4342 -0.5173
   39MOL   C29924695   7.532   4.199   6.420 -0.3156  0.5654  0.1486
   39MOL   C30024696   7.441   4.317   6.408  0.2532 -0.3077 -0.2711
   39MOL   C30124697   7.351   4.334   6.277  0.1116 -0.2659 -0.0755
   39MOL   C30224698   7.438   4.338   6.154 -0.6878 -0.3273  0.4089
   39MOL   N30324699   7.356   4.370   6.043  0.1225 -0.0726  0.0919
   39MOL   H30424700   7.416   3.680   6.168  1.4045 -0.3391 -0.3116
   39MOL   H30524701   7.582   3.669   6.099  0.9521 -0.1058 -0.1505
   39MOL   H30624702   7.633   3.667   6.326  0.6526  0.7910  3.8462
   39MOL   H30724703   7.632   3.834   6.311  0.4689 -0.9926 -0.5703
   39MOL   H30824704   7.517   3.755   6.499 -1.1816  1.3597  0.8929
   39MOL   H30924705   7.393   3.665   6.404  2.5406 -0.8425  0.7766
   39MOL   H31024706   7.270   3.852   6.489 -0.0025  0.9077  0.0259
   39MOL   H31124707   7.287   3.895   6.327  0.7860  0.5448  0.3916
   39MOL   H31224708   7.483   4.043   6.283  2.7180  0.6434 -0.4616
   39MOL   H31324709   7.631   4.213   6.377  0.0130  0.1940  0.7742
   39MOL   H31424710   7.549   4.185   6.527 -0.2698 -0.0859  0.0632
   39MOL   H31524711   7.371   4.313   6.491 -0.5721 -0.1799 -0.9563
   39MOL   H31624712   7.505   4.406   6.416 -1.6574  1.1717 -1.0340
   39MOL   H31724713   7.294   4.427   6.276 -1.1932 -1.0366  0.0390
   39MOL   H31824714   7.283   4.249   6.286 -0.4792  0.3302  1.3489
   39MOL   H31924715   7.479   4.238   6.138  0.3908 -0.3213  2.8096
   39MOL   H32024716   7.516   4.413   6.169 -0.6457 -0.0279 -1.2729
   39MOL   H32124717   7.269   4.320   6.041 -0.7636  1.4098  0.6798
   39MOL   C32224718   7.378   4.477   5.961 -0.2046 -0.0351  0.0942
   39MOL   O32324719   7.463   4.566   5.993 -0.3162 -0.4875 -0.2031
   39MOL   C32424720   7.283   4.509   5.842 -0.3054 -0.1209 -0.2418
   39MOL   C32524721   7.327   4.634   5.764  1.0505 -0.2425  0.6412
   39MOL   C32624722   7.235   4.679   5.647 -0.3261 -0.1927 -0.6416
   39MOL   C32724723   7.273   4.821   5.594  0.7380  0.2542 -0.5117
   39MOL   C32824724   7.190   4.922   5.672  0.2906 -0.0680 -0.3593
   39MOL   O32924725   7.077   4.891   5.712 -0.9339 -0.4374  0.0831
   39MOL   N33024726   7.243   5.043   5.694 -0.2526 -0.3538  0.0104
   39MOL   C33124727   7.180   5.158   5.760  0.7494 -0.9782 -0.3882
   39MOL   C33224728   7.279   5.264   5.791  0.5974 -0.6451 -0.0981
   39MOL   C33324729   7.206   5.397   5.815 -0.1577 -0.3330 -0.3577
   39MOL   C33424730   7.295   5.527   5.808 -0.1584 -0.2815 -0.1626
   39MOL   N33524731   7.337   5.560   5.674  0.0802  0.6175  1.1792
   39MOL   H33624732   7.257   4.416   5.792 -0.6178 -0.4844  0.5755
   39MOL   H33724733   7.187   4.531   5.889  0.5934  1.2306  1.0189
   39MOL   H33824734   7.327   4.714   5.838 -0.1494  0.3746 -0.0054
   39MOL   H33924735   7.432   4.612   5.747  1.1986  1.2291 -0.4375
   39MOL   H34024736   7.134   4.663   5.685 -0.1142 -0.1403 -0.0385
   39MOL   H34124737   7.237   4.605   5.568 -0.8891 -2.4243  1.3662
   39MOL   H34224738   7.249   4.811   5.488  3.4848 -0.0140 -1.1355
   39MOL   H34324739   7.379   4.842   5.599  0.9483 -0.7212 -0.7608
   39MOL   H34424740   7.340   5.039   5.667  0.0747 -2.6526  1.3879
   39MOL   H34524741   7.139   5.142   5.860  2.3565 -2.3742  0.0646
   39MOL   H34624742   7.108   5.185   5.683  0.4737 -2.3421 -0.6155
   39MOL   H34724743   7.351   5.250   5.872 -0.2162 -0.8693  0.5912
   39MOL   H34824744   7.348   5.287   5.710  1.6446  1.1171  1.2358
   39MOL   H34924745   7.164   5.377   5.913 -3.7103  0.9983 -1.5309
   39MOL   H35024746   7.133   5.410   5.735 -0.9844 -2.1274  0.0729
   39MOL   H35124747   7.378   5.513   5.877  1.0005 -2.4395 -1.9244
   39MOL   H35224748   7.236   5.604   5.858  1.7056  0.2951  1.2039
   39MOL   H35324749   7.269   5.590   5.605  2.1934  2.1353 -0.3458
   39MOL   C35424750   7.464   5.560   5.633  0.2066  0.3412  0.2682
   39MOL   O35524751   7.551   5.514   5.710 -0.2369  0.1001  0.0392
   39MOL   C35624752   7.500   5.602   5.492 -0.0796  0.3613 -0.7348
   39MOL   C35724753   7.645   5.663   5.472  0.2515 -0.3856  0.3997
   39MOL   C35824754   7.653   5.747   5.342  0.6794 -0.4770 -0.6276
   39MOL   C35924755   0.099   5.797   5.322  0.4118  0.7152  0.3877
   39MOL   C36024756   0.128   5.885   5.200  0.9945 -0.0070 -0.0757
   39MOL   O36124757   0.034   5.902   5.114 -0.1411 -0.6474 -0.3768
   39MOL   N36224758   0.244   5.938   5.195  0.1057 -0.3675 -0.4288
   39MOL   C36324759   0.288   6.045   5.104 -0.1234  0.2874 -1.1044
   39MOL   C36424760   0.390   6.144   5.178 -0.3908 -0.0005  0.8328
   39MOL   C36524761   0.433   6.267   5.089 -0.6857  0.7095 -0.1154
   39MOL   C36624762   0.496   6.224   4.951 -0.5534  0.1107  0.5050
   39MOL   N36724763   0.400   6.245   4.843 -0.3424  0.0646 -0.2888
   39MOL   H36824764   7.495   5.523   5.417  0.5499 -1.1389  0.7542
   39MOL   H36924765   7.425   5.676   5.466  0.4258  1.5162  0.9828
   39MOL   H37024766   7.672   5.724   5.558  1.4572 -0.8869  0.3945
   39MOL   H37124767   0.028   5.595   5.460  0.5735 -0.0564  0.7803
   39MOL   H37224768   7.588   5.834   5.346  1.5353  0.0939  2.9475
   39MOL   H37324769   7.619   5.686   5.258 -1.4431  0.5255 -0.5195
   39MOL   H37424770   0.163   5.710   5.304  1.4201  1.9803 -2.3519
   39MOL   H37524771   0.133   5.851   5.410 -0.8178 -1.7118  2.4257
   39MOL   H37624772   0.309   5.905   5.265  2.5958  0.2460 -2.3742
   39MOL   H37724773   0.214   6.107   5.052 -0.6988 -0.9733 -1.7997
   39MOL   H37824774   0.349   6.002   5.024 -1.0933 -1.6117 -0.8446
   39MOL   H37924775   0.324   6.180   5.256 -0.3055 -1.0640  1.4059
   39MOL   H38024776   0.472   6.091   5.228  0.4476  1.7327  1.3303
   39MOL   H38124777   0.510   6.328   5.137  1.5960 -1.5352 -0.8546
   39MOL   H38224778   0.348   6.336   5.083 -1.4851 -0.1991  0.6123
   39MOL   H38324779   0.537   6.124   4.965 -0.2977  0.4000  1.9428
   39MOL   H38424780   0.575   6.298   4.945 -1.4438  1.0200 -0.1777
   39MOL   H38524781   0.347   6.331   4.843  2.0911  1.6296 -0.7343
   39MOL   C38624782   0.363   6.153   4.745 -0.4840 -0.3502 -1.0784
   39MOL   O38724783   0.397   6.038   4.743 -0.4154 -0.3848 -0.0821
   39MOL   C38824784   0.269   6.200   4.633 -0.4527  0.0515 -1.1409
   39MOL   C38924785   0.125   6.154   4.652  0.4228  0.2130 -0.0255
   39MOL   C39024786   0.035   6.260   4.727 -0.0732  0.7106 -0.5986
   39MOL   C39124787   7.585   6.220   4.740 -0.2481  0.2885 -0.2103
   39MOL   C39224788   7.497   6.303   4.829  0.4715 -0.0262  0.3663
   39MOL   O39324789   7.536   6.405   4.884 -0.6502  0.4890 -0.2542
   39MOL   N39424790   7.369   6.273   4.836  0.2967 -0.5826  0.3150
   39MOL   C39524791   7.285   6.364   4.906 -1.2546  0.9672 -0.2253
   39MOL   C39624792   7.144   6.313   4.911 -0.1785 -0.8676 -0.5970
   39MOL   C39724793   7.074   6.266   4.779 -0.0544 -0.5206 -0.2799
   39MOL   C39824794   7.093   6.349   4.653  0.1766 -0.3071  0.6394
   39MOL   N39924795   7.051   6.488   4.664 -0.6560  0.1068 -0.3299
   39MOL   H40024796   0.289   6.307   4.639  3.4834 -0.7501  1.2800
   39MOL   H40124797   0.297   6.158   4.536  1.9306  1.8625 -1.2894
   39MOL   H40224798   0.083   6.152   4.552  3.0511  1.6650 -1.1870
   39MOL   H40324799   0.121   6.054   4.695 -0.4780  0.7101  1.0841
   39MOL   H40424800   0.047   6.358   4.682 -1.4247  1.9038  1.5443
   39MOL   H40524801   0.083   6.267   4.825  1.5863 -3.9399 -0.9535
   39MOL   H40624802   7.580   6.118   4.778  1.6649 -0.4724 -1.8883
   39MOL   H40724803   7.534   6.230   4.644  1.3815  0.3408 -1.0827
   39MOL   H40824804   7.340   6.185   4.797 -0.9824 -0.5620  1.1708
   39MOL   H40924805   7.282   6.461   4.856 -2.8530  1.7281  1.2863
   39MOL   H41024806   7.319   6.386   5.007 -0.7902  2.5737 -0.7143
   39MOL   H41124807   7.139   6.241   4.993  1.0797  0.7335  0.9112
   39MOL   H41224808   7.082   6.391   4.956  2.9672  1.1417  0.3574
   39MOL   H41324809   6.967   6.256   4.796 -0.3443  1.3942 -0.9076
   39MOL   H41424810   7.114   6.167   4.758  0.5015 -0.4324  0.3474
   39MOL   H41524811   7.032   6.302   4.576 -0.6220  2.1807 -0.2617
   39MOL   H41624812   7.199   6.346   4.628  0.2881 -1.1665  1.1573
   39MOL   H41724813   7.008   6.527   4.746 -0.6691 -0.3956 -0.0991
   39MOL   C41824814   7.089   6.584   4.579 -0.6405  0.0215  0.0374
   39MOL   O41924815   7.163   6.562   4.483 -0.2688 -0.5481 -0.0637
   39MOL   C42024816   7.033   6.728   4.605 -0.4771  0.1657  0.1781
   39MOL   C42124817   7.021   6.810   4.470 -0.1561  0.1035 -0.8078
   39MOL   C42224818   7.155   6.875   4.436  0.2290  0.2819 -1.0429
   39MOL   C42324819   7.202   6.992   4.521  0.5701  0.7960  0.5447
   39MOL   C42424820   7.314   7.077   4.458  0.0165 -0.6302 -0.1986
   39MOL   O42524821   7.341   7.072   4.336 -0.9585  0.3599  0.2304
   39MOL   N42624822   7.363   7.167   4.541 -0.2426 -1.1581 -0.8473
   39MOL   C42724823   7.468   7.265   4.510 -0.5205 -0.3393  0.4055
   39MOL   C42824824   7.401   7.402   4.499 -0.3005 -0.2512  0.3726
   39MOL   C42924825   7.466   7.496   4.402  0.3818  0.1832 -0.1534
   39MOL   C43024826   7.429   7.647   4.424  0.6493 -0.6890  0.2130
   39MOL   N43124827   7.293   7.686   4.377  0.2039  0.5204 -0.2512
   39MOL   H43224828   6.934   6.717   4.649 -0.1821  1.9762  1.3353
   39MOL   H43324829   7.088   6.783   4.681  0.2002 -4.8996  3.6591
   39MOL   H43424830   7.014   6.747   4.381 -4.3896  0.0971 -0.5652
   39MOL   H43524831   6.925   6.861   4.470 -0.6358 -0.7871 -0.0369
   39MOL   H43624832   7.135   6.908   4.334 -0.6016 -1.1146 -1.3517
   39MOL   H43724833   7.228   6.794   4.429 -1.3472 -1.1578 -1.0998
   39MOL   H43824834   7.231   6.953   4.619  0.0632  0.5353  0.5876
   39MOL   H43924835   7.117   7.057   4.538  0.8810  1.1155  0.8929
   39MOL   H44024836   7.334   7.155   4.637  1.4420 -2.2622 -0.4599
   39MOL   H44124837   7.525   7.245   4.419  1.1319  1.4500  0.9977
   39MOL   H44224838   7.539   7.256   4.591  0.3533 -0.5181 -0.3754
   39MOL   H44324839   7.295   7.404   4.473 -0.7711  0.5267  2.2690
   39MOL   H44424840   7.399   7.440   4.601  0.8141  0.3677  0.1783
   39MOL   H44524841   7.441   7.459   4.302  0.2907  1.5008 -0.6316
   39MOL   H44624842   7.573   7.511   4.414  0.7630 -3.4566  1.5065
   39MOL   H44724843   7.510   7.700   4.374  1.5144 -3.3111 -1.2717
   39MOL   H44824844   7.440   7.675   4.529  1.3950 -0.9432  0.2018
   39MOL   H44924845   7.239   0.036   4.445 -0.2433 -0.0032 -0.2007
   39MOL   C45024846   7.230   7.652   4.263 -0.1599 -0.1364  0.2594
   39MOL   O45124847   7.281   7.580   4.171  0.0995 -0.7040  0.4296
   39MOL   C45224848   7.089   0.006   4.249  0.1460  0.6851  0.1917
   39MOL   C45324849   6.999   7.599   4.191  0.6330 -0.3036  0.3132
   39MOL   C45424850   6.979   7.458   4.259 -0.4272  0.6802  0.6202
   39MOL   C45524851   6.880   7.367   4.185 -0.2416  0.3060  0.3744
   39MOL   C45624852   6.736   7.372   4.239  0.3103 -0.6113 -0.1180
   39MOL   O45724853   6.714   7.410   4.358  0.0254 -0.0072 -0.0592
   39MOL   N45824854   6.639   7.327   4.161 -0.6382  0.8804 -0.2328
   39MOL   C45924855   6.497   7.323   4.200 -0.7717  0.5197 -0.7917
   39MOL   C46024856   6.409   7.254   4.097 -0.6045 -0.0420  0.0707
   39MOL   C46124857   6.424   7.310   3.954  0.3932  0.9482 -0.4275
   39MOL   C46224858   6.290   7.314   3.883  0.4215 -0.5281 -0.0635
   39MOL   N46324859   6.291   7.364   3.742 -0.2408 -0.4402  0.5308
   39MOL   H46424860   7.057   0.050   4.344 -1.3672 -1.0656  0.5165
   39MOL   H46524861   7.102   0.090   4.182 -2.7270  1.6134  0.7221
   39MOL   H46624862   6.908   7.659   4.189  1.7021  1.3283 -0.3756
   39MOL   H46724863   7.022   7.578   4.086 -0.0961 -2.9485  0.6426
   39MOL   H46824864   6.945   7.479   4.360 -1.6929  2.3903 -0.1410
   39MOL   H46924865   7.065   7.392   4.268 -0.8221 -0.0021 -0.4690
   39MOL   H47024866   6.905   7.262   4.201 -0.6930  0.2030  0.4077
   39MOL   H47124867   6.868   7.385   4.078 -1.0215  3.0751  0.8995
   39MOL   H47224868   6.678   7.288   4.076  1.4977 -0.9777  1.5671
   39MOL   H47324869   6.472   7.425   4.226  1.9835  1.2155 -0.7806
   39MOL   H47424870   6.483   7.267   4.293  1.6439  1.2035  0.0063
   39MOL   H47524871   6.424   7.146   4.102 -0.3023  0.0110  0.2621
   39MOL   H47624872   6.307   7.277   4.128 -0.5491  0.8348 -0.4078
   39MOL   H47724873   6.494   7.255   3.891  1.2590  3.6018 -1.8724
   39MOL   H47824874   6.464   7.411   3.960  0.1420  1.0327 -0.1883
   39MOL   H47924875   6.216   7.371   3.938 -1.3874  0.3897 -3.3566
   39MOL   H48024876   6.253   7.212   3.892 -1.1120  0.1172  1.1129
   39MOL   H48124877   6.304   7.460   3.713  0.2839 -0.4563  0.7235
   39MOL   C48224878   6.280   7.278   3.634  0.0431 -1.1101 -0.0550
   39MOL   O48324879   6.264   7.156   3.648  0.2120  1.0253 -0.0435
   39MOL   C48424880   6.282   7.341   3.494  0.3876 -0.1756 -0.3689
   39MOL   C48524881   6.364   7.266   3.393  0.1840 -0.5359 -0.4741
   39MOL   C48624882   6.366   7.334   3.256  0.0620  0.2239  0.4504
   39MOL   C48724883   6.437   7.259   3.137  0.7585  0.5496  0.3486
   39MOL   C48824884   6.589   7.249   3.154 -0.2233 -1.0209 -0.4863
   39MOL   O48924885   6.646   7.327   3.229  0.4708 -0.2054 -0.6377
   39MOL   N49024886   6.647   7.166   3.070  0.1379 -0.7322  0.1209
   39MOL   C49124887   6.793   7.140   3.060  0.1651 -0.1707 -0.6679
   39MOL   C49224888   6.872   7.234   2.966 -0.4065  0.4454  0.7900
   39MOL   C49324889   6.800   7.262   2.831 -0.5172  0.4658 -0.1649
   39MOL   C49424890   6.899   7.323   2.731 -0.6383 -0.8584  0.5994
   39MOL   N49524891   6.841   7.315   2.601 -0.2730 -0.4347  0.1686
   39MOL   H49624892   6.177   7.349   3.463  0.2949  0.4726  0.1024
   39MOL   H49724893   6.314   7.444   3.513  1.7321 -0.5265 -0.6927
   39MOL   H49824894   6.464   7.249   3.433 -0.2821  1.8504  1.8004
   39MOL   H49924895   6.317   7.169   3.382 -2.4197  0.8454 -2.1604
   39MOL   H50024896   6.409   7.434   3.263  0.8933 -0.1275  0.3814
   39MOL   H50124897   6.273   7.356   3.204 -0.1130  0.7633  0.9732
   39MOL   H50224898   6.423   7.313   3.043 -2.7613  0.5979  0.8358
   39MOL   H50324899   6.397   7.158   3.125 -0.4681  1.1355 -0.5521
   39MOL   H50424900   6.579   7.123   3.008  0.3365  1.5014 -1.7312
   39MOL   H50524901   6.801   7.041   3.015  1.1574 -0.9805  1.2453
   39MOL   H50624902   6.833   7.131   3.161 -1.2707 -0.2345 -0.0820
   39MOL   H50724903   6.895   7.333   3.006  1.0147  1.2315 -1.8354
   39MOL   H50824904   6.972   7.200   2.941 -1.2522 -0.2949 -1.7710
   39MOL   H50924905   6.713   7.324   2.851 -0.0872  0.1280  2.9232
   39MOL   H51024906   6.772   7.169   2.781 -0.2854  1.0152 -1.3490
   39MOL   H51124907   6.998   7.277   2.729 -0.2079 -0.0446  2.0247
   39MOL   H51224908   6.920   7.428   2.750 -1.1825 -0.3333 -1.6086
   39MOL   H51324909   6.867   7.233   2.548  0.1016 -0.1652 -0.0695
   39MOL   C51424910   6.747   7.392   2.547 -0.4234 -0.3042 -0.0733
   39MOL   O51524911   6.702   7.492   2.597 -0.5452  0.2959 -0.0768
   39MOL   C51624912   6.697   7.347   2.406 -0.2940 -0.2512  0.1136
   39MOL   C51724913   6.578   7.253   2.405 -0.1063  0.1980  0.1088
   39MOL   C51824914   6.538   7.234   2.261 -0.4259  0.8368  0.0339
   39MOL   C51924915   6.434   7.116   2.241 -0.8117  0.2972  0.6203
   39MOL   C52024916   6.287   7.157   2.238  0.3227  0.0189 -0.8261
   39MOL   O52124917   6.242   7.222   2.145 -0.4920  0.1069 -0.3934
   39MOL   N52224918   6.209   7.113   2.334  0.8664 -0.3203  0.2524
   39MOL   C52324919   6.064   7.117   2.332 -0.0767 -0.2692 -0.7454
   39MOL   C52424920   6.003   7.079   2.468 -0.4242  0.7142 -0.1827
   39MOL   C52524921   6.007   6.926   2.499  0.5664 -0.1860 -0.4118
   39MOL   C52624922   5.918   6.887   2.628 -0.3224  0.2662  0.0015
   39MOL   N52724923   5.966   6.939   2.754 -0.1820  0.2238 -0.6421
   39MOL   H52824924   6.651   7.437   2.363 -0.6935 -0.5503 -0.0888
   39MOL   H52924925   6.779   7.316   2.342 -0.9720  1.0554 -1.4153
   39MOL   H53024926   6.605   7.163   2.461 -0.0332  0.5529  0.6434
   39MOL   H53124927   6.493   7.296   2.459 -1.3575 -3.1676  0.9635
   39MOL   H53224928   6.628   7.210   2.205 -0.1338  0.1225  0.7933
   39MOL   H53324929   6.515   7.329   2.215  1.9749  0.9826 -0.9453
   39MOL   H53424930   6.447   7.052   2.329 -1.3578  1.4387  1.5413
   39MOL   H53524931   6.450   7.065   2.146 -2.2504 -0.9675  1.0398
   39MOL   H53624932   6.248   7.033   2.381  1.7010  0.3700  0.7402
   39MOL   H53724933   6.032   7.054   2.249  1.6582 -0.6971 -1.0986
   39MOL   H53824934   6.034   7.216   2.295 -0.6973 -0.8291 -1.7599
   39MOL   H53924935   6.057   7.121   2.553 -0.4850  1.2982 -0.4306
   39MOL   H54024936   5.899   7.111   2.473 -1.3011 -2.3304  2.3245
   39MOL   H54124937   6.114   6.908   2.509  0.6382 -0.4803 -1.6649
   39MOL   H54224938   5.968   6.883   2.406  0.0167  0.0905 -0.3097
   39MOL   H54324939   5.902   6.779   2.634 -0.7387  0.3783  0.8912
   39MOL   H54424940   5.824   6.936   2.605 -0.3494 -0.3701 -1.3070
   39MOL   H54524941   5.906   7.003   2.804  1.1076  1.0510 -0.0966
   39MOL   C54624942   6.069   6.893   2.822 -0.2047  0.2231 -0.2819
   39MOL   O54724943   6.142   6.805   2.777  0.5217  0.0333 -0.2220
   39MOL   C54824944   6.110   6.971   2.953 -0.3863 -0.0439 -0.1828
   39MOL   C54924945   6.027   6.942   3.075  0.5331 -0.4423 -0.2572
   39MOL   C55024946   6.077   7.029   3.199 -0.0270  0.5746  0.1154
   39MOL   C55124947   5.982   7.048   3.319 -0.6263  0.1156  0.2850
   39MOL   C55224948   5.854   7.134   3.302  0.7572 -0.0182 -0.4260
   39MOL   O55324949   5.866   7.239   3.236 -0.1878  0.4499 -0.0655
   39MOL   N55424950   5.744   7.081   3.348  0.1336  0.1013 -0.3620
   39MOL   C55524951   5.609   7.118   3.311  0.0694  0.9106  0.2402
   39MOL   C55624952   5.525   7.158   3.435  0.0679  0.1742 -0.0299
   39MOL   C55724953   5.377   7.194   3.414 -0.6152 -0.6954  0.0992
   39MOL   C55824954   5.281   7.083   3.387  0.4752 -0.6829  0.5085
   39MOL   N55924955   5.152   7.148   3.368  0.2431 -0.6067 -0.7909
   39MOL   H56024956   6.217   6.978   2.971 -0.1538 -3.4995  0.1781
   39MOL   H56124957   6.087   7.075   2.931 -1.1727 -0.0414  0.6023
   39MOL   H56224958   5.920   6.962   3.065  0.4039 -0.2986  1.2241
   39MOL   H56324959   6.036   6.836   3.100 -1.5355 -0.4548  0.5346
   39MOL   H56424960   6.107   7.129   3.171 -0.8735  0.7920 -0.0388
   39MOL   H56524961   6.169   6.991   3.243 -1.9446 -0.4980  3.4397
   39MOL   H56624962   6.038   7.077   3.407  0.5079 -1.9414  0.2645
   39MOL   H56724963   5.948   6.946   3.334  0.4465 -0.1794  0.7099
   39MOL   H56824964   5.759   6.996   3.402 -1.4948  0.5984  0.9123
   39MOL   H56924965   5.569   7.027   3.267  1.1050 -0.5933  2.3394
   39MOL   H57024966   5.604   7.187   3.227 -1.1009  0.2011 -0.2893
   39MOL   H57124967   5.540   7.086   3.516 -1.7462  0.7337  0.8537
   39MOL   H57224968   5.578   7.249   3.465 -1.1262  1.0209 -0.4525
   39MOL   H57324969   5.368   7.278   3.344  0.6292 -1.0438 -0.4931
   39MOL   H57424970   5.343   7.235   3.509  0.6654  2.0672 -0.5611
   39MOL   H57524971   5.285   7.005   3.463 -0.6258 -0.6772  0.5839
   39MOL   H57624972   5.299   7.031   3.293 -2.2346 -0.9750  0.0886
   39MOL   H57724973   5.151   7.248   3.380 -2.1221 -0.7621  0.5592
   39MOL   C57824974   5.047   7.090   3.309  0.2803 -0.4737 -0.5518
   39MOL   O57924975   5.049   6.975   3.267 -0.3300  0.2950  0.3647
   39MOL   C58024976   4.924   7.182   3.280 -0.4274 -0.1326  0.0081
   39MOL   C58124977   4.787   7.114   3.248 -0.6350 -0.4818 -0.4287
   39MOL   C58224978   4.684   7.220   3.209  0.6493 -0.3794 -0.4032
   39MOL   C58324979   4.542   7.158   3.178  0.4539  0.2972  0.0016
   39MOL   C58424980   4.511   7.136   3.030 -0.3387 -0.4084  0.1502
   39MOL   O58524981   4.501   7.233   2.956 -0.4549  0.1272  0.2358
   39MOL   N58624982   4.505   7.008   2.994  0.8897  0.5397 -0.4209
   39MOL   C58724983   4.475   6.950   2.866 -0.9141  0.0015  0.2641
   39MOL   C58824984   4.367   7.020   2.798 -0.1527  0.2963  0.0613
   39MOL   C58924985   4.300   6.934   2.692  0.0401 -0.7629 -0.9706
   39MOL   C59024986   4.376   6.922   2.561 -1.0591 -0.1055 -0.1996
   39MOL   N59124987   4.330   6.807   2.487  0.1232  0.5385 -0.7074
   39MOL   H59224988   4.910   7.234   3.374 -1.1926 -0.0337 -0.1536
   39MOL   H59324989   4.948   7.259   3.206 -0.0084 -0.1318  0.1432
   39MOL   H59424990   4.798   7.029   3.181  0.3199 -2.0819  1.6962
   39MOL   H59524991   4.754   7.073   3.343 -1.2493  0.8168 -0.0646
   39MOL   H59624992   4.708   7.280   3.121 -2.1578 -0.4400 -1.2552
   39MOL   H59724993   4.677   7.287   3.294  1.5444 -0.3759 -0.3336
   39MOL   H59824994   4.473   7.233   3.216 -1.5176 -2.5480  2.2210
   39MOL   H59924995   4.522   7.070   3.239  1.6725 -0.4876 -0.6967
   39MOL   H60024996   4.507   6.940   3.069  0.4136  0.8346 -0.1393
   39MOL   H60124997   4.441   6.847   2.881  2.4517 -1.3753 -1.0480
   39MOL   H60224998   4.571   6.943   2.815 -1.2154  0.9373 -0.4543
   39MOL   H60324999   4.290   7.041   2.872  0.1100 -0.2079  0.4803
   39MOL   H60425000   4.405   7.111   2.751  0.5205 -0.4382 -0.8492
   39MOL   H60525001   4.201   6.976   2.672  0.2078  0.4379  0.6291
   39MOL   H60625002   4.291   6.833   2.731 -0.3415 -0.2692  0.2316
   39MOL   H60725003   4.474   6.884   2.589  0.1778  0.9014 -2.9805
   39MOL   H60825004   4.390   7.010   2.498  0.6480 -0.7059 -0.6788
   39MOL   H60925005   4.390   6.727   2.474 -2.4139 -1.2932 -1.5670
   39MOL   C61025006   4.212   6.801   2.421  0.3715  0.7004 -0.0752
   39MOL   O61125007   4.123   6.884   2.417  0.4511  0.4563  0.0551
   39MOL   C61225008   4.189   6.652   2.370 -0.0272 -0.2711  0.5870
   39MOL   C61325009   4.131   6.578   2.490  0.0355 -0.5957 -0.0743
   39MOL   C61425010   4.233   6.506   2.581 -0.2088 -0.6166  0.4456
   39MOL   C61525011   4.165   6.429   2.694  0.0689  0.6542 -0.1663
   39MOL   C61625012   4.116   6.515   2.812  0.7329  0.4345 -0.1762
   39MOL   O61725013   4.180   6.614   2.835 -0.2609 -0.0023 -0.0742
   39MOL   N61825014   4.011   6.469   2.884 -0.0031 -0.3166 -0.0330
   39MOL   C61925015   3.960   6.528   3.009 -0.6582  0.1859  0.1376
   39MOL   C62025016   3.815   6.522   3.023  0.6350 -0.6723 -0.0137
   39MOL   C62125017   3.751   6.631   3.116  0.7020  0.4890  0.9447
   39MOL   C62225018   3.602   6.648   3.094  0.0295 -0.1728 -0.2285
   39MOL   N62325019   3.561   6.790   3.106 -0.5781  0.0885 -0.1358
   39MOL   H62425020   4.118   6.670   2.289  0.7047 -1.7513 -0.4118
   39MOL   H62525021   4.282   6.614   2.328  0.5451  0.7563  0.8978
   39MOL   H62625022   4.084   6.654   2.552 -1.1166  0.0438 -1.6930
   39MOL   H62725023   4.049   6.510   2.465  2.0514 -2.1023 -2.8619
   39MOL   H62825024   4.310   6.569   2.625 -2.0598  0.8391  1.6655
   39MOL   H62925025   4.291   6.435   2.521  1.9469  0.2470  1.4272
   39MOL   H63025026   4.236   6.361   2.741  0.1573  2.3393  2.2731
   39MOL   H63125027   4.081   6.372   2.656  0.9334  0.4291 -1.7931
   39MOL   H63225028   3.945   6.407   2.839  0.2207 -0.3281 -0.3427
   39MOL   H63325029   3.978   6.635   3.009 -1.2866  0.3061  2.0818
   39MOL   H63425030   4.013   6.505   3.101  0.6122  2.1706 -0.0790
   39MOL   H63525031   3.776   6.550   2.925  0.2450  1.3825  0.7018
   39MOL   H63625032   3.784   6.419   3.042 -2.1662  0.0772 -0.3352
   39MOL   H63725033   3.801   6.726   3.095 -1.2287  1.2204 -0.5312
   39MOL   H63825034   3.765   6.606   3.221 -1.6907  0.2024  1.2095
   39MOL   H63925035   3.542   6.598   3.169  0.5000  1.3562  1.1825
   39MOL   H64025036   3.589   6.615   2.991 -2.0260 -3.5261  1.0348
   39MOL   H64125037   3.611   6.820   3.188 -0.5757 -0.3694  0.0372
   39MOL   H64225038   3.596   6.834   3.022 -0.2346 -0.6505 -0.3849
   40MOL     C125039   7.643   6.311   2.984  0.0223  0.2145  0.3867
   40MOL     O225040   7.532   6.302   2.927  0.8001 -0.0986  0.6773
   40MOL     C325041   7.639   6.331   3.136 -0.1905  0.2188 -0.2416
   40MOL     C425042   7.598   6.198   3.211  0.2530  0.3153  0.4416
   40MOL     C525043   7.445   6.186   3.220 -0.1443  0.4454 -0.1868
   40MOL     C625044   7.386   6.061   3.285  0.1823 -0.1842  0.0162
   40MOL     C725045   7.431   6.005   3.418  0.2240 -0.6142  0.0711
   40MOL     O825046   7.509   5.911   3.423  0.0712  0.4569 -0.0022
   40MOL     N925047   7.383   6.062   3.528 -0.2482  0.0128  0.3188
   40MOL    C1025048   7.386   6.001   3.659 -0.2196 -0.5490  0.2005
   40MOL    C1125049   7.522   6.015   3.721 -0.5729 -0.9663  0.8064
   40MOL    C1225050   7.567   6.162   3.746  0.3286  0.2580  0.1686
   40MOL    C1325051   7.485   6.228   3.865 -0.0383  0.2350 -0.7726
   40MOL    N1425052   7.503   6.147   3.982  0.2523  0.5544 -0.8262
   40MOL    H1525053   0.036   6.351   3.179 -0.9339 -0.9749  2.0807
   40MOL    H1625054   7.573   6.414   3.159 -0.4525  0.8323 -2.9701
   40MOL    H1725055   7.621   6.111   3.150 -0.4830  1.4920 -1.5545
   40MOL    H1825056   7.646   6.187   3.308  0.1238 -0.3009  0.4400
   40MOL    H1925057   7.399   6.187   3.121 -2.2718  0.8188  0.7727
   40MOL    H2025058   7.406   6.271   3.275  2.0706  1.7135 -0.5207
   40MOL    H2125059   7.407   5.974   3.222 -0.4436  0.2815 -0.8368
   40MOL    H2225060   7.284   6.085   3.315  0.2435 -3.0340  2.8132
   40MOL    H2325061   7.309   6.129   3.511 -0.9586 -0.8477  0.0103
   40MOL    H2425062   7.362   5.894   3.651 -0.9709 -0.2508 -1.6165
   40MOL    H2525063   7.317   6.052   3.726  0.2687 -1.1250  1.1622
   40MOL    H2625064   7.532   5.952   3.809 -1.0415 -1.2616  0.6498
   40MOL    H2725065   7.607   5.974   3.667  0.1615  0.7523  0.6008
   40MOL    H2825066   7.559   6.227   3.659  2.1393  1.2462  0.7140
   40MOL    H2925067   7.673   6.169   3.774 -0.5106  2.0830  3.1347
   40MOL    H3025068   7.381   6.250   3.840 -0.8638 -1.2854  1.1700
   40MOL    H3125069   7.534   6.319   3.897  2.3719 -1.5081  0.6387
   40MOL    H3225070   7.600   6.129   4.008 -0.1417 -1.0888 -0.4338
   40MOL    H3325071   0.038   6.326   2.936  0.3628  0.6269  1.1982
   40MOL    C3425072   7.403   6.122   4.066  0.3669 -0.5242  0.1137
   40MOL    O3525073   7.286   6.126   4.023 -0.5294  0.6022 -0.1442
   40MOL    C3625074   7.434   6.079   4.212  0.4331  0.7264  0.3783
   40MOL    C3725075   7.316   6.045   4.316 -0.2896 -0.1340  0.5346
   40MOL    C3825076   7.247   6.163   4.387  0.2175  0.6793 -0.3523
   40MOL    C3925077   7.169   6.252   4.295 -0.5881 -0.1695  0.5338
   40MOL    C4025078   7.040   6.193   4.242 -0.4384 -0.5836  0.3495
   40MOL    O4125079   6.937   6.194   4.311 -0.1051 -0.1603 -0.2796
   40MOL    N4225080   7.043   6.149   4.117 -0.3948  0.3522 -0.3284
   40MOL    C4325081   6.950   6.061   4.046 -0.6298  0.1036  0.0448
   40MOL    C4425082   6.848   6.140   3.964  0.0528  0.1856  0.5058
   40MOL    C4525083   6.763   6.042   3.875 -0.0033  0.6325  0.6664
   40MOL    C4625084   6.655   6.116   3.794  0.1416 -0.4924 -0.4665
   40MOL    N4725085   6.559   6.031   3.722 -0.4486 -0.2634  0.3599
   40MOL    H4825086   7.472   5.979   4.193 -0.1543  0.5510  0.1090
   40MOL    H4925087   7.518   6.132   4.256  0.3380  1.0836  0.1318
   40MOL    H5025088   7.237   5.988   4.266  1.0040 -1.5736  0.0999
   40MOL    H5125089   7.366   5.977   4.385  0.8294  0.7331  0.5833
   40MOL    H5225090   7.323   6.225   4.434 -1.3011  1.5791  0.9454
   40MOL    H5325091   7.194   6.120   4.471 -2.0001  2.7024 -0.6823
   40MOL    H5425092   7.232   6.287   4.213 -0.1320  0.2093  1.0418
   40MOL    H5525093   7.156   6.347   4.346 -0.4428  1.7614 -2.8527
   40MOL    H5625094   7.135   6.159   4.077  0.4751 -1.3613  1.1863
   40MOL    H5725095   6.894   5.995   4.112 -0.3958  0.6248  0.7617
   40MOL    H5825096   7.012   5.993   3.987 -0.6136  1.7267 -1.8654
   40MOL    H5925097   6.790   6.199   4.035  1.0884  2.7776 -0.7485
   40MOL    H6025098   6.891   6.213   3.895 -0.4847  0.0655  0.0454
   40MOL    H6125099   6.726   5.961   3.938  2.0824 -1.1677 -0.3322
   40MOL    H6225100   6.829   5.993   3.803  1.8106  0.7891  2.1896
   40MOL    H6325101   6.696   6.187   3.723  1.4742 -0.8992 -0.1342
   40MOL    H6425102   6.589   6.170   3.862  2.3590  1.4069  0.2688
   40MOL    H6525103   6.568   6.016   3.623 -0.3527 -0.6273  0.4198
   40MOL    C6625104   6.461   5.959   3.787  0.2006  0.3938 -0.0265
   40MOL    O6725105   6.444   5.966   3.908  0.2800 -0.5160 -0.2888
   40MOL    C6825106   6.369   5.875   3.702 -0.4833 -0.2865 -0.2695
   40MOL    C6925107   6.231   5.857   3.764  0.2346  0.3434 -0.6210
   40MOL    C7025108   6.138   5.982   3.747  0.5261 -0.6726 -0.2437
   40MOL    C7125109   6.036   5.991   3.858  0.2749  1.1172  0.3228
   40MOL    C7225110   5.917   5.893   3.838  0.3003 -0.4892 -0.3918
   40MOL    O7325111   5.839   5.905   3.744  0.3280  1.1077 -0.0276
   40MOL    N7425112   5.895   5.810   3.943 -0.1691  0.6768 -0.0734
   40MOL    C7525113   5.781   5.722   3.955  0.3678  0.3419 -0.2507
   40MOL    C7625114   5.668   5.807   4.009  0.3546  0.4689 -0.3660
   40MOL    C7725115   5.557   5.714   4.068 -0.4520 -0.5347  0.3560
   40MOL    C7825116   5.437   5.799   4.093 -0.1261 -0.7112  0.0908
   40MOL    N7925117   5.339   5.718   4.153 -0.0076 -0.4670 -0.2803
   40MOL    H8025118   6.363   5.911   3.599  0.4733  0.1930 -0.1618
   40MOL    H8125119   6.411   5.775   3.689 -0.2136 -0.2748  0.5309
   40MOL    H8225120   6.180   5.768   3.726 -0.0702  0.5942 -0.8009
   40MOL    H8325121   6.250   5.838   3.870 -1.5169  0.1865 -0.3341
   40MOL    H8425122   6.084   5.993   3.652  0.2055 -0.9695 -0.0969
   40MOL    H8525123   6.192   6.075   3.763  1.2336 -1.2563  0.8532
   40MOL    H8625124   5.991   6.090   3.846 -3.8111 -1.0608 -3.9286
   40MOL    H8725125   6.080   5.991   3.958 -0.8753  1.2109  0.8335
   40MOL    H8825126   5.959   5.811   4.021 -2.6530  1.5000  2.0500
   40MOL    H8925127   5.801   5.640   4.024 -3.5275 -0.3967  0.1213
   40MOL    H9025128   5.742   5.683   3.861  2.2452  1.1054 -1.3672
   40MOL    H9125129   5.696   5.877   4.088 -0.3959 -2.7016  2.8605
   40MOL    H9225130   5.637   5.873   3.929 -0.5873 -1.1607 -1.3608
   40MOL    H9325131   5.609   5.662   4.149 -0.1413 -1.0593 -0.1782
   40MOL    H9425132   5.536   5.638   3.994 -0.4672  1.4892 -1.7674
   40MOL    H9525133   5.403   5.830   3.994 -0.5449 -4.5690 -1.0767
   40MOL    H9625134   5.448   5.895   4.142  1.2455 -0.4554 -0.6931
   40MOL    H9725135   5.368   5.624   4.176  0.3487 -0.3029 -0.0597
   40MOL    C9825136   5.216   5.753   4.192 -0.1489  0.2069 -0.6505
   40MOL    O9925137   5.170   5.866   4.185 -0.8584 -0.3665 -0.1849
   40MOL   C10025138   5.131   5.642   4.262 -0.2547  0.8308 -0.8258
   40MOL   C10125139   4.990   5.624   4.201  0.1986  0.4958  0.7956
   40MOL   C10225140   4.925   5.496   4.258 -0.5886  0.0422  0.8320
   40MOL   C10325141   4.903   5.501   4.409 -0.5263  0.3802  0.1813
   40MOL   C10425142   4.841   5.374   4.463  0.0963 -0.2017 -0.0954
   40MOL   O10525143   4.909   5.273   4.459  0.5930  0.1681 -0.3893
   40MOL   N10625144   4.722   5.380   4.527  1.0736  0.0691  0.1272
   40MOL   C10725145   4.683   5.274   4.622 -0.5488 -0.3460  0.0609
   40MOL   C10825146   4.643   5.139   4.563 -0.5951 -0.4988 -0.1027
   40MOL   C10925147   4.631   5.027   4.668 -0.0375  0.2669  0.3154
   40MOL   C11025148   4.543   4.913   4.620  0.2076 -0.3909 -0.0590
   40MOL   N11125149   4.413   4.965   4.577 -0.2534 -0.5996 -0.3200
   40MOL   H11225150   5.176   5.543   4.270  0.7962  1.2934 -0.9551
   40MOL   H11325151   5.129   5.673   4.366  1.3118 -3.5470  0.6232
   40MOL   H11425152   4.931   5.713   4.222 -0.8758 -0.1720  0.6127
   40MOL   H11525153   5.003   5.614   4.093  1.4310 -0.4222  1.0214
   40MOL   H11625154   4.996   5.418   4.231 -2.0061 -0.7564 -0.6692
   40MOL   H11725155   4.832   5.490   4.202  0.5535 -1.5571 -0.9866
   40MOL   H11825156   4.837   5.581   4.442 -0.2287  1.8902 -2.7430
   40MOL   H11925157   5.003   5.516   4.452 -0.7639 -1.7719  1.5454
   40MOL   H12025158   4.678   5.469   4.515 -3.6778 -2.2266 -0.5278
   40MOL   H12125159   4.598   5.320   4.672 -0.3627  0.8582 -0.7058
   40MOL   H12225160   4.760   5.259   4.698 -0.9683 -2.1911  0.1610
   40MOL   H12325161   4.552   5.149   4.505 -0.6886  0.2455  0.1680
   40MOL   H12425162   4.717   5.111   4.489  1.2429  0.1789  1.4208
   40MOL   H12525163   4.599   5.060   4.767 -1.8926 -0.8124  0.0910
   40MOL   H12625164   4.732   4.992   4.688 -0.1008 -0.4884 -0.6407
   40MOL   H12725165   4.527   4.841   4.699  2.3401  0.4379  1.1847
   40MOL   H12825166   4.591   4.864   4.535 -0.8421  0.8160 -1.3815
   40MOL   H12925167   4.395   4.988   4.481  1.6908 -0.1754 -0.5986
   40MOL   C13025168   4.321   5.017   4.659  0.2591 -0.3944 -0.1399
   40MOL   O13125169   4.309   5.008   4.782 -0.1287  0.1924 -0.2471
   40MOL   C13225170   4.221   5.110   4.597  0.3588 -0.4913 -0.2747
   40MOL   C13325171   4.135   5.203   4.693 -0.1620 -0.4082 -0.3053
   40MOL   C13425172   4.172   5.354   4.698  0.1499 -0.1239 -0.1367
   40MOL   C13525173   4.094   5.445   4.792  0.2530  0.2428 -0.3864
   40MOL   C13625174   4.120   5.409   4.937 -0.9297 -0.1914 -0.9762
   40MOL   O13725175   4.031   5.442   5.019  0.3951 -0.2174  0.0718
   40MOL   N13825176   4.237   5.354   4.980  0.4882  0.0443 -0.1942
   40MOL   C13925177   4.290   5.345   5.113 -0.4687  0.6642  0.1611
   40MOL   C14025178   4.330   5.481   5.163  0.6731 -0.1155 -0.1543
   40MOL   C14125179   4.396   5.485   5.302  0.3715 -0.1729  0.1863
   40MOL   C14225180   4.406   5.627   5.354 -0.1897  0.4859  0.0425
   40MOL   N14325181   4.507   5.653   5.463 -0.1605  0.3089  0.9051
   40MOL   H14425182   4.265   5.174   4.520 -1.1067 -1.4425 -1.9465
   40MOL   H14525183   4.147   5.048   4.547  0.4884 -1.3054  0.5353
   40MOL   H14625184   4.041   5.201   4.637  1.0287  0.2982 -2.3455
   40MOL   H14725185   4.117   5.166   4.794 -0.5497  2.2917  0.6459
   40MOL   H14825186   4.158   5.394   4.598 -4.5352 -1.0005  0.0296
   40MOL   H14925187   4.278   5.373   4.713 -0.0274  0.6909  0.1252
   40MOL   H15025188   3.987   5.429   4.780  0.5430 -1.8766 -0.4711
   40MOL   H15125189   4.115   5.549   4.771 -0.2791  0.5908  0.7638
   40MOL   H15225190   4.306   5.332   4.910 -0.9345 -0.6385 -1.4143
   40MOL   H15325191   4.364   5.265   5.106  3.0455  3.5046  2.9930
   40MOL   H15425192   4.214   5.298   5.175  0.6099  0.4065  1.3079
   40MOL   H15525193   4.397   5.536   5.096 -0.5181  1.1037 -0.3706
   40MOL   H15625194   4.243   5.547   5.156  1.1650  0.5295 -0.2371
   40MOL   H15725195   4.497   5.443   5.304  0.2906 -0.3378  1.7790
   40MOL   H15825196   4.345   5.422   5.375 -0.6195  0.5207  0.1017
   40MOL   H15925197   4.308   5.661   5.386 -0.7071 -0.8339 -0.1262
   40MOL   H16025198   4.428   5.692   5.270  1.5794  2.5581  2.0114
   40MOL   H16125199   4.595   5.697   5.442  0.3009 -0.0753  2.0025
   40MOL   C16225200   4.494   5.647   5.595 -0.5924  0.1481  0.7262
   40MOL   O16325201   4.397   5.598   5.647  0.2728  0.6659  0.1365
   40MOL   C16425202   4.617   5.678   5.679 -0.5990  0.1521 -0.8915
   40MOL   C16525203   4.607   5.613   5.829  0.3971 -0.3026 -0.4081
   40MOL   C16625204   4.741   5.587   5.894  0.0212 -0.4748 -0.0753
   40MOL   C16725205   4.734   5.562   6.043 -0.3737  0.4675 -0.3024
   40MOL   C16825206   4.694   5.685   6.113 -0.1487  0.0321 -0.3982
   40MOL   O16925207   4.743   5.798   6.083 -0.9688  0.2573  0.0720
   40MOL   N17025208   4.608   5.662   6.215  0.1832  0.1803  0.2758
   40MOL   C17125209   4.533   5.768   6.273 -0.3397  0.7330 -0.1632
   40MOL   C17225210   4.396   5.782   6.203  0.2678 -0.7208 -0.6386
   40MOL   C17325211   4.318   5.905   6.260 -0.0495  0.1153  0.2083
   40MOL   C17425212   4.169   5.906   6.227  0.1500 -0.2305  0.2695
   40MOL   N17525213   4.132   5.928   6.090 -0.1214  0.7506  0.0556
   40MOL   H17625214   4.704   5.643   5.623  0.8736  1.7675  0.3453
   40MOL   H17725215   4.635   5.785   5.684 -1.2437  0.2012  0.4694
   40MOL   H17825216   4.548   5.681   5.891 -0.5852  1.9314 -3.6643
   40MOL   H17925217   4.557   5.518   5.809  0.0708 -0.4494  1.0615
   40MOL   H18025218   4.801   5.676   5.879  0.5431 -0.6129  1.1523
   40MOL   H18125219   4.801   5.513   5.840 -0.0787 -2.2113  2.1181
   40MOL   H18225220   4.831   5.545   6.089 -1.1909 -0.8074  1.0061
   40MOL   H18325221   4.680   5.471   6.073  0.4140  0.1039  0.0147
   40MOL   H18425222   4.577   5.569   6.240 -2.2502  1.3429  1.7597
   40MOL   H18525223   4.589   5.861   6.266 -1.6042  1.6950  1.9147
   40MOL   H18625224   4.511   5.744   6.377 -1.6698 -2.6308 -1.1418
   40MOL   H18725225   4.419   5.802   6.098  1.6938 -2.0485 -0.6010
   40MOL   H18825226   4.344   5.688   6.221  0.7843 -0.9091 -0.1129
   40MOL   H18925227   4.350   6.002   6.221  1.6492 -1.1855 -1.7126
   40MOL   H19025228   4.335   5.901   6.368 -0.6279  0.5221  0.3173
   40MOL   H19125229   4.118   5.985   6.282 -2.7322 -0.8597 -1.4226
   40MOL   H19225230   4.119   5.822   6.274 -2.2815  0.4738 -0.9946
   40MOL   H19325231   4.203   5.926   6.019  1.9382  0.2796  2.0715
   40MOL   C19425232   4.001   5.917   6.050  0.2075  0.1573  0.1966
   40MOL   O19525233   3.911   5.892   6.127  0.5231  0.0427  0.4798
   40MOL   C19625234   3.988   5.924   5.904  0.3359 -0.0235 -0.0656
   40MOL   C19725235   3.847   5.913   5.847 -0.3564 -0.6570 -0.6478
   40MOL   C19825236   3.750   6.016   5.894 -0.3699 -0.4049  0.2237
   40MOL   C19925237   3.784   6.162   5.835  0.3748  0.1050 -0.1162
   40MOL   C20025238   3.775   6.176   5.683  0.1507 -0.1820 -0.3495
   40MOL   O20125239   3.880   6.205   5.620 -0.1334 -0.2346  0.2625
   40MOL   N20225240   3.666   6.152   5.615  0.6906  0.3775 -0.4628
   40MOL   C20325241   3.649   6.160   5.467  0.1253 -0.3648 -0.9291
   40MOL   C20425242   3.492   6.188   5.435 -0.3911 -0.1171  0.0997
   40MOL   C20525243   3.438   6.155   5.299 -0.1734  0.1405 -0.1221
   40MOL   C20625244   3.320   6.246   5.258  0.0610  0.2728  0.2910
   40MOL   N20725245   3.198   6.192   5.319  0.0071 -0.4366  0.5009
   40MOL   H20825246   4.036   6.015   5.867  0.6699 -0.7394 -1.4579
   40MOL   H20925247   4.056   5.852   5.858 -0.1378 -1.3687  1.3040
   40MOL   H21025248   3.842   5.909   5.738  0.4671 -0.8584 -0.6782
   40MOL   H21125249   3.819   5.811   5.872  0.2984 -0.2481  1.8766
   40MOL   H21225250   3.748   6.021   6.003 -3.0252  2.6844  0.1108
   40MOL   H21325251   3.647   5.993   5.867 -0.9002  1.6961  0.3761
   40MOL   H21425252   3.885   6.194   5.862  0.7070 -1.0510  0.0604
   40MOL   H21525253   3.719   6.243   5.868  1.6758  1.0252  0.2316
   40MOL   H21625254   3.587   6.118   5.668  1.8487 -2.3836 -0.3872
   40MOL   H21725255   3.678   6.058   5.440  1.3555 -0.0341 -0.8706
   40MOL   H21825256   3.707   6.235   5.413 -1.4996 -0.1764 -2.4899
   40MOL   H21925257   3.441   6.124   5.507 -0.5520 -0.7914 -0.6119
   40MOL   H22025258   3.468   6.290   5.465 -1.7617  0.7939 -3.7894
   40MOL   H22125259   3.417   6.049   5.286 -0.2558  0.0142  1.0322
   40MOL   H22225260   3.519   6.176   5.229  1.1943  1.3627  1.7907
   40MOL   H22325261   3.294   6.242   5.152  0.2536  2.4836  0.1202
   40MOL   H22425262   3.325   6.354   5.275  1.2759  0.4129 -0.7675
   40MOL   H22525263   3.215   6.113   5.379 -0.0584 -1.5656 -0.9350
   40MOL   C22625264   3.074   6.234   5.292 -0.1852  0.3233 -0.1730
   40MOL   O22725265   3.050   6.315   5.205  0.4475  0.0459 -0.2943
   40MOL   C22825266   2.960   6.188   5.382 -0.2297  0.0957 -0.0362
   40MOL   C22925267   2.890   6.292   5.473 -0.2466 -0.7679 -0.3183
   40MOL   C23025268   2.825   6.409   5.396 -0.9238  0.0815 -0.1439
   40MOL   C23125269   2.723   6.376   5.289 -0.4348  0.9561  0.4227
   40MOL   C23225270   2.599   6.311   5.355  0.4801  0.5000 -0.1515
   40MOL   O23325271   2.513   6.380   5.408 -0.1234  0.3170 -0.1593
   40MOL   N23425272   2.587   6.175   5.342  0.0637 -0.6609 -0.1444
   40MOL   C23525273   2.489   6.085   5.399  0.1653  0.2871  0.0070
   40MOL   C23625274   2.523   5.935   5.380 -0.3850  0.0597 -0.3150
   40MOL   C23725275   2.409   5.840   5.418  0.1559  0.1744  0.1496
   40MOL   C23825276   2.456   5.691   5.426 -0.9247  0.3338 -0.4626
   40MOL   N23925277   2.565   5.676   5.518  0.1096 -0.6702  0.6040
   40MOL   H24025278   2.884   6.143   5.318 -1.4617 -0.5938  1.8811
   40MOL   H24125279   2.993   6.106   5.446 -1.4270  0.8183  1.5352
   40MOL   H24225280   2.818   6.239   5.536 -0.0453  0.7390  1.2187
   40MOL   H24325281   2.961   6.333   5.545  0.0201 -1.2102 -0.3305
   40MOL   H24425282   2.900   6.468   5.342  0.0867 -0.7626  0.3224
   40MOL   H24525283   2.791   6.477   5.474 -0.3325 -1.2371  1.2974
   40MOL   H24625284   2.754   6.309   5.210 -0.7845 -0.0944  1.1597
   40MOL   H24725285   2.698   6.469   5.239 -0.6634  0.0706 -1.1227
   40MOL   H24825286   2.652   6.131   5.278  1.0473  0.1969  0.2508
   40MOL   H24925287   2.387   6.085   5.360  0.2146  2.4959 -0.1753
   40MOL   H25025288   2.477   6.112   5.504  1.9083 -1.2141  0.6239
   40MOL   H25125289   2.557   5.908   5.280 -1.5705  1.1446 -1.0383
   40MOL   H25225290   2.612   5.921   5.441  0.6915 -0.5608 -2.0083
   40MOL   H25325291   2.331   5.855   5.344  0.1460  1.9540  0.4851
   40MOL   H25425292   2.364   5.865   5.514 -0.5781  0.9584 -0.4016
   40MOL   H25525293   2.486   5.661   5.325  0.2491 -0.3901  0.1011
   40MOL   H25625294   2.371   5.629   5.453 -1.1060  0.3042 -1.0743
   40MOL   H25725295   2.559   5.716   5.611 -0.5601  0.2035  0.1911
   40MOL   C25825296   2.676   5.606   5.487  0.0641  0.0084  0.0946
   40MOL   O25925297   2.682   5.540   5.384  0.1590 -0.0352  0.4305
   40MOL   C26025298   2.812   5.618   5.568 -0.8026  0.5271 -0.1188
   40MOL   C26125299   2.939   5.642   5.483 -0.2580 -0.5916  0.1985
   40MOL   C26225300   2.959   5.787   5.436 -0.7992  0.2304 -0.2447
   40MOL   C26325301   3.096   5.813   5.357  0.3094  0.1646  0.1014
   40MOL   C26425302   3.207   5.848   5.451  0.6938 -0.9614  0.4720
   40MOL   O26525303   3.194   5.952   5.518  0.1262  0.2577 -0.4832
   40MOL   N26625304   3.309   5.768   5.448 -0.7209  0.7482 -1.0094
   40MOL   C26725305   3.422   5.785   5.551  0.0842  0.2599  0.1981
   40MOL   C26825306   3.538   5.700   5.529  0.6878 -0.1768 -0.8740
   40MOL   C26925307   3.662   5.742   5.618  0.4491 -0.1723  0.2464
   40MOL   C27025308   3.783   5.649   5.607  0.4379 -0.6552 -0.5982
   40MOL   N27125309   3.828   5.636   5.473  0.1579 -0.1968  0.5915
   40MOL   H27225310   2.810   5.692   5.649 -1.4922  0.2786  0.0965
   40MOL   H27325311   2.819   5.519   5.614 -2.5692  1.8176  3.1430
   40MOL   H27425312   3.030   5.616   5.536 -0.1095 -0.0157  0.2288
   40MOL   H27525313   2.927   5.588   5.390 -0.3476 -1.0236  0.4582
   40MOL   H27625314   2.961   5.853   5.523 -1.4129  1.6401 -1.2772
   40MOL   H27725315   2.874   5.820   5.376 -0.6587 -0.7509 -1.0052
   40MOL   H27825316   3.079   5.904   5.300  0.6057 -0.7376 -1.4470
   40MOL   H27925317   3.128   5.742   5.280 -2.4212  0.8157 -1.6829
   40MOL   H28025318   3.308   5.683   5.394  0.0442  0.2882 -0.3156
   40MOL   H28125319   3.385   5.760   5.650 -0.3117  0.4743  0.1053
   40MOL   H28225320   3.467   5.883   5.566 -1.5989  1.0669  0.1271
   40MOL   H28325321   3.522   5.594   5.542  0.7509  0.0708  1.2684
   40MOL   H28425322   3.560   5.719   5.423  0.2302  1.5896 -0.6746
   40MOL   H28525323   3.632   5.747   5.723  0.6899 -0.8993  0.3561
   40MOL   H28625324   3.690   5.843   5.589  2.5043  0.1310  3.1202
   40MOL   H28725325   3.736   5.561   5.651  0.7701  0.0695  1.2505
   40MOL   H28825326   3.861   5.684   5.675 -0.2909 -0.0427 -0.0714
   40MOL   H28925327   3.780   5.569   5.414 -1.3543  2.1340 -0.9241
   40MOL   C29025328   3.921   5.714   5.413  0.2806 -0.0869 -0.9878
   40MOL   O29125329   3.986   5.792   5.478  0.0142  0.0904 -0.1308
   40MOL   C29225330   3.946   5.683   5.268  0.0823 -0.5786  0.0291
   40MOL   C29325331   3.888   5.777   5.164  0.2783 -0.2051 -0.1849
   40MOL   C29425332   3.736   5.785   5.157  0.6696 -0.0332  0.3909
   40MOL   C29525333   3.694   5.921   5.105  0.1390 -0.5196  0.2442
   40MOL   C29625334   3.546   5.912   5.064  0.1473  0.2758  0.1190
   40MOL   O29725335   3.465   5.868   5.145 -0.1794 -0.0673  0.1892
   40MOL   N29825336   3.512   5.935   4.935 -0.1358 -0.2856  0.3077
   40MOL   C29925337   3.376   5.910   4.883  0.5012  0.5277  0.1114
   40MOL   C30025338   3.267   6.012   4.921 -0.2228 -0.8835 -0.3287
   40MOL   C30125339   3.124   5.976   4.881  0.6403  0.1624 -0.0425
   40MOL   C30225340   3.024   6.068   4.957 -0.8290  0.1560  0.2397
   40MOL   N30325341   2.893   6.037   4.911  0.3430 -0.3969  0.3255
   40MOL   H30425342   4.055   5.686   5.266  0.0663  2.1868  1.4297
   40MOL   H30525343   3.923   5.579   5.243  0.1322 -0.5213 -0.2532
   40MOL   H30625344   3.940   5.873   5.173  0.8934 -0.3051 -2.4928
   40MOL   H30725345   3.923   5.729   5.073 -1.8628  0.5721 -1.4533
   40MOL   H30825346   3.693   5.764   5.255 -1.2548  1.5039 -0.0971
   40MOL   H30925347   3.694   5.706   5.095 -0.8640 -0.0129  1.3863
   40MOL   H31025348   3.759   5.966   5.030  2.6673 -1.0523  2.0098
   40MOL   H31125349   3.696   5.983   5.195 -1.0267 -1.2669  0.7918
   40MOL   H31225350   3.574   5.945   4.856  0.5098  1.7459  1.0260
   40MOL   H31325351   3.361   5.805   4.909  1.8150 -0.3969 -2.6342
   40MOL   H31425352   3.385   5.920   4.775  1.4167  2.4617  0.3459
   40MOL   H31525353   3.273   6.021   5.029 -1.1620 -0.3219 -0.3145
   40MOL   H31625354   3.303   6.107   4.881 -2.5236 -1.0092 -2.8691
   40MOL   H31725355   3.104   5.875   4.916 -0.1308 -0.0513 -1.0722
   40MOL   H31825356   3.116   5.975   4.772  2.5446  2.5949 -0.2538
   40MOL   H31925357   3.049   6.171   4.933 -1.8499  0.0116 -1.5468
   40MOL   H32025358   3.032   6.061   5.065 -0.7140 -0.7866  0.1735
   40MOL   H32125359   2.874   6.041   4.812  3.2092 -0.3559 -0.2734
   40MOL   C32225360   2.792   6.006   5.002 -0.2703  0.4261  0.0961
   40MOL   O32325361   2.795   6.026   5.122  0.4425  0.0049 -0.1894
   40MOL   C32425362   2.662   5.940   4.937  0.1182  0.2459 -0.7024
   40MOL   C32525363   2.672   5.787   4.944 -0.7628 -0.7197  0.6075
   40MOL   C32625364   2.683   5.726   5.083 -0.1255 -0.1342  0.1069
   40MOL   C32725365   2.724   5.582   5.072 -0.2730 -0.8487 -0.0239
   40MOL   C32825366   2.609   5.493   5.027  0.4623  0.9732  0.1996
   40MOL   O32925367   2.510   5.470   5.095  0.4439 -0.8152 -0.5238
   40MOL   N33025368   2.623   5.431   4.910 -0.8458 -0.2742  0.0913
   40MOL   C33125369   2.554   5.306   4.870  1.3030 -0.3030 -0.3088
   40MOL   C33225370   2.414   5.352   4.802  0.0055 -0.6514  0.1299
   40MOL   C33325371   2.339   5.226   4.746 -0.0854 -0.4661  0.7080
   40MOL   C33425372   2.209   5.254   4.671  0.8529  0.9101  0.3627
   40MOL   N33525373   2.093   5.272   4.761  0.1160 -0.0429 -0.1804
   40MOL   H33625374   2.577   5.976   4.996  1.1325  0.8810  0.4002
   40MOL   H33725375   2.644   5.981   4.838 -0.8188  1.2821 -0.1153
   40MOL   H33825376   2.592   5.750   4.880 -0.1646 -0.1373 -0.5045
   40MOL   H33925377   2.750   5.759   4.873  0.3971  2.0725  0.7102
   40MOL   H34025378   2.585   5.743   5.128  0.6965  0.5554  1.7030
   40MOL   H34125379   2.764   5.766   5.145 -0.4167  0.5463  0.0516
   40MOL   H34225380   2.760   5.547   5.169  1.6493  3.1930  0.8215
   40MOL   H34325381   2.818   5.559   5.023 -1.0733 -1.3084 -1.3791
   40MOL   H34425382   2.718   5.422   4.876 -0.7800 -2.8468  0.9146
   40MOL   H34525383   2.535   5.231   4.947 -0.2750  1.4319  1.0369
   40MOL   H34625384   2.608   5.248   4.796 -1.2875 -2.3267 -0.6810
   40MOL   H34725385   2.348   5.400   4.875  1.5046  0.0537  1.0632
   40MOL   H34825386   2.447   5.427   4.731  0.8930 -1.2881 -0.1457
   40MOL   H34925387   2.334   5.146   4.821  2.3601 -3.2974 -2.0160
   40MOL   H35025388   2.408   5.185   4.673  0.3603  3.8555 -1.4335
   40MOL   H35125389   2.185   5.167   4.609  0.4126  0.6437  0.8932
   40MOL   H35225390   2.213   5.345   4.611  0.1946  0.1287 -0.9033
   40MOL   H35325391   2.046   5.188   4.794  0.0386 -0.7745 -2.0801
   40MOL   C35425392   2.027   5.391   4.788  0.2952 -0.7952 -0.2815
   40MOL   O35525393   2.041   5.490   4.716  0.4376 -0.5646 -0.0009
   40MOL   C35625394   1.908   5.393   4.899 -0.1270  0.0731 -0.0180
   40MOL   C35725395   1.772   5.424   4.841  0.1864  0.7408 -0.0736
   40MOL   C35825396   1.692   5.318   4.763 -0.6263  0.3719 -0.3441
   40MOL   C35925397   1.732   5.300   4.610  0.0881 -0.7161  0.2156
   40MOL   C36025398   1.632   5.209   4.529 -0.2037 -0.0889 -0.5579
   40MOL   O36125399   1.604   5.098   4.577  0.0009 -0.3449 -0.5404
   40MOL   N36225400   1.586   5.260   4.420  0.5249  0.1970 -0.0338
   40MOL   C36325401   1.501   5.186   4.323  0.4429 -0.2623  0.0878
   40MOL   C36425402   1.530   5.236   4.180  0.2107  0.1950  0.0770
   40MOL   C36525403   1.437   5.178   4.075  0.7524  0.0752  0.1501
   40MOL   C36625404   1.288   5.227   4.072 -0.1145  0.0775 -0.1733
   40MOL   N36725405   1.273   5.375   4.098 -0.3430  0.3457  0.0796
   40MOL   H36825406   1.897   5.302   4.957 -1.7941  0.8363  0.8979
   40MOL   H36925407   1.930   5.472   4.972 -0.7564  0.9103 -0.7217
   40MOL   H37025408   1.703   5.459   4.918 -1.2069 -1.2732 -0.3555
   40MOL   H37125409   1.781   5.507   4.770  2.4065  0.3843 -0.2266
   40MOL   H37225410   1.585   5.333   4.775 -0.4797  1.1052  0.0500
   40MOL   H37325411   1.702   5.227   4.822 -1.1134 -1.0787 -2.4287
   40MOL   H37425412   1.836   5.266   4.604  0.4564  0.0578  2.0122
   40MOL   H37525413   1.725   5.402   4.571 -2.3285 -1.3653 -1.1583
   40MOL   H37625414   1.622   5.352   4.398 -0.1707  0.6003  0.4907
   40MOL   H37725415   1.397   5.205   4.349  0.0347 -1.0805 -0.8892
   40MOL   H37825416   1.530   5.080   4.320  3.3655  0.5058 -0.3516
   40MOL   H37925417   1.524   5.345   4.181  1.4688  0.2738  0.1251
   40MOL   H38025418   1.635   5.213   4.163  0.4588  1.3926 -0.0493
   40MOL   H38125419   1.434   5.069   4.070 -1.0318  0.0047  2.0441
   40MOL   H38225420   1.481   5.207   3.979 -3.2436  0.5500 -1.6477
   40MOL   H38325421   1.228   5.170   4.143  0.4015 -1.2373 -0.7734
   40MOL   H38425422   1.244   5.191   3.979  0.1571 -0.1038 -0.2333
   40MOL   H38525423   1.227   5.401   4.183 -1.3000 -2.2001  0.3673
   40MOL   C38625424   1.308   5.470   4.011 -0.0158 -0.4649 -0.2687
   40MOL   O38725425   1.371   5.436   3.908 -0.3638 -0.3978 -0.2641
   40MOL   C38825426   1.269   5.619   4.032  0.8242 -0.2453  0.1158
   40MOL   C38925427   1.393   5.713   4.029  0.2635  0.7872 -0.0235
   40MOL   C39025428   1.496   5.700   4.143  0.8244  0.1642  0.8078
   40MOL   C39125429   1.451   5.751   4.287 -0.4462  0.4310  1.0195
   40MOL   C39225430   1.552   5.702   4.404  0.1562 -0.2647 -0.2464
   40MOL   O39325431   1.593   5.589   4.405  0.2519  0.5288  0.0146
   40MOL   N39425432   1.577   5.796   4.494 -0.5001  0.3102  0.4406
   40MOL   C39525433   1.640   5.773   4.622 -0.1818 -0.5048  0.0387
   40MOL   C39625434   1.781   5.842   4.635  0.4721 -0.3599 -0.0549
   40MOL   C39725435   1.846   5.825   4.775 -0.7705 -0.4302  0.8617
   40MOL   C39825436   1.775   5.895   4.892 -0.1040 -0.2592  0.3527
   40MOL   N39925437   1.849   5.870   5.013  0.1107 -0.3098  0.1002
   40MOL   H40025438   1.211   5.651   3.945  1.6563 -1.2996 -0.8376
   40MOL   H40125439   1.200   5.634   4.115  0.3762  1.9648 -0.6126
   40MOL   H40225440   1.439   5.700   3.931 -0.6245  0.5231 -0.4124
   40MOL   H40325441   1.356   5.815   4.024  0.0799  0.7655  0.8390
   40MOL   H40425442   1.587   5.755   4.119  0.1876  0.2753 -1.4469
   40MOL   H40525443   1.523   5.595   4.155 -1.4928 -0.3769  1.5532
   40MOL   H40625444   1.346   5.726   4.303 -0.1768 -0.1111  1.9877
   40MOL   H40725445   1.446   5.860   4.280  0.3677  0.2826 -2.5190
   40MOL   H40825446   1.532   5.886   4.480 -3.5125 -0.9968  1.4357
   40MOL   H40925447   1.641   5.665   4.639  2.3985 -0.7408 -1.1825
   40MOL   H41025448   1.570   5.813   4.694  0.3398  1.6593 -0.6383
   40MOL   H41125449   1.845   5.794   4.561  0.4023  2.6157 -2.1612
   40MOL   H41225450   1.765   5.947   4.607 -1.6017 -0.8675 -0.8667
   40MOL   H41325451   1.947   5.865   4.770 -0.2937 -1.8198 -1.5862
   40MOL   H41425452   1.852   5.718   4.790  0.4104 -0.7418 -1.5940
   40MOL   H41525453   1.675   5.854   4.904 -0.8607  1.2717 -0.6020
   40MOL   H41625454   1.764   6.001   4.870  0.3372 -0.5543 -1.3099
   40MOL   H41725455   1.944   5.837   5.010 -0.1579 -1.1947  1.3601
   40MOL   C41825456   1.800   5.927   5.127  0.3777  0.2463 -0.5413
   40MOL   O41925457   1.694   5.997   5.138 -0.7873 -0.0227 -0.5875
   40MOL   C42025458   1.895   5.922   5.250  0.0461  0.4762  0.6807
   40MOL   C42125459   1.854   5.811   5.345  0.4138 -0.7063  0.2424
   40MOL   C42225460   1.963   5.791   5.447 -0.1477  0.6125  0.2825
   40MOL   C42325461   1.969   5.905   5.553 -0.0240 -0.3119 -0.1287
   40MOL   C42425462   1.863   5.900   5.655  0.3655  0.2248 -0.5394
   40MOL   O42525463   1.751   5.841   5.646  0.1222 -0.5259  0.4388
   40MOL   N42625464   1.888   5.978   5.758 -0.4609  0.0186 -0.8744
   40MOL   C42725465   1.804   6.022   5.869 -0.3376  0.4081  0.6275
   40MOL   C42825466   1.882   6.100   5.975 -0.2627 -0.1207  0.4081
   40MOL   C42925467   1.794   6.175   6.078 -0.2821  0.4440  0.3385
   40MOL   C43025468   1.874   6.218   6.205  0.4234  0.9740  0.3200
   40MOL   N43125469   1.938   6.350   6.193  0.1772  0.2464 -0.1767
   40MOL   H43225470   1.998   5.902   5.223  0.3453  1.8499  0.7292
   40MOL   H43325471   1.898   6.023   5.292  0.5283  0.7476  0.0114
   40MOL   H43425472   1.754   5.823   5.387  0.9507 -1.1230  1.6719
   40MOL   H43525473   1.847   5.726   5.277 -0.1492  0.1425 -0.7758
   40MOL   H43625474   2.058   5.782   5.394 -2.1459 -1.7286 -3.0299
   40MOL   H43725475   1.949   5.696   5.499 -0.5671  0.5207 -0.0028
   40MOL   H43825476   1.958   6.003   5.507 -0.6193 -0.0986  0.4582
   40MOL   H43925477   2.061   5.906   5.612 -0.5984  1.4173  0.7578
   40MOL   H44025478   1.973   6.030   5.743  1.0830 -1.5828  1.8692
   40MOL   H44125479   1.778   5.926   5.913 -0.1706  0.1277  0.1202
   40MOL   H44225480   1.713   6.080   5.849 -0.5634 -0.0132  0.4332
   40MOL   H44325481   1.952   6.028   6.017  0.4169 -0.2237 -0.8590
   40MOL   H44425482   1.957   6.165   5.929 -0.5460  0.4996  0.8243
   40MOL   H44525483   1.714   6.106   6.103 -0.0220  0.1846  0.4564
   40MOL   H44625484   1.757   6.259   6.020 -0.9782  0.7273  1.1818
   40MOL   H44725485   1.960   6.152   6.218 -0.4292 -0.4487 -1.1379
   40MOL   H44825486   1.805   6.212   6.289 -1.1341  0.2706 -0.9774
   40MOL   H44925487   1.947   6.402   6.107  1.0508  2.3727  1.1715
   40MOL   C45025488   2.014   6.400   6.287  0.6651  0.0916 -0.6139
   40MOL   O45125489   2.080   6.501   6.258  0.6211  0.1481  0.0047
   40MOL   C45225490   2.009   6.349   6.431 -0.2438 -0.1295  0.0655
   40MOL   C45325491   2.135   6.403   6.510  0.3851  0.7062  0.0245
   40MOL   C45425492   2.129   6.364   6.657  0.2664 -0.3531 -0.1830
   40MOL   C45525493   2.247   6.424   6.731  0.2724  0.0164 -0.1843
   40MOL   C45625494   2.246   6.397   6.880 -0.7347  0.4841 -0.6660
   40MOL   O45725495   2.143   6.359   6.934  0.8109 -0.2841 -0.0130
   40MOL   N45825496   2.361   6.407   6.955  0.0442 -0.5267  0.2038
   40MOL   C45925497   2.382   6.402   7.102 -0.1293 -0.0097  0.0196
   40MOL   C46025498   2.509   6.482   7.144  0.0979 -0.0328  0.9047
   40MOL   C46125499   2.640   6.417   7.103  0.6394 -0.2714 -0.3187
   40MOL   C46225500   2.654   6.395   6.954  0.9448  0.2055 -0.1883
   40MOL   N46325501   2.621   6.517   6.884 -0.0048 -0.3537  0.0628
   40MOL   H46425502   1.921   6.393   6.477  0.3088  1.0656 -0.0176
   40MOL   H46525503   1.997   6.241   6.441  1.5194 -0.1864  1.8112
   40MOL   H46625504   2.230   6.374   6.463 -0.3971  1.2975 -1.9914
   40MOL   H46725505   2.131   6.512   6.507 -0.2521  0.6997  0.5274
   40MOL   H46825506   2.117   6.257   6.674 -4.8992 -0.2300 -2.0028
   40MOL   H46925507   2.031   6.392   6.696  0.7036 -1.5667  1.8990
   40MOL   H47025508   2.258   6.531   6.715 -0.6018  0.1752  0.2355
   40MOL   H47125509   2.334   6.373   6.690 -0.5226 -1.6550  0.1884
   40MOL   H47225510   2.431   6.455   6.901 -0.0450 -0.9570 -0.3038
   40MOL   H47325511   2.383   6.300   7.139  0.0348  0.3773  1.1265
   40MOL   H47425512   2.291   6.452   7.138  0.2194  1.2433 -0.8122
   40MOL   H47525513   2.494   6.584   7.109  1.1515 -0.7264 -1.6543
   40MOL   H47625514   2.507   6.498   7.252 -0.8820  0.7778  0.7661
   40MOL   H47725515   2.643   6.320   7.151 -2.7209 -0.2786  0.0059
   40MOL   H47825516   2.723   6.476   7.143  0.9749 -0.4221 -0.7871
   40MOL   H47925517   2.590   6.311   6.927 -0.4800  0.6418  1.7291
   40MOL   H48025518   2.755   6.355   6.946  0.7472 -0.8517  2.0589
   40MOL   H48125519   2.602   6.603   6.934 -3.7576 -0.1952 -1.4722
   40MOL   C48225520   2.610   6.518   6.755  0.6346 -0.7511 -0.5706
   40MOL   O48325521   2.612   6.414   6.690  0.2590  0.0637  0.1926
   40MOL   C48425522   2.592   6.655   6.695 -0.7320 -0.1014  0.2155
   40MOL   C48525523   2.575   6.656   6.535  0.0906  0.2958  0.0159
   40MOL   C48625524   2.449   6.586   6.482  0.3428 -0.1822 -0.3011
   40MOL   C48725525   2.449   6.556   6.331  0.9199 -0.2511  0.1651
   40MOL   C48825526   2.430   6.680   6.245  0.5860  0.4540  0.8179
   40MOL   O48925527   2.529   6.734   6.197  0.6348 -0.5626 -0.1233
   40MOL   N49025528   2.307   6.716   6.217 -0.0673 -0.5196 -0.0162
   40MOL   C49125529   2.271   6.840   6.151 -0.0591  0.1847  0.2054
   40MOL   C49225530   2.247   6.815   6.001  0.4670  0.1610  0.1416
   40MOL   C49325531   2.121   6.726   5.979 -0.3812 -0.7043 -0.3024
   40MOL   C49425532   2.109   6.709   5.829  0.3747 -0.0110  0.5732
   40MOL   N49525533   1.973   6.664   5.793 -0.0985 -0.0834  0.2566
   40MOL   H49625534   2.504   6.698   6.743  0.6156  1.2234  1.5312
   40MOL   H49725535   2.680   6.714   6.721 -0.1917 -1.6424  2.0158
   40MOL   H49825536   2.581   6.752   6.485  1.0767 -0.3101 -1.0547
   40MOL   H49925537   2.663   6.610   6.491  0.1771 -0.0396  0.5330
   40MOL   H50025538   2.360   6.638   6.517  1.3064  1.6480 -0.4971
   40MOL   H50125539   2.449   6.489   6.532 -1.7732  0.2447  0.5729
   40MOL   H50225540   2.372   6.483   6.307  1.9116 -1.1689 -0.2438
   40MOL   H50325541   2.540   6.514   6.289  0.2103 -0.0263 -1.6923
   40MOL   H50425542   2.232   6.677   6.272 -1.1505  2.2609  0.5545
   40MOL   H50525543   2.343   6.920   6.167  1.7973 -0.6316 -3.5703
   40MOL   H50625544   2.178   6.878   6.195  0.1531  1.5820 -0.5176
   40MOL   H50725545   2.222   6.916   5.971  0.1571  0.5984  1.8025
   40MOL   H50825546   2.341   6.775   5.962  0.2628  0.8062 -1.0157
   40MOL   H50925547   2.033   6.759   6.036 -0.0223  0.1400 -0.2400
   40MOL   H51025548   2.142   6.627   6.020  0.1979 -0.5474 -0.2285
   40MOL   H51125549   2.178   6.631   5.798  0.8428  0.6823 -0.1583
   40MOL   H51225550   2.131   6.803   5.778 -1.2154  1.0355  1.7516
   40MOL   H51325551   1.918   6.745   5.770  0.6430  0.9569  1.9766
   40MOL   C51425552   1.929   6.539   5.814 -0.2833 -0.3082 -0.2575
   40MOL   O51525553   2.000   6.441   5.844  0.0653  0.0925 -0.3561
   40MOL   C51625554   1.777   6.519   5.792  0.1351 -0.7886 -0.5492
   40MOL   C51725555   1.745   6.498   5.645  0.2868 -0.1616 -1.1080
   40MOL   C51825556   1.761   6.631   5.566  0.2275  0.1757 -0.2714
   40MOL   C51925557   1.687   6.626   5.434 -0.1785  0.1790  0.6496
   40MOL   C52025558   1.701   6.754   5.361  0.3068  0.2458 -0.4821
   40MOL   O52125559   1.655   6.860   5.406  0.0105  1.3491  0.2153
   40MOL   N52225560   1.765   6.744   5.242  0.0832 -0.5838  0.5742
   40MOL   C52325561   1.792   6.859   5.155  0.3865  0.0799  0.0825
   40MOL   C52425562   1.877   6.821   5.025  0.1802  0.6019  0.8710
   40MOL   C52525563   1.845   6.911   4.907 -0.3128 -0.6328  0.0807
   40MOL   C52625564   1.922   6.885   4.784  0.5177  0.5286  0.4322
   40MOL   N52725565   1.917   6.751   4.736  0.1151  0.1932 -0.5147
   40MOL   H52825566   1.750   6.428   5.844  2.6096 -1.9573 -1.2390
   40MOL   H52925567   1.718   6.601   5.833 -0.6450 -1.6216  0.0059
   40MOL   H53025568   1.808   6.419   5.604  0.7140 -0.0247 -0.7117
   40MOL   H53125569   1.640   6.469   5.638  0.1001 -0.0477  1.1246
   40MOL   H53225570   1.863   6.661   5.545  0.3327  1.4467  1.9727
   40MOL   H53325571   1.720   6.707   5.632  0.7524  0.6543 -0.4975
   40MOL   H53425572   1.583   6.608   5.460 -0.1427  0.8053  1.2482
   40MOL   H53525573   1.737   6.554   5.370 -1.3197 -0.3107  0.3025
   40MOL   H53625574   1.785   6.651   5.207 -0.0094 -0.4548  0.1689
   40MOL   H53725575   1.837   6.939   5.214  1.5687  0.9400 -1.9305
   40MOL   H53825576   1.693   6.887   5.118 -0.2159 -1.8843  0.1426
   40MOL   H53925577   1.985   6.831   5.032  0.4049 -1.3384  0.6649
   40MOL   H54025578   1.855   6.715   5.008  0.3420  0.5756  0.8242
   40MOL   H54125579   1.870   7.013   4.937 -0.5817 -0.5221 -0.0681
   40MOL   H54225580   1.739   6.912   4.881  0.1473 -2.2945 -1.9903
   40MOL   H54325581   2.024   6.912   4.809  0.5850  1.2269 -0.5532
   40MOL   H54425582   1.895   6.953   4.703  1.9259  0.8693  0.2363
   40MOL   H54525583   1.826   6.711   4.717  0.5464 -0.3208 -1.5437
   40MOL   C54625584   2.024   6.675   4.706 -0.3558 -0.0089 -0.1213
   40MOL   O54725585   2.136   6.710   4.722 -0.0196  0.2914 -0.5943
   40MOL   C54825586   1.993   6.534   4.655 -0.0211 -0.9293  0.0846
   40MOL   C54925587   2.037   6.424   4.751  0.1083  0.8603  0.2791
   40MOL   C55025588   1.950   6.445   4.888 -0.4285 -0.4787  0.0790
   40MOL   C55125589   1.951   6.327   4.980 -0.5048  0.0655  0.3577
   40MOL   C55225590   1.910   6.371   5.122  0.1365  0.7600 -1.0198
   40MOL   O55325591   1.799   6.412   5.149 -0.2463  0.1026 -0.0922
   40MOL   N55425592   2.016   6.361   5.205 -0.0510 -0.2306  0.2079
   40MOL   C55525593   2.005   6.381   5.348 -0.2030 -0.2960  0.9022
   40MOL   C55625594   2.127   6.330   5.421 -0.3053 -0.3085  0.1003
   40MOL   C55725595   2.130   6.364   5.571  0.5125  0.2950  0.0802
   40MOL   C55825596   2.230   6.274   5.653 -0.2317 -0.0277  0.9289
   40MOL   N55925597   2.232   6.296   5.792  0.5783  0.0024  0.1249
   40MOL   H56025598   1.889   6.521   4.625 -0.8165  0.8547  1.9721
   40MOL   H56125599   2.054   6.532   4.565 -0.7891  2.1635 -0.5852
   40MOL   H56225600   2.013   6.329   4.704 -0.1072 -0.1122  2.2878
   40MOL   H56325601   2.145   6.430   4.763  0.3734 -1.1506 -0.9528
   40MOL   H56425602   1.850   6.477   4.860 -0.4201 -2.0995 -1.9278
   40MOL   H56525603   1.981   6.524   4.957  2.5343 -2.1113  0.7308
   40MOL   H56625604   2.054   6.295   4.973  0.1569  2.3566 -0.6782
   40MOL   H56725605   1.899   6.240   4.940 -0.7893  0.7666 -0.8116
   40MOL   H56825606   2.104   6.331   5.165 -0.1871  0.5063 -0.6632
   40MOL   H56925607   1.911   6.345   5.390 -0.7066  1.3807  1.2564
   40MOL   H57025608   1.997   6.487   5.373  3.2004 -0.3260  2.2715
   40MOL   H57125609   2.144   6.225   5.398  0.3788 -0.0195 -0.7463
   40MOL   H57225610   2.215   6.384   5.387 -0.5955  0.1066  0.0050
   40MOL   H57325611   2.030   6.336   5.606  0.0307  2.4255  0.4465
   40MOL   H57425612   2.148   6.471   5.577  1.7668  0.3457 -3.4933
   40MOL   H57525613   2.334   6.296   5.626  1.1925 -3.6787  3.1090
   40MOL   H57625614   2.216   6.168   5.631  2.1117 -0.8638  3.1367
   40MOL   H57725615   2.205   6.387   5.827 -0.0863 -0.7503  1.6102
   40MOL   C57825616   2.260   6.214   5.894  0.1084  0.4864  0.2096
   40MOL   O57925617   2.262   6.093   5.873 -0.7122 -0.2414  0.5036
   40MOL   C58025618   2.293   6.281   6.025  0.1406 -0.3595 -0.3738
   40MOL   C58125619   2.359   6.180   6.127 -0.6472  0.1377 -0.5311
   40MOL   C58225620   2.260   6.103   6.218  0.7341  0.5599  0.1537
   40MOL   C58325621   2.326   5.991   6.294  0.2950 -0.2925 -0.3868
   40MOL   C58425622   2.239   5.924   6.406 -0.4278  0.0217  0.3706
   40MOL   O58525623   2.130   5.976   6.442  0.4863  0.3251  0.7058
   40MOL   N58625624   2.287   5.808   6.449  0.4060 -0.4835  0.5533
   40MOL   C58725625   2.213   5.720   6.536 -0.6279  0.9975  0.1341
   40MOL   C58825626   2.260   5.746   6.674  0.3147 -0.6422 -0.6954
   40MOL   C58925627   2.217   5.631   6.766 -0.4231 -0.7978 -0.4190
   40MOL   C59025628   2.073   5.637   6.806  0.8613  0.0368 -0.1660
   40MOL   N59125629   2.054   5.758   6.884 -0.1001 -0.8730  0.3038
   40MOL   H59225630   2.363   6.364   6.012  1.5435 -1.2648  1.1779
   40MOL   H59325631   2.211   6.323   6.082  2.6798  3.2570  0.8398
   40MOL   H59425632   2.427   6.109   6.078  0.4563  0.1782  0.8959
   40MOL   H59525633   2.428   6.231   6.195 -1.4319  0.2501  0.1873
   40MOL   H59625634   2.172   6.062   6.167  0.1573  1.8952  0.0563
   40MOL   H59725635   2.218   6.178   6.285 -0.8992  0.0298 -0.2577
   40MOL   H59825636   2.411   6.033   6.348 -0.6878  2.0628 -0.5826
   40MOL   H59925637   2.356   5.914   6.223 -0.3719 -2.1585  1.3182
   40MOL   H60025638   2.380   5.778   6.421  0.6734  0.2122  0.6833
   40MOL   H60125639   2.253   5.620   6.515  2.0756  2.0758 -0.0926
   40MOL   H60225640   2.106   5.718   6.518 -0.3605 -3.3000 -1.6393
   40MOL   H60325641   2.369   5.756   6.679  0.3981 -1.1019 -1.5031
   40MOL   H60425642   2.219   5.844   6.696  1.7921 -0.1377 -0.1527
   40MOL   H60525643   2.278   5.623   6.856 -0.5079 -0.5658 -0.3416
   40MOL   H60625644   2.234   5.535   6.717  1.4520  0.5861 -2.5852
   40MOL   H60725645   2.041   5.552   6.867  0.6424 -0.9231 -1.6032
   40MOL   H60825646   2.012   5.642   6.716  0.2836  1.0547  0.2746
   40MOL   H60925647   2.132   5.809   6.923  0.5021 -1.0809 -0.6334
   40MOL   C61025648   1.935   5.816   6.916 -0.2355  0.9357  0.5785
   40MOL   O61125649   1.831   5.759   6.882 -0.1034  0.0270  0.3896
   40MOL   C61225650   1.927   5.945   7.002 -0.1210  0.0427  0.5525
   40MOL   C61325651   1.790   6.008   7.037 -0.5235 -1.2363 -0.6446
   40MOL   C61425652   1.814   6.159   7.063 -0.1752  0.3093 -0.5629
   40MOL   C61525653   1.915   6.191   7.171 -0.2750 -0.8777  0.1405
   40MOL   C61625654   1.882   6.323   7.246  0.8961 -0.1347 -0.8183
   40MOL   O61725655   1.817   6.307   7.353  0.2362  0.7889  0.6301
   40MOL   N61825656   1.933   6.438   7.194 -0.2660 -0.0548 -0.6335
   40MOL   C61925657   1.930   6.565   7.257  0.2580  0.2927 -0.1631
   40MOL   C62025658   1.824   6.659   7.194  0.4565 -0.6257  0.7266
   40MOL   C62125659   1.844   6.697   7.046  0.7741  0.2525 -0.9027
   40MOL   C62225660   1.753   6.816   7.009  0.2444 -0.0374  0.6316
   40MOL   N62325661   1.733   6.822   6.870  0.1763  0.4916  0.6617
   40MOL   H62425662   1.974   5.918   7.097  1.4654 -1.5206 -0.6617
   40MOL   H62525663   1.983   6.019   6.945 -0.2461 -0.2477  0.0552
   40MOL   H62625664   1.717   5.997   6.956 -0.5101 -0.3453 -0.7844
   40MOL   H62725665   1.750   5.964   7.128 -0.1488 -1.4133 -0.5643
   40MOL   H62825666   1.720   6.191   7.109  0.3482 -1.1077  1.6104
   40MOL   H62925667   1.838   6.211   6.971  1.3126 -1.1304 -1.0253
   40MOL   H63025668   2.018   6.202   7.135 -1.3738 -2.1070 -3.6020
   40MOL   H63125669   1.910   6.118   7.251  0.6305 -0.3796  0.6524
   40MOL   H63225670   1.990   6.421   7.112  0.5626 -0.0328 -0.0656
   40MOL   H63325671   2.034   6.599   7.259 -0.4400  2.4453  1.2272
   40MOL   H63425672   1.901   6.560   7.362 -0.2809 -2.9214 -0.4127
   40MOL   H63525673   1.726   6.611   7.198  0.5948 -1.2731 -2.4915
   40MOL   H63625674   1.814   6.754   7.247  1.5103  1.1257 -2.0679
   40MOL   H63725675   1.818   6.607   6.990  1.7503  0.0705 -1.0882
   40MOL   H63825676   1.945   6.732   7.023  1.0560 -0.3867 -0.6510
   40MOL   H63925677   1.804   6.906   7.044 -1.5848  0.8413  1.1216
   40MOL   H64025678   1.654   6.803   7.052 -0.7113  0.5662 -1.3196
   40MOL   H64125679   1.818   6.818   6.815  0.0674  0.5531  0.4858
   40MOL   H64225680   1.690   6.731   6.860 -0.1246  0.9380 -3.0823
   41MOL     C125681   7.198   2.800   3.323  0.6240 -0.2965 -0.5236
   41MOL     O225682   7.289   2.804   3.402 -0.5398  0.0143 -0.2454
   41MOL     C325683   7.076   2.885   3.350 -0.0539 -0.1773  0.6893
   41MOL     C425684   7.017   2.859   3.486  0.2865  0.2135 -1.0912
   41MOL     C525685   6.893   2.942   3.529  0.9768  0.6669 -0.0452
   41MOL     C625686   6.838   2.897   3.674  0.2758  0.7665 -0.1273
   41MOL     C725687   6.765   2.763   3.680 -0.0813 -0.3549  0.1525
   41MOL     O825688   6.782   2.682   3.592 -0.6963 -0.5825 -0.2747
   41MOL     N925689   6.697   2.733   3.793 -0.0220  0.0091  0.2322
   41MOL    C1025690   6.642   2.602   3.823  0.1612  0.3698  0.6186
   41MOL    C1125691   6.539   2.623   3.931  0.0545 -0.4077  0.3263
   41MOL    C1225692   6.489   2.493   3.989 -0.1877  0.9449 -0.0320
   41MOL    C1325693   6.373   2.505   4.091  0.4243 -0.0069 -0.2114
   41MOL    N1425694   6.260   2.573   4.030 -0.0598 -0.0608  0.2144
   41MOL    H1525695   7.101   2.991   3.342  1.3678 -0.1985  3.9051
   41MOL    H1625696   7.005   2.868   3.269 -1.2239  2.0227  1.1999
   41MOL    H1725697   7.002   2.751   3.498  1.6131  0.2129  0.8054
   41MOL    H1825698   7.096   2.879   3.559  1.2982 -1.1227 -1.8025
   41MOL    H1925699   6.820   2.920   3.452  1.2790 -0.2822 -0.0687
   41MOL    H2025700   6.925   3.046   3.528 -1.5996  1.4735 -0.2414
   41MOL    H2125701   6.762   2.972   3.697 -0.4433 -0.2776  0.9409
   41MOL    H2225702   6.914   2.896   3.752  2.3312  0.6118 -2.0955
   41MOL    H2325703   6.684   2.805   3.862  2.5519  1.7442 -1.0224
   41MOL    H2425704   6.729   2.549   3.861  0.6941  0.5022 -0.4122
   41MOL    H2525705   6.607   2.553   3.732 -0.3282  1.5321  0.1742
   41MOL    H2625706   6.571   2.697   4.004  0.4129  0.7760 -1.0094
   41MOL    H2725707   6.459   2.682   3.888 -1.0702 -2.1932 -0.1012
   41MOL    H2825708   6.575   2.434   4.023  0.0963  1.4076  0.0505
   41MOL    H2925709   6.461   2.436   3.901 -0.1665  3.5202 -1.7373
   41MOL    H3025710   6.413   2.566   4.172  2.3953 -2.7716  0.9509
   41MOL    H3125711   6.348   2.403   4.120 -0.9407  0.1221 -0.8725
   41MOL    H3225712   6.251   2.673   4.042  1.2240  0.4972 -2.9936
   41MOL    H3325713   7.200   2.736   3.235  1.8823  1.6755 -1.9634
   41MOL    C3425714   6.172   2.517   3.939  0.0050 -0.8309 -0.4420
   41MOL    O3525715   6.168   2.392   3.920  0.1451  0.2619 -0.7805
   41MOL    C3625716   6.069   2.604   3.862  0.1510 -0.1303 -0.1491
   41MOL    C3725717   5.964   2.522   3.784  0.5377 -0.0747 -0.9076
   41MOL    C3825718   5.836   2.600   3.742 -0.2829 -0.0839 -0.3214
   41MOL    C3925719   5.738   2.638   3.856 -0.4051 -0.4366 -0.5880
   41MOL    C4025720   5.686   2.516   3.923  0.0567 -0.0300 -0.3963
   41MOL    O4125721   5.752   2.471   4.012  0.1626  0.2529  0.1063
   41MOL    N4225722   5.570   2.462   3.882  0.0140 -0.5101  0.1210
   41MOL    C4325723   5.518   2.340   3.938 -0.6326  0.1832  0.4814
   41MOL    C4425724   5.466   2.367   4.081  0.2660 -0.5404 -0.4790
   41MOL    C4525725   5.403   2.248   4.149  0.3404 -0.1049  0.0957
   41MOL    C4625726   5.392   2.258   4.297 -0.8701  0.3935 -0.1611
   41MOL    N4725727   5.329   2.145   4.356  0.2231  0.1861  0.4156
   41MOL    H4825728   6.012   2.668   3.929  2.8617  0.0614  2.0631
   41MOL    H4925729   6.123   2.664   3.790  0.9664 -1.3745 -0.5988
   41MOL    H5025730   6.014   2.481   3.696  1.3512 -2.0144  0.4097
   41MOL    H5125731   5.936   2.436   3.845 -0.3750 -1.0771 -2.7071
   41MOL    H5225732   5.780   2.530   3.680 -0.6882 -0.9530  1.0128
   41MOL    H5325733   5.870   2.685   3.682 -0.3200 -0.5064 -0.9464
   41MOL    H5425734   5.656   2.704   3.826 -1.5934 -2.3264 -1.5591
   41MOL    H5525735   5.792   2.702   3.926 -0.9360  0.4621 -0.9885
   41MOL    H5625736   5.507   2.499   3.811  2.0944  0.7179 -1.1177
   41MOL    H5725737   5.595   2.263   3.945 -1.2984 -0.6084 -0.6531
   41MOL    H5825738   5.447   2.285   3.875 -0.2349  1.4999 -1.1650
   41MOL    H5925739   5.549   2.401   4.143  1.4708 -0.6806 -1.9717
   41MOL    H6025740   5.396   2.449   4.090  0.3048 -0.5287 -0.2791
   41MOL    H6125741   5.472   2.165   4.135  1.4130  0.4656  1.7835
   41MOL    H6225742   5.307   2.228   4.103  1.4355  0.1160 -2.3727
   41MOL    H6325743   5.332   2.346   4.320  0.6937  1.4270  0.0183
   41MOL    H6425744   5.486   2.257   4.352 -0.4988  0.8575 -0.7934
   41MOL    H6525745   5.379   2.091   4.425  1.6016 -0.5047 -1.0927
   41MOL    C6625746   5.197   2.110   4.344 -0.3455  1.4721 -0.2698
   41MOL    O6725747   5.125   2.181   4.266  0.1561  0.6974 -0.6622
   41MOL    C6825748   5.145   1.988   4.424  0.0071  0.9449  0.0065
   41MOL    C6925749   5.099   1.869   4.344  0.2006  0.2672  0.5345
   41MOL    C7025750   5.205   1.793   4.272  0.5633 -0.1806 -0.2802
   41MOL    C7125751   5.157   1.669   4.192 -0.2611  0.6717 -0.2800
   41MOL    C7225752   5.167   1.537   4.275 -0.6453 -0.2147  0.4478
   41MOL    O7325753   5.101   1.522   4.379 -0.1917 -0.4311  0.4877
   41MOL    N7425754   5.262   1.455   4.230 -0.4942 -0.6599  0.0246
   41MOL    C7525755   5.315   1.335   4.292  0.1514  0.3562 -0.3172
   41MOL    C7625756   5.452   1.349   4.354 -0.2446 -0.7899 -0.0801
   41MOL    C7725757   5.461   1.444   4.481 -0.0992 -0.0273 -0.0725
   41MOL    C7825758   5.589   1.433   4.561 -0.4835  0.0691 -0.6263
   41MOL    N7925759   5.699   1.512   4.511 -0.5034  0.5193 -0.1631
   41MOL    H8025760   5.231   1.969   4.489  0.7207  1.8378 -0.6691
   41MOL    H8125761   5.056   2.020   4.479 -1.3603 -1.0849 -0.9986
   41MOL    H8225762   5.043   1.805   4.412 -1.5073 -0.2705 -1.3384
   41MOL    H8325763   5.014   1.891   4.280  0.8486  0.7261 -0.1668
   41MOL    H8425764   5.271   1.753   4.349  2.8628  1.1639 -1.5000
   41MOL    H8525765   5.253   1.860   4.201  0.9236 -0.1232  0.0158
   41MOL    H8625766   5.217   1.666   4.101  0.0368  1.8358 -0.1225
   41MOL    H8725767   5.054   1.669   4.156 -0.3870 -0.4441  0.0479
   41MOL    H8825768   5.297   1.473   4.137 -1.7517 -0.4416 -0.4143
   41MOL    H8925769   5.334   1.279   4.200 -0.6565 -1.3673  0.5298
   41MOL    H9025770   5.231   1.281   4.336  0.0343  0.3428 -0.5530
   41MOL    H9125771   5.496   1.259   4.397  1.3082  0.1727  0.4155
   41MOL    H9225772   5.530   1.380   4.284  0.8438  0.2937  1.5671
   41MOL    H9325773   5.390   1.403   4.552  0.2961  2.7879  2.0336
   41MOL    H9425774   5.439   1.549   4.468 -3.5287 -0.7607 -0.5678
   41MOL    H9525775   5.628   1.332   4.555 -1.1328 -0.1513 -1.1080
   41MOL    H9625776   5.585   1.459   4.667 -0.3685 -0.1294 -0.5723
   41MOL    H9725777   5.685   1.545   4.417  1.8127 -0.5557 -0.8987
   41MOL    C9825778   5.818   1.520   4.576  0.8971 -0.2499  0.3372
   41MOL    O9925779   5.842   1.466   4.685  0.5589 -0.2791 -0.3276
   41MOL   C10025780   5.928   1.591   4.494  0.1080 -0.9199  0.0773
   41MOL   C10125781   5.923   1.750   4.494 -0.6485  0.3967  0.7301
   41MOL   C10225782   5.963   1.807   4.633 -0.7959  0.0722  0.3337
   41MOL   C10325783   5.981   1.959   4.641  0.0048 -0.2464 -0.0903
   41MOL   C10425784   6.124   2.012   4.643  0.1043 -0.0459 -0.2707
   41MOL   O10525785   6.208   1.960   4.716  0.0758 -0.0740 -0.6658
   41MOL   N10625786   6.165   2.113   4.571 -0.9676 -0.9698 -0.0563
   41MOL   C10725787   6.299   2.173   4.593 -0.5603 -0.1295 -0.1077
   41MOL   C10825788   6.308   2.305   4.526  0.2005 -0.3443  0.0611
   41MOL   C10925789   6.436   2.369   4.560 -0.5188 -0.6149 -0.7805
   41MOL   C11025790   6.471   2.491   4.466 -0.6189  0.5956  0.1183
   41MOL   N11125791   6.616   2.514   4.471  0.3603 -0.0010  0.7364
   41MOL   H11225792   6.024   1.555   4.529  0.4514 -1.5489 -1.4612
   41MOL   H11325793   5.918   1.554   4.392 -2.1941 -0.3947  0.0744
   41MOL   H11425794   5.983   1.794   4.415  0.6386 -0.8635  0.9842
   41MOL   H11525795   5.821   1.777   4.467 -0.5142  0.5737  0.4011
   41MOL   H11625796   6.042   1.746   4.678 -0.5850  0.7357  0.8633
   41MOL   H11725797   5.881   1.785   4.702 -1.5005  0.4092 -0.3797
   41MOL   H11825798   5.916   1.994   4.721 -1.6212 -1.7003 -0.7418
   41MOL   H11925799   5.934   2.005   4.554  0.8955 -0.6540 -0.7909
   41MOL   H12025800   6.108   2.164   4.505  0.0604 -0.8285 -0.8414
   41MOL   H12125801   6.385   2.115   4.560 -0.6503  0.1745 -0.8764
   41MOL   H12225802   6.313   2.205   4.696  0.8474  0.2750 -0.4177
   41MOL   H12325803   6.302   2.294   4.418 -1.0209  0.1502  0.0701
   41MOL   H12425804   6.226   2.374   4.548  1.2131  1.4114 -1.5347
   41MOL   H12525805   6.510   2.290   4.559 -0.0874 -0.2794  1.5936
   41MOL   H12625806   6.442   2.419   4.657 -0.3258  0.9395 -1.5738
   41MOL   H12725807   6.409   2.576   4.495 -1.0776  0.6134 -0.8893
   41MOL   H12825808   6.445   2.478   4.361 -1.9305  1.5418  0.3197
   41MOL   H12925809   6.675   2.450   4.419  1.7646  1.0704  0.9747
   41MOL   C13025810   6.672   2.609   4.542 -0.3530  0.5176  0.4909
   41MOL   O13125811   6.609   2.695   4.598 -0.0479 -0.8370  0.0884
   41MOL   C13225812   6.827   2.613   4.532  0.2341 -0.1407 -0.7251
   41MOL   C13325813   6.899   2.747   4.576  0.6002  0.0702 -0.0650
   41MOL   C13425814   6.871   2.868   4.486 -0.0426  0.0741  0.2138
   41MOL   C13525815   6.928   3.002   4.540  0.6342  0.4060  0.3031
   41MOL   C13625816   7.083   3.012   4.530 -0.4573  0.2432 -0.0430
   41MOL   O13725817   7.148   2.930   4.466 -0.4955 -0.2312  0.0623
   41MOL   N13825818   7.142   3.103   4.605  0.2093 -0.1312  0.7698
   41MOL   C13925819   7.279   3.145   4.580  0.2217 -0.1665  0.1371
   41MOL   C14025820   7.331   3.226   4.707 -0.1613 -0.5297 -0.3625
   41MOL   C14125821   7.477   3.274   4.696  0.4754 -0.8979  0.1029
   41MOL   C14225822   7.545   3.317   4.822  0.3233  0.2384 -0.0657
   41MOL   N14325823   7.588   3.203   4.903  0.3688 -0.2542  0.0997
   41MOL   H14425824   6.863   2.529   4.592  0.9400  0.1868 -0.6897
   41MOL   H14525825   6.852   2.586   4.430  0.2464 -1.6016 -0.3477
   41MOL   H14625826   6.859   2.777   4.673 -0.3489 -1.2631 -0.0325
   41MOL   H14725827   7.003   2.717   4.592  1.3590  1.5759 -1.9160
   41MOL   H14825828   6.764   2.886   4.472  0.3687  1.5112 -1.3053
   41MOL   H14925829   6.905   2.845   4.386  2.1415  2.3347  0.4013
   41MOL   H15025830   6.887   3.028   4.637 -0.6253 -0.5620  0.0360
   41MOL   H15125831   6.892   3.078   4.470 -2.0082 -0.9827  0.1046
   41MOL   H15225832   7.079   3.164   4.655  0.6801  1.8436 -0.9640
   41MOL   H15325833   7.279   3.199   4.485  0.6348 -0.5634 -0.0887
   41MOL   H15425834   7.347   3.061   4.565  3.9963  1.9115  4.3861
   41MOL   H15525835   7.273   3.317   4.721  1.7733  0.7959 -0.7719
   41MOL   H15625836   7.318   3.169   4.799 -1.0318  1.7619  0.9761
   41MOL   H15725837   7.469   3.360   4.630  2.3535  0.8651  2.0664
   41MOL   H15825838   7.549   3.209   4.647 -1.7037 -1.3352 -2.6368
   41MOL   H15925839   7.481   3.391   4.869  1.5265  1.2487  0.0122
   41MOL   H16025840   7.634   3.376   4.799  0.6524 -0.3610 -0.3514
   41MOL   H16125841   7.517   3.135   4.929  0.1148  0.5616  1.5822
   41MOL   C16225842   0.005   3.162   4.941 -0.5131  0.3938 -0.2685
   41MOL   O16325843   0.108   3.227   4.922 -0.3423 -0.0748  0.0595
   41MOL   C16425844   0.023   3.038   5.026 -0.0114 -0.4951 -0.0316
   41MOL   C16525845   0.171   2.985   5.018 -0.4543 -0.0576 -0.4925
   41MOL   C16625846   0.207   2.927   4.879  0.0733 -0.0738  0.1444
   41MOL   C16725847   0.319   2.822   4.876  0.2558  0.1465  0.4913
   41MOL   C16825848   0.259   2.689   4.934  0.5107  0.5196 -0.0895
   41MOL   O16925849   0.162   2.640   4.882 -0.0011  0.3432  0.7338
   41MOL   N17025850   0.306   2.629   5.045  0.2401  0.2097 -0.2348
   41MOL   C17125851   0.425   2.666   5.124  0.1340  0.0608 -0.1948
   41MOL   C17225852   0.556   2.604   5.065 -0.3722 -0.3354  0.0534
   41MOL   C17325853   0.537   2.450   5.036  0.3225  0.1990  0.0707
   41MOL   C17425854   0.665   2.366   5.025 -1.0130  0.0775 -0.0075
   41MOL   N17525855   0.630   2.227   5.048 -0.2739  0.6326  0.5821
   41MOL   H17625856   0.012   3.059   5.132  0.8451 -0.3284  0.0224
   41MOL   H17725857   7.648   2.961   5.014  0.5005 -1.3070  1.7776
   41MOL   H17825858   0.251   3.053   5.047  0.3341 -1.6160  1.1220
   41MOL   H17925859   0.184   2.908   5.094  1.0326 -0.2193 -0.8843
   41MOL   H18025860   0.242   3.009   4.816 -2.9908  0.9071 -0.3893
   41MOL   H18125861   0.113   2.896   4.832  0.2198 -2.4001  1.3447
   41MOL   H18225862   0.404   2.875   4.919 -0.2668  1.6716 -0.3026
   41MOL   H18325863   0.343   2.810   4.771 -1.1227 -3.0762  0.4940
   41MOL   H18425864   0.245   2.554   5.074  0.3660  0.0249 -0.4480
   41MOL   H18525865   0.393   2.617   5.216  1.5060 -0.1550  0.1703
   41MOL   H18625866   0.433   2.775   5.132  0.4509  0.0295 -0.0711
   41MOL   H18725867   0.585   2.666   4.981 -2.7285  0.6813 -0.0262
   41MOL   H18825868   0.642   2.614   5.132  0.6534  0.5892 -1.3835
   41MOL   H18925869   0.473   2.417   4.955 -1.6524 -3.8423  3.0577
   41MOL   H19025870   0.485   2.409   5.123  0.2031 -1.3115 -0.6889
   41MOL   H19125871   0.737   2.405   5.097 -0.4676 -2.5950  0.9213
   41MOL   H19225872   0.707   2.381   4.925 -0.7181  0.9118  0.2357
   41MOL   H19325873   0.534   2.208   5.075 -0.0969 -1.3354 -0.0610
   41MOL   C19425874   0.716   2.126   5.067  0.1237 -0.2443  0.3943
   41MOL   O19525875   0.836   2.150   5.074 -0.1959  0.0247  0.4173
   41MOL   C19625876   0.654   1.993   5.119 -0.1106  0.0310 -0.2189
   41MOL   C19725877   0.730   1.870   5.064  0.2607 -0.0906 -0.1096
   41MOL   C19825878   0.717   1.847   4.913  0.8429 -0.2592  0.0102
   41MOL   C19925879   0.568   1.815   4.868 -0.1787  0.1226  0.3444
   41MOL   C20025880   0.508   1.686   4.927 -0.7002  0.0452  0.4183
   41MOL   O20125881   0.577   1.602   4.984  0.4731 -0.2289 -0.5342
   41MOL   N20225882   0.368   1.677   4.941  0.0448 -0.2594 -0.4698
   41MOL   C20325883   0.305   1.592   5.038  0.4148  0.0643 -0.4021
   41MOL   C20425884   0.264   1.678   5.166  0.0568 -0.8378 -0.5350
   41MOL   C20525885   0.388   1.729   5.245 -0.7739  0.3879 -0.3466
   41MOL   C20625886   0.350   1.773   5.387  0.3755  0.0009 -0.0267
   41MOL   N20725887   0.464   1.846   5.451  0.0282 -0.6167  0.3675
   41MOL   H20825888   0.654   1.993   5.228 -1.8885 -1.5855 -0.1982
   41MOL   H20925889   0.551   1.979   5.089  0.3714 -1.5288 -1.2321
   41MOL   H21025890   0.833   1.877   5.098  0.3771  0.7117 -0.6252
   41MOL   H21125891   0.696   1.780   5.116  2.4313 -1.4566 -0.9625
   41MOL   H21225892   0.794   1.775   4.884  1.2939  0.8846 -1.6697
   41MOL   H21325893   0.749   1.943   4.871  2.4482  0.1108  1.9608
   41MOL   H21425894   0.555   1.814   4.760 -3.4048  1.6544  0.6745
   41MOL   H21525895   0.502   1.894   4.903  1.7268  0.9022  2.2931
   41MOL   H21625896   0.309   1.727   4.877  0.4513  0.7684 -0.0443
   41MOL   H21725897   0.366   1.504   5.058  1.3269  0.5800 -0.8631
   41MOL   H21825898   0.212   1.551   5.000  0.6003  1.0967 -2.0344
   41MOL   H21925899   0.203   1.765   5.142  1.7636  0.2725 -0.9171
   41MOL   H22025900   0.193   1.625   5.229  0.5871 -0.9283 -0.0144
   41MOL   H22125901   0.443   1.803   5.187  0.5180 -1.9212 -2.1716
   41MOL   H22225902   0.468   1.654   5.251 -0.4627  0.6223 -1.4494
   41MOL   H22325903   0.321   1.679   5.433 -1.7792 -0.0868 -1.4956
   41MOL   H22425904   0.262   1.837   5.379 -0.8680 -1.5820  0.7230
   41MOL   H22525905   0.465   1.947   5.442 -0.6798 -0.7496 -1.3542
   41MOL   C22625906   0.565   1.785   5.511 -1.1277  0.4589 -0.2453
   41MOL   O22725907   0.564   1.665   5.534 -0.1878  0.3367 -0.1085
   41MOL   C22825908   0.687   1.872   5.559 -0.3021 -0.3214 -0.3302
   41MOL   C22925909   0.822   1.814   5.524  0.2232  0.0199 -0.2009
   41MOL   C23025910   0.934   1.916   5.525 -0.0232 -0.0926  0.1664
   41MOL   C23125911   1.081   1.852   5.515  0.0724  0.0441 -0.3795
   41MOL   C23225912   1.203   1.954   5.526 -0.0193  0.4977 -0.3115
   41MOL   O23325913   1.182   2.070   5.543  0.9595 -0.4194 -0.2556
   41MOL   N23425914   1.326   1.911   5.503 -0.6597  0.6142 -0.2258
   41MOL   C23525915   1.446   1.989   5.492 -0.3461  0.1644 -0.3364
   41MOL   C23625916   1.481   2.033   5.350  0.1834 -0.7728 -0.5849
   41MOL   C23725917   1.606   2.108   5.340 -0.8697 -0.6161  0.0703
   41MOL   C23825918   1.652   2.116   5.193 -0.1775  0.1485 -0.0084
   41MOL   N23925919   1.761   2.212   5.187 -0.6062 -0.7368 -0.1707
   41MOL   H24025920   0.669   1.967   5.507 -3.2880 -0.9029 -0.4726
   41MOL   H24125921   0.692   1.885   5.667 -1.5808  0.2143 -0.3201
   41MOL   H24225922   0.836   1.739   5.602  0.5900  1.5169  1.1978
   41MOL   H24325923   0.814   1.765   5.427  0.9060  1.0421 -0.7872
   41MOL   H24425924   0.920   1.970   5.619 -1.2479  1.0903 -0.6776
   41MOL   H24525925   0.923   1.995   5.451 -1.0275 -1.5175 -1.2406
   41MOL   H24625926   1.083   1.802   5.418 -1.9548 -2.0126  0.5978
   41MOL   H24725927   1.101   1.776   5.590 -0.1264 -0.9701 -1.3458
   41MOL   H24825928   1.341   1.813   5.484 -0.5514  0.5600  0.1353
   41MOL   H24925929   1.531   1.932   5.530 -1.3551 -0.3436  1.2185
   41MOL   H25025930   1.435   2.083   5.545  0.0563 -1.4765  2.7979
   41MOL   H25125931   1.498   1.936   5.301 -2.2612 -1.4475 -0.1390
   41MOL   H25225932   1.401   2.083   5.296  0.1385  0.5377  0.6901
   41MOL   H25325933   1.686   2.053   5.390 -0.7830  0.1777  0.8094
   41MOL   H25425934   1.613   2.208   5.383 -1.8568 -1.3070  1.8850
   41MOL   H25525935   1.565   2.140   5.131 -0.4102  0.5224  0.4583
   41MOL   H25625936   1.683   2.014   5.171 -0.1691  0.4881 -1.6714
   41MOL   H25725937   1.772   2.273   5.267  4.0285  0.7928 -1.8158
   41MOL   C25825938   1.860   2.202   5.104  1.0675  0.7296 -0.3810
   41MOL   O25925939   1.854   2.129   5.010  0.3153 -0.3556  0.0139
   41MOL   C26025940   1.982   2.291   5.137  0.2857  0.3855 -0.2159
   41MOL   C26125941   2.086   2.313   5.021  0.8238 -0.9144 -0.2977
   41MOL   C26225942   2.051   2.435   4.923 -0.3425 -0.6109 -0.6254
   41MOL   C26325943   2.157   2.502   4.845  0.8587 -0.0691  0.1345
   41MOL   C26425944   2.275   2.566   4.914  0.8296  0.1666  0.4045
   41MOL   O26525945   2.361   2.621   4.849 -0.3881  0.3277  0.1194
   41MOL   N26625946   2.279   2.561   5.046 -0.1696  0.0170  0.1468
   41MOL   C26725947   2.395   2.600   5.132 -0.7529  0.2213 -0.3373
   41MOL   C26825948   2.507   2.497   5.109 -0.1806  0.3734  0.0659
   41MOL   C26925949   2.629   2.528   5.197 -0.2139 -0.1288  0.4636
   41MOL   C27025950   2.742   2.430   5.177 -0.1832 -0.2356 -1.5567
   41MOL   N27125951   2.705   2.302   5.235 -0.1204 -0.1575  0.0607
   41MOL   H27225952   1.975   2.389   5.184  2.1094  0.7577 -0.7020
   41MOL   H27325953   2.032   2.229   5.211 -0.0684 -1.2571 -1.3286
   41MOL   H27425954   2.179   2.329   5.075  0.2569  1.9384 -0.0765
   41MOL   H27525955   2.096   2.226   4.957  2.8418 -2.4293  1.9820
   41MOL   H27625956   2.006   2.516   4.981 -1.1357 -0.9706 -0.7241
   41MOL   H27725957   1.972   2.401   4.855 -0.7307 -1.1075  0.0573
   41MOL   H27825958   2.112   2.592   4.802  1.4388 -0.0936 -0.5306
   41MOL   H27925959   2.184   2.443   4.757 -0.1276 -1.3704  0.6843
   41MOL   H28025960   2.202   2.519   5.096  0.3434 -0.5052  0.5019
   41MOL   H28125961   2.349   2.593   5.231 -2.4218 -0.2162 -1.1306
   41MOL   H28225962   2.433   2.700   5.110  0.7907  0.0123  1.1776
   41MOL   H28325963   2.470   2.395   5.122 -0.0315  0.0490 -1.9499
   41MOL   H28425964   2.540   2.507   5.006 -0.6690 -1.2011 -0.2708
   41MOL   H28525965   2.598   2.536   5.301 -3.4900  1.5798 -0.5672
   41MOL   H28625966   2.673   2.624   5.173  1.3373 -0.0524  3.4044
   41MOL   H28725967   2.817   2.465   5.248 -2.0923  1.2303 -0.2251
   41MOL   H28825968   2.778   2.434   5.074 -1.0191  0.6169 -1.8282
   41MOL   H28925969   2.676   2.305   5.332 -1.0478  2.4532 -0.2606
   41MOL   C29025970   2.700   2.184   5.175  0.1899 -0.1307 -0.3448
   41MOL   O29125971   2.692   2.173   5.050  0.4160 -0.7905 -0.5037
   41MOL   C29225972   2.706   2.062   5.264 -0.1174 -0.0946 -0.0789
   41MOL   C29325973   2.665   1.926   5.192 -0.3310  0.0487  0.0705
   41MOL   C29425974   2.720   1.797   5.263 -0.2141  0.0591 -0.2685
   41MOL   C29525975   2.643   1.782   5.397 -0.2044  0.3315  0.2629
   41MOL   C29625976   2.682   1.652   5.457 -0.1428  0.3936 -0.1277
   41MOL   O29725977   2.788   1.597   5.426 -0.0741 -0.3761 -0.1513
   41MOL   N29825978   2.595   1.593   5.541  0.4267 -0.4040  0.1434
   41MOL   C29925979   2.603   1.456   5.587 -0.0084 -0.1615 -0.3784
   41MOL   C30025980   2.673   1.442   5.720 -0.0953  0.0270  0.5050
   41MOL   C30125981   2.715   1.300   5.750 -0.0946 -0.3430 -0.0741
   41MOL   C30225982   2.742   1.267   5.893 -0.0270 -0.3183  0.2625
   41MOL   N30325983   2.621   1.289   5.976  0.5850  0.2782  0.2048
   41MOL   H30425984   2.812   2.051   5.287 -0.1345 -1.3999 -0.5539
   41MOL   H30525985   2.642   2.064   5.352 -0.2150 -2.0616 -0.0839
   41MOL   H30625986   2.556   1.937   5.194 -0.3424 -0.0571  0.0065
   41MOL   H30725987   2.678   1.922   5.084 -1.8782 -0.0070 -0.1204
   41MOL   H30825988   2.826   1.802   5.287  0.0656  0.8280 -1.6066
   41MOL   H30925989   2.692   1.713   5.199 -3.2856  0.5125  0.3892
   41MOL   H31025990   2.538   1.781   5.368 -0.7564  3.6296  2.0187
   41MOL   H31125991   2.663   1.863   5.466  2.0901  1.6757 -1.8778
   41MOL   H31225992   2.521   1.649   5.581 -1.8363 -1.8074 -1.9099
   41MOL   H31325993   2.656   1.398   5.512  0.9371  0.8383 -0.4945
   41MOL   H31425994   2.505   1.408   5.590  0.2039 -0.6512 -1.1031
   41MOL   H31525995   2.766   1.499   5.722 -1.0532  1.6334  0.2513
   41MOL   H31625996   2.612   1.495   5.793  0.6701  0.9588  0.4773
   41MOL   H31725997   2.804   1.270   5.693  1.3829  2.7326  0.5043
   41MOL   H31825998   2.645   1.224   5.714 -2.0296  1.1477  0.4516
   41MOL   H31925999   2.818   1.336   5.930  1.0310 -0.5861 -1.3538
   41MOL   H32026000   2.788   1.169   5.908  3.0452  0.8985 -0.8786
   41MOL   H32126001   2.597   1.385   5.998 -1.4315 -0.3863  1.0100
   41MOL   C32226002   2.547   1.188   6.028 -0.4660 -0.0242 -0.0518
   41MOL   O32326003   2.573   1.072   5.998  0.0102 -0.0920  0.2482
   41MOL   C32426004   2.438   1.226   6.129 -0.3009  0.0538 -0.0700
   41MOL   C32526005   2.328   1.113   6.139  0.0080 -0.2326  0.3394
   41MOL   C32626006   2.359   1.006   6.241  0.0494  0.4043 -0.2290
   41MOL   C32726007   2.299   0.869   6.214 -0.2824  0.6435 -0.1109
   41MOL   C32826008   2.146   0.873   6.221 -0.3332 -0.1350 -0.3478
   41MOL   O32926009   2.088   0.895   6.326 -0.5025  0.0048 -0.1007
   41MOL   N33026010   2.079   0.877   6.113 -0.2679 -0.3546  0.1972
   41MOL   C33126011   1.934   0.904   6.098  0.3248  0.9105  0.0641
   41MOL   C33226012   1.920   1.057   6.088  0.3661  0.2198 -0.0959
   41MOL   C33326013   1.784   1.100   6.040  0.2963  0.4491 -0.4832
   41MOL   C33426014   1.755   1.259   6.050 -0.3263  0.4682 -0.3114
   41MOL   N33526015   1.847   1.326   5.961 -0.0625  0.0025  0.6159
   41MOL   H33626016   2.495   1.243   6.220  1.5332  0.7452 -1.3176
   41MOL   H33726017   2.396   1.324   6.106 -1.7734 -0.6697 -0.5704
   41MOL   H33826018   2.232   1.157   6.167  0.4707 -0.4317  2.2980
   41MOL   H33926019   2.328   1.063   6.042  2.5726  1.3807 -0.5445
   41MOL   H34026020   2.341   1.047   6.340  0.1896  1.8300 -0.7907
   41MOL   H34126021   2.467   0.989   6.241 -0.2010 -1.3308  0.7969
   41MOL   H34226022   2.341   0.797   6.284 -2.0826 -0.9720 -0.6557
   41MOL   H34326023   2.328   0.830   6.117  0.3488 -3.3103  1.5981
   41MOL   H34426024   2.135   0.849   6.033  0.9446 -0.4883  1.0882
   41MOL   H34526025   1.868   0.853   6.168 -1.2928 -0.8890 -2.6604
   41MOL   H34626026   1.903   0.847   6.010 -2.8597  0.3823  1.4625
   41MOL   H34726027   1.950   1.104   6.182  2.7815  0.3337 -0.8742
   41MOL   H34826028   1.991   1.108   6.023 -0.5405  0.1194 -1.1593
   41MOL   H34926029   1.706   1.050   6.098 -0.2772 -0.4067 -1.9753
   41MOL   H35026030   1.768   1.079   5.934 -2.2450 -0.5659  0.0750
   41MOL   H35126031   1.764   1.302   6.150 -1.8455 -2.2385  1.0460
   41MOL   H35226032   1.653   1.283   6.023 -0.4332  1.4266  0.8969
   41MOL   H35326033   1.883   1.261   5.893 -0.3723 -0.4591  0.8838
   41MOL   C35426034   1.865   1.455   5.941  0.0789 -0.2075 -0.4232
   41MOL   O35526035   1.830   1.540   6.026  0.3933 -0.2840  0.1668
   41MOL   C35626036   1.936   1.483   5.809 -0.6205 -0.2072 -0.2703
   41MOL   C35726037   2.039   1.601   5.814  0.1287 -0.0290  0.2363
   41MOL   C35826038   2.182   1.551   5.860  0.1409  0.2762 -0.1629
   41MOL   C35926039   2.286   1.666   5.864 -0.0480 -0.0908  0.2399
   41MOL   C36026040   2.301   1.729   5.718 -0.2285  0.6110 -0.4225
   41MOL   O36126041   2.312   1.649   5.626 -0.4396  0.1511 -0.0353
   41MOL   N36226042   2.302   1.856   5.692  0.4172  0.7217  0.2243
   41MOL   C36326043   2.329   1.922   5.560  0.4279  0.0408 -0.5834
   41MOL   C36426044   2.228   2.045   5.535 -0.0737 -0.0188 -0.7940
   41MOL   C36526045   2.230   2.107   5.394 -0.9037  0.2364 -0.1362
   41MOL   C36626046   2.352   2.197   5.373  0.1810  0.6925 -0.3449
   41MOL   N36726047   2.351   2.315   5.465 -0.1147  0.2530 -0.7194
   41MOL   H36826048   1.983   1.392   5.774  0.1114  0.2407 -0.4630
   41MOL   H36926049   1.851   1.516   5.748 -1.3114 -1.2433  0.1136
   41MOL   H37026050   2.042   1.639   5.712  0.0679 -0.0240  0.2364
   41MOL   H37126051   1.999   1.683   5.874 -3.2167 -1.2443 -0.2299
   41MOL   H37226052   2.222   1.467   5.803  2.1114 -0.2781  1.9639
   41MOL   H37326053   2.170   1.505   5.959  0.3978  0.5740  0.0075
   41MOL   H37426054   2.377   1.624   5.905  0.2085  1.5666  1.4127
   41MOL   H37526055   2.253   1.740   5.937 -2.4475 -0.8589 -0.0147
   41MOL   H37626056   2.316   1.910   5.776  0.1751 -1.2938  1.5873
   41MOL   H37726057   2.305   1.855   5.477 -0.3979  1.8559 -1.8348
   41MOL   H37826058   2.435   1.941   5.547  1.3166 -3.2038  1.4306
   41MOL   H37926059   2.126   2.010   5.551 -1.0942  2.4345 -1.6908
   41MOL   H38026060   2.247   2.130   5.600  2.7067  0.3288 -1.9979
   41MOL   H38126061   2.137   2.163   5.388 -1.1757 -0.2057 -0.1150
   41MOL   H38226062   2.223   2.024   5.323  0.9912  0.0575 -0.1346
   41MOL   H38326063   2.359   2.229   5.269  1.6455 -0.0202 -0.4893
   41MOL   H38426064   2.441   2.135   5.382  0.6643  1.1333 -1.8130
   41MOL   H38526065   2.264   2.359   5.491  0.4777  0.7458  0.4736
   41MOL   C38626066   2.463   2.387   5.503 -0.5179 -0.2178 -0.1667
   41MOL   O38726067   2.575   2.340   5.488  0.4531  0.1784  0.3824
   41MOL   C38826068   2.450   2.514   5.589  0.1311 -0.1125 -0.1863
   41MOL   C38926069   2.561   2.622   5.569  0.1138 -0.1397 -0.4310
   41MOL   C39026070   2.562   2.742   5.669 -0.0292  0.6379  0.4753
   41MOL   C39126071   2.615   2.709   5.814  0.4986  0.1678 -0.2840
   41MOL   C39226072   2.504   2.667   5.911  0.3612 -0.5396  0.5198
   41MOL   O39326073   2.410   2.743   5.931  0.3388 -0.0499  0.2358
   41MOL   N39426074   2.506   2.541   5.950  0.2959  0.0067 -0.1639
   41MOL   C39526075   2.402   2.466   6.021 -0.6973  0.7016  0.0888
   41MOL   C39626076   2.419   2.480   6.176  0.0510 -0.1698 -0.5424
   41MOL   C39726077   2.354   2.368   6.261 -0.0672  0.1740  0.6750
   41MOL   C39826078   2.348   2.398   6.413 -0.3522 -0.1721  0.7393
   41MOL   N39926079   2.323   2.281   6.497  0.4761  0.5853  0.3336
   41MOL   H40026080   2.360   2.550   5.539  1.1050  0.3657 -1.6534
   41MOL   H40126081   2.423   2.485   5.690 -2.1567  0.2601 -0.6626
   41MOL   H40226082   2.649   2.559   5.580 -1.0026 -2.3102 -3.5380
   41MOL   H40326083   2.559   2.653   5.465 -2.0028 -1.4827 -0.8135
   41MOL   H40426084   2.457   2.769   5.680  0.4093  2.2861  0.7780
   41MOL   H40526085   2.610   2.828   5.622  0.1375  1.3882  2.0154
   41MOL   H40626086   2.660   2.796   5.862  0.4551  0.6033 -1.0108
   41MOL   H40726087   2.694   2.635   5.825  0.3614 -0.0235 -0.5886
   41MOL   H40826088   2.598   2.498   5.953  1.1074  1.7749  1.7983
   41MOL   H40926089   2.408   2.365   5.980 -2.1575  1.2147 -1.4603
   41MOL   H41026090   2.306   2.508   5.993 -0.3664  1.2454 -0.2293
   41MOL   H41126091   2.523   2.482   6.211 -1.0923 -0.4958  3.1146
   41MOL   H41226092   2.379   2.579   6.200 -1.1585 -0.9784  0.8045
   41MOL   H41326093   2.422   2.283   6.259  1.2718  1.0989  3.7937
   41MOL   H41426094   2.256   2.341   6.221 -0.5220  1.5983  0.7963
   41MOL   H41526095   2.276   2.479   6.427 -0.2440  0.3397 -1.4229
   41MOL   H41626096   2.447   2.434   6.443 -0.6955  2.1105 -0.7280
   41MOL   H41726097   2.397   2.248   6.557 -0.3791 -0.3794  0.8847
   41MOL   C41826098   2.206   2.217   6.516  0.0366 -0.3236 -0.0220
   41MOL   O41926099   2.105   2.255   6.461  0.0721 -0.2670  0.2815
   41MOL   C42026100   2.208   2.091   6.607  0.1908  0.0172  0.7535
   41MOL   C42126101   2.148   1.958   6.550 -0.5390 -0.0517 -0.2587
   41MOL   C42226102   2.240   1.870   6.460 -0.5670  0.1083  0.0373
   41MOL   C42326103   2.290   1.934   6.325 -0.2500  0.1413 -0.1023
   41MOL   C42426104   2.181   1.953   6.224 -0.4319 -0.1827 -0.6723
   41MOL   O42526105   2.167   1.867   6.134 -0.6708 -0.0802  0.4038
   41MOL   N42626106   2.113   2.069   6.234 -0.1219  0.0264 -1.2919
   41MOL   C42726107   1.992   2.107   6.162  0.7886 -0.2332  0.6277
   41MOL   C42826108   1.868   2.052   6.244 -0.3535  0.3431 -0.0689
   41MOL   C42926109   1.738   2.093   6.178 -0.0018  0.3946 -1.0794
   41MOL   C43026110   1.675   1.984   6.093  0.4599 -0.1591  0.4043
   41MOL   N43126111   1.604   2.044   5.976  0.5692 -0.5164  0.4079
   41MOL   H43226112   2.310   2.078   6.643  0.8568 -0.4236 -1.2189
   41MOL   H43326113   2.147   2.120   6.692  0.4992 -1.8778  1.6369
   41MOL   H43426114   2.104   1.901   6.631 -2.9063  0.6788 -1.0041
   41MOL   H43526115   2.063   1.985   6.488 -0.7281 -2.9262 -1.3106
   41MOL   H43626116   2.190   1.779   6.426  0.4205 -0.6186  0.5175
   41MOL   H43726117   2.338   1.850   6.504 -0.5980 -0.7117 -0.2554
   41MOL   H43826118   2.359   1.870   6.271 -0.9105 -1.3185  0.7373
   41MOL   H43926119   2.344   2.026   6.342 -1.9888  1.4202 -1.2803
   41MOL   H44026120   2.139   2.121   6.317  2.2744 -0.3620 -1.7683
   41MOL   H44126121   2.010   2.063   6.064  0.3188  0.4019  0.2490
   41MOL   H44226122   1.995   2.214   6.142  2.2599 -0.5385 -0.8281
   41MOL   H44326123   1.869   1.945   6.263  2.0214  0.1166 -1.3014
   41MOL   H44426124   1.871   2.095   6.344  0.4049 -0.6532  0.3411
   41MOL   H44526125   1.758   2.187   6.126 -0.8207  0.0197 -2.0824
   41MOL   H44626126   1.667   2.117   6.258  0.2461  1.1907 -1.0917
   41MOL   H44726127   1.609   1.914   6.144 -1.2007  1.9297  1.2470
   41MOL   H44826128   1.759   1.933   6.046 -0.0559 -1.7752  1.2001
   41MOL   H44926129   1.646   2.022   5.887 -1.1260 -0.1574 -0.5011
   41MOL   C45026130   1.483   2.107   5.980  0.5002  0.8900  0.8762
   41MOL   O45126131   1.419   2.119   6.083  0.0245 -0.1881  0.4953
   41MOL   C45226132   1.436   2.155   5.844  0.7667  0.0587  0.3205
   41MOL   C45326133   1.325   2.264   5.841 -0.2719  0.0799 -0.4376
   41MOL   C45426134   1.181   2.217   5.873  0.0274  0.3860 -0.5132
   41MOL   C45526135   1.085   2.330   5.862  0.0671 -0.1298 -0.5900
   41MOL   C45626136   1.086   2.436   5.977 -0.4079  0.7334 -0.0942
   41MOL   O45726137   1.194   2.490   6.007  0.6322 -0.3234 -0.2158
   41MOL   N45826138   0.967   2.476   6.022  0.1784  0.0011  0.4587
   41MOL   C45926139   0.940   2.596   6.109 -0.2701 -0.6184  0.1514
   41MOL   C46026140   0.788   2.614   6.105 -0.1970 -0.9290 -0.0836
   41MOL   C46126141   0.737   2.693   6.218  1.0743  0.1498  0.6163
   41MOL   C46226142   0.590   2.728   6.198 -0.1684  0.2134 -0.7369
   41MOL   N46326143   0.519   2.784   6.320 -0.2244  0.0292  0.5593
   41MOL   H46426144   1.526   2.197   5.800  0.9908 -0.7027  0.0392
   41MOL   H46526145   1.417   2.067   5.782  1.3484  1.3070 -1.6691
   41MOL   H46626146   1.364   2.337   5.911 -0.2396  0.6892 -1.0864
   41MOL   H46726147   1.331   2.309   5.742 -1.7824  0.1883 -0.4850
   41MOL   H46826148   1.171   2.171   5.971  0.4737  0.0671 -0.6148
   41MOL   H46926149   1.158   2.147   5.793 -1.8618  0.5911 -0.1794
   41MOL   H47026150   0.987   2.284   5.850 -0.1920  0.3760 -0.4130
   41MOL   H47126151   1.103   2.382   5.768 -0.0955  1.0049  0.0007
   41MOL   H47226152   0.886   2.421   5.998  1.4187 -3.1908  3.2335
   41MOL   H47326153   0.999   2.677   6.064 -2.4817  1.2588  0.5011
   41MOL   H47426154   0.975   2.575   6.210  2.7153  0.0797 -0.6712
   41MOL   H47526155   0.756   2.663   6.013  0.4066  0.6556  0.5403
   41MOL   H47626156   0.741   2.515   6.103 -0.5083 -0.8008  0.7716
   41MOL   H47726157   0.791   2.787   6.232  0.4276  0.4153  1.3905
   41MOL   H47826158   0.746   2.629   6.306 -0.7100  1.5815  1.8820
   41MOL   H47926159   0.527   2.644   6.169  0.5086 -1.3251  2.0943
   41MOL   H48026160   0.591   2.806   6.122  2.1834  0.6564 -0.3047
   41MOL   H48126161   0.576   2.796   6.402 -0.9695 -0.9618  1.2188
   41MOL   C48226162   0.388   2.809   6.321 -0.4581 -0.1072 -0.0946
   41MOL   O48326163   0.318   2.774   6.226  0.2353  0.0993 -0.6962
   41MOL   C48426164   0.327   2.867   6.450  0.4520 -0.2823 -0.0989
   41MOL   C48526165   0.203   2.959   6.440  0.4474 -0.5567  0.0774
   41MOL   C48626166   0.068   2.879   6.446 -0.3852 -0.7074  0.3190
   41MOL   C48726167   7.648   2.962   6.405 -0.7027  0.9730  0.0220
   41MOL   C48826168   7.521   2.884   6.395 -0.4029  0.4683  0.4444
   41MOL   O48926169   7.521   2.770   6.435 -0.2201  0.1733  0.2853
   41MOL   N49026170   7.408   2.937   6.350  0.0309  0.5873 -0.2771
   41MOL   C49126171   7.280   2.884   6.302 -0.2373 -0.2379  0.4909
   41MOL   C49226172   7.179   2.829   6.406 -0.2030 -0.5471  0.5399
   41MOL   C49326173   7.153   2.930   6.524 -0.7194 -0.2337  0.2255
   41MOL   C49426174   7.044   2.882   6.611 -0.0130  0.1236  0.3997
   41MOL   N49526175   7.021   2.994   6.700 -0.2361 -0.1154  0.5268
   41MOL   H49626176   0.307   2.794   6.528  1.7587 -0.1114  0.4149
   41MOL   H49726177   0.406   2.930   6.492  0.5384  0.7495 -1.7531
   41MOL   H49826178   0.208   3.035   6.518  1.5608 -2.3836  1.8707
   41MOL   H49926179   0.213   3.018   6.350 -2.4437 -0.0652  0.0421
   41MOL   H50026180   0.058   2.840   6.547 -1.5086 -0.4506  0.3237
   41MOL   H50126181   0.080   2.793   6.380  1.2316 -0.4740  0.2959
   41MOL   H50226182   7.677   3.020   6.318  0.3728  1.6712  0.8301
   41MOL   H50326183   7.609   3.034   6.478 -0.6020  2.5448 -1.4549
   41MOL   H50426184   7.416   3.035   6.326  0.6396  0.5443 -0.2746
   41MOL   H50526185   7.297   2.817   6.218  0.5601 -1.6506  1.7574
   41MOL   H50626186   7.237   2.974   6.259  3.1785  1.0639 -0.3584
   41MOL   H50726187   7.081   2.798   6.369 -0.8935 -0.8642  2.5553
   41MOL   H50826188   7.231   2.740   6.442  1.6540 -0.1904 -1.1800
   41MOL   H50926189   7.130   3.028   6.481 -1.0722  0.1179  1.2151
   41MOL   H51026190   7.246   2.950   6.576 -1.6843  0.4742  1.7126
   41MOL   H51126191   7.065   2.799   6.680 -2.2705 -0.2493  0.6730
   41MOL   H51226192   6.946   2.867   6.566  0.6793 -3.0577 -0.1784
   41MOL   H51326193   7.078   2.990   6.783  0.7873 -2.7431 -0.2587
   41MOL   C51426194   6.918   3.081   6.700  0.1943  0.1616 -0.9126
   41MOL   O51526195   6.840   3.083   6.605 -0.7722  0.6370  0.3533
   41MOL   C51626196   6.905   3.188   6.811  0.2715  0.9636 -0.1815
   41MOL   C51726197   6.869   3.330   6.751  0.1637  0.3356 -0.3908
   41MOL   C51826198   6.840   3.428   6.862 -0.2937  0.3790  0.1369
   41MOL   C51926199   6.820   3.573   6.813 -0.5266  0.2513 -0.5460
   41MOL   C52026200   6.929   3.645   6.739 -0.5453  0.6605  0.4624
   41MOL   O52126201   6.961   3.608   6.624  0.6391 -0.1732 -0.3145
   41MOL   N52226202   6.993   3.751   6.797 -0.1498 -0.2602 -0.3933
   41MOL   C52326203   7.105   3.821   6.737  0.3032  0.1123  0.4140
   41MOL   C52426204   7.240   3.761   6.762  0.3157  0.2650  0.5435
   41MOL   C52526205   7.284   3.786   6.910  0.2114 -0.5932 -0.0414
   41MOL   C52626206   7.433   3.763   6.946 -0.3531  0.4060  0.2303
   41MOL   N52726207   7.466   3.620   6.944  0.7490 -0.0388  0.1242
   41MOL   H52826208   6.838   3.149   6.888 -1.0893  2.4840 -0.5740
   41MOL   H52926209   7.007   3.195   6.849  1.0904  0.1742 -2.1533
   41MOL   H53026210   6.948   3.366   6.685  2.0770 -0.5880  1.3441
   41MOL   H53126211   6.782   3.329   6.686 -1.3491 -0.5731  1.6017
   41MOL   H53226212   6.927   3.428   6.928 -0.5931 -2.5291  0.5996
   41MOL   H53326213   6.759   3.390   6.925 -0.9519  2.1309  0.3801
   41MOL   H53426214   6.807   3.629   6.906  1.9784 -1.8679  1.1900
   41MOL   H53526215   6.731   3.585   6.752 -0.0758  1.6710 -0.9284
   41MOL   H53626216   6.979   3.777   6.894 -1.5370 -2.6510  0.0953
   41MOL   H53726217   7.102   3.922   6.777  4.3429  0.1707  0.8367
   41MOL   H53826218   7.089   3.845   6.632 -2.2891 -2.2711  0.2049
   41MOL   H53926219   7.235   3.655   6.737 -0.6462  0.2936  0.6261
   41MOL   H54026220   7.305   3.810   6.689  0.6985  0.1518  0.8089
   41MOL   H54126221   7.212   3.736   6.974  0.2215 -0.4941  0.0474
   41MOL   H54226222   7.273   3.892   6.932  0.4785 -0.8640  1.4340
   41MOL   H54326223   7.454   3.800   7.046  1.4462  1.3437 -0.4743
   41MOL   H54426224   7.500   3.813   6.876 -0.0739 -0.2636  0.0113
   41MOL   H54526225   7.537   3.585   6.881  0.2084  0.6321 -0.8696
   41MOL   C54626226   7.417   3.541   7.039 -0.3540  0.5091 -0.3702
   41MOL   O54726227   7.336   3.573   7.128  0.3153 -0.2327  0.0065
   41MOL   C54826228   7.484   3.400   7.048 -0.0120  0.0756  0.2380
   41MOL   C54926229   7.381   3.284   7.057  0.0444 -0.0794 -0.5709
   41MOL   C55026230   7.448   3.146   7.055 -0.0997 -0.6285  0.1734
   41MOL   C55126231   7.365   3.020   7.111  0.5233  0.3236  0.1961
   41MOL   C55226232   7.253   2.964   7.023  0.2011 -0.0816  0.1412
   41MOL   O55326233   7.237   3.002   6.906  0.0241 -0.1621  0.1026
   41MOL   N55426234   7.158   2.892   7.086  0.9711  0.6311  0.7588
   41MOL   C55526235   7.044   2.829   7.030 -0.1567 -0.5362  0.8495
   41MOL   C55626236   7.032   2.694   7.100  0.3551 -0.2367 -0.6199
   41MOL   C55726237   7.116   2.581   7.038  0.5025 -0.3361  0.5046
   41MOL   C55826238   7.057   2.509   6.912  0.4636  0.5860 -0.2470
   41MOL   N55926239   7.155   2.412   6.869 -0.5325 -0.6043  0.3866
   41MOL   H56026240   7.554   3.384   6.966 -0.1606  0.5566  0.0162
   41MOL   H56126241   7.534   3.400   7.145  1.7639  0.6741 -0.6656
   41MOL   H56226242   7.348   3.313   7.157  0.5138  1.3345 -0.8025
   41MOL   H56326243   7.302   3.296   6.983 -0.4889  1.2205  0.1834
   41MOL   H56426244   7.537   3.158   7.117  0.7346 -0.3421 -1.0659
   41MOL   H56526245   7.485   3.118   6.956 -0.4275 -1.3526  0.2504
   41MOL   H56626246   7.329   3.033   7.212  2.1012 -1.5075  1.0247
   41MOL   H56726247   7.438   2.940   7.122 -0.3147 -0.5544 -0.5012
   41MOL   H56826248   7.158   2.888   7.187  0.3855 -0.3475  0.7242
   41MOL   H56926249   7.061   2.823   6.923 -0.2814 -0.1252  0.8077
   41MOL   H57026250   6.960   2.896   7.046 -0.6252 -0.8710 -0.1893
   41MOL   H57126251   7.044   2.699   7.208 -0.3785 -0.5652 -0.5175
   41MOL   H57226252   6.927   2.668   7.082 -0.7411  3.6771 -0.3892
   41MOL   H57326253   7.141   2.505   7.112 -0.1037  1.3573  2.4967
   41MOL   H57426254   7.213   2.621   7.009 -0.3599  1.7387  0.3909
   41MOL   H57526255   7.043   2.577   6.829  0.8822  0.9897  0.0163
   41MOL   H57626256   6.956   2.472   6.933  0.7122 -1.3166 -2.2050
   41MOL   H57726257   7.224   2.444   6.802  0.3309 -0.8624  1.1455
   41MOL   C57826258   7.138   2.283   6.901  0.2128 -0.1050  0.0205
   41MOL   O57926259   7.045   2.250   6.971 -0.1383  0.8164  0.6908
   41MOL   C58026260   7.231   2.176   6.829 -0.3444  0.3334 -0.4355
   41MOL   C58126261   7.153   2.053   6.767 -0.0587  0.2325  0.0161
   41MOL   C58226262   7.125   2.085   6.620  0.6805  0.1761 -0.1761
   41MOL   C58326263   7.023   2.005   6.540 -0.6908  0.2411 -0.4245
   41MOL   C58426264   7.078   1.864   6.496 -0.5875  0.7273  0.1808
   41MOL   O58526265   7.193   1.827   6.512  0.5017 -0.1088 -0.0734
   41MOL   N58626266   6.992   1.793   6.432 -0.2911 -0.5286 -0.0850
   41MOL   C58726267   7.022   1.657   6.370 -0.3797 -0.0819  0.0035
   41MOL   C58826268   6.915   1.552   6.420  0.1893 -0.0020  0.3942
   41MOL   C58926269   6.770   1.594   6.420  0.5110 -0.2854  0.2060
   41MOL   C59026270   6.673   1.487   6.461  0.4236 -0.2454 -0.0463
   41MOL   N59126271   6.643   1.397   6.350  0.2823 -0.6324  0.2600
   41MOL   H59226272   7.297   2.221   6.755  2.3348  0.0710  1.7212
   41MOL   H59326273   7.301   2.138   6.903 -0.8322 -1.7655 -1.0235
   41MOL   H59426274   7.209   1.959   6.761  1.2196  1.0204 -0.5343
   41MOL   H59526275   7.055   2.039   6.812 -0.1423  1.8610  0.3422
   41MOL   H59626276   7.224   2.071   6.576  0.4302  0.6464 -0.8922
   41MOL   H59726277   7.096   2.188   6.598 -2.2433 -0.8360 -1.2989
   41MOL   H59826278   7.003   2.055   6.445  0.5049  1.8281  0.1290
   41MOL   H59926279   6.926   1.988   6.588 -1.0016  1.2579 -0.6674
   41MOL   H60026280   6.900   1.827   6.406 -0.9810 -1.0541  1.5512
   41MOL   H60126281   7.116   1.614   6.404 -1.3929 -0.9442  1.7710
   41MOL   H60226282   7.014   1.669   6.262  0.5748 -1.0797 -0.1867
   41MOL   H60326283   6.938   1.459   6.368 -2.4739 -0.1206 -0.6242
   41MOL   H60426284   6.943   1.533   6.524 -0.9994  1.8232  1.0771
   41MOL   H60526285   6.752   1.609   6.313 -0.7837  1.2112  0.6248
   41MOL   H60626286   6.762   1.688   6.474 -0.6373 -1.1545  1.5956
   41MOL   H60726287   6.587   1.535   6.509  1.7196  0.4955  1.6368
   41MOL   H60826288   6.711   1.425   6.543  0.2177 -0.1117  0.1511
   41MOL   H60926289   6.599   1.446   6.273 -1.5592 -0.3782  1.4303
   41MOL   C61026290   6.649   1.262   6.348 -0.6520 -0.0165 -0.7508
   41MOL   O61126291   6.710   1.196   6.428  0.2466  0.2253 -0.3402
   41MOL   C61226292   6.582   1.193   6.231 -0.1071  0.1687 -0.1736
   41MOL   C61326293   6.516   1.056   6.260 -0.0589 -0.3143  0.1227
   41MOL   C61426294   6.393   1.071   6.342 -0.3736 -0.0709 -0.2926
   41MOL   C61526295   6.311   0.939   6.359 -0.1395 -1.0072 -0.4765
   41MOL   C61626296   6.204   0.952   6.458 -0.3702 -0.4469  0.2723
   41MOL   O61726297   6.238   0.971   6.577 -0.1277  0.4207  0.6382
   41MOL   N61826298   6.077   0.939   6.414  0.1676 -0.2114 -0.0032
   41MOL   C61926299   5.949   0.969   6.492 -0.0350 -0.1389  0.0438
   41MOL   C62026300   5.919   1.114   6.492 -0.1748  0.0744 -0.1156
   41MOL   C62126301   5.785   1.148   6.556  0.2116 -0.5789 -0.1346
   41MOL   C62226302   5.743   1.303   6.548 -1.6482  0.1257  0.1494
   41MOL   N62326303   5.620   1.311   6.623 -0.5229  0.8171  0.1832
   41MOL   H62426304   6.509   1.254   6.177  0.8302 -1.7683 -3.8311
   41MOL   H62526305   6.661   1.173   6.157 -0.6797  0.8720 -0.9903
   41MOL   H62626306   6.496   0.998   6.170 -0.9299  1.8977 -1.1722
   41MOL   H62726307   6.586   0.997   6.319 -0.0298  2.2612  2.7918
   41MOL   H62826308   6.330   1.147   6.295  0.9504 -0.0972 -2.1670
   41MOL   H62926309   6.418   1.120   6.436  0.0702 -1.2360  0.2085
   41MOL   H63026310   6.375   0.863   6.402 -0.6701 -0.6343  0.9986
   41MOL   H63126311   6.272   0.910   6.261  0.2935 -0.3112 -0.8548
   41MOL   H63226312   6.082   0.930   6.313  1.1527 -2.0815  0.2037
   41MOL   H63326313   5.959   0.948   6.599  0.6720 -1.4181 -0.2703
   41MOL   H63426314   5.862   0.910   6.462 -0.8724  1.3131 -0.4209
   41MOL   H63526315   5.999   1.168   6.542 -0.7012 -1.3070  2.2694
   41MOL   H63626316   5.923   1.128   6.384  1.5755  0.6791  0.0223
   41MOL   H63726317   5.771   1.099   6.653 -0.7008 -0.5048 -0.2324
   41MOL   H63826318   5.714   1.095   6.493 -4.1417  3.9610  0.5876
   41MOL   H63926319   5.728   1.324   6.443  4.1333  1.5963 -0.5587
   41MOL   H64026320   5.819   1.373   6.581  0.0329 -1.4631 -0.2299
   41MOL   H64126321   5.576   1.396   6.592 -0.7296  0.2780 -1.0079
   41MOL   H64226322   5.558   1.241   6.585 -0.1607 -0.6753  2.2281
   42MOL     C126323   1.049   4.163   0.435 -0.0187  0.0509 -0.0881
   42MOL     O226324   0.998   4.178   0.322  0.3128  0.1357  0.7727
   42MOL     C326325   1.076   4.291   0.515 -0.3654 -0.0503 -0.1365
   42MOL     C426326   1.032   4.423   0.450 -0.0340  0.3593 -0.6142
   42MOL     C526327   1.054   4.549   0.544 -0.2510 -0.5552 -0.5685
   42MOL     C626328   1.203   4.563   0.585  0.0714  0.0874 -0.2231
   42MOL     C726329   1.244   4.507   0.722 -0.3303  0.7307  0.1928
   42MOL     O826330   1.259   4.387   0.741  0.3296  0.2218 -0.5332
   42MOL     N926331   1.278   4.593   0.822 -0.2326  0.9318 -0.6216
   42MOL    C1026332   1.327   4.568   0.965  0.1457  0.0344 -0.4059
   42MOL    C1126333   1.465   4.629   0.976 -0.7017 -0.2616 -0.0974
   42MOL    C1226334   1.575   4.577   0.882 -0.7244  0.5905 -1.0472
   42MOL    C1326335   1.621   4.685   0.785 -0.0733  0.7590 -0.2355
   42MOL    N1426336   1.730   4.638   0.703  0.0518 -0.2554  0.0572
   42MOL    H1526337   1.036   4.277   0.616 -1.6172  1.8775 -0.3477
   42MOL    H1626338   1.185   4.298   0.525 -0.3559  0.1187 -0.3660
   42MOL    H1726339   1.093   4.437   0.360 -0.8501  0.0368 -1.2237
   42MOL    H1826340   0.928   4.403   0.424  0.3583 -1.5127 -0.7842
   42MOL    H1926341   0.988   4.549   0.630  0.0441 -1.7708 -0.3362
   42MOL    H2026342   1.029   4.634   0.480 -1.3770 -0.0469  0.5196
   42MOL    H2126343   1.228   4.669   0.590  0.5576 -0.0596  0.4277
   42MOL    H2226344   1.266   4.520   0.507  0.1278 -0.5798  0.1873
   42MOL    H2326345   1.284   4.690   0.795  1.5049  1.7417  2.4624
   42MOL    H2426346   1.332   4.459   0.974  1.6941  0.3192  2.6732
   42MOL    H2526347   1.255   4.613   1.034  0.1734 -2.5166  1.3603
   42MOL    H2626348   1.473   4.736   0.954  1.4464 -0.6193 -1.1840
   42MOL    H2726349   1.500   4.622   1.079 -0.8245  0.5778  0.0030
   42MOL    H2826350   1.548   4.501   0.808  0.6959 -0.3637 -0.6134
   42MOL    H2926351   1.658   4.530   0.933 -0.6764  1.1753 -0.5844
   42MOL    H3026352   1.658   4.774   0.835  0.8544  1.7938 -2.6552
   42MOL    H3126353   1.534   4.729   0.737 -0.7386  1.4317  1.5520
   42MOL    H3226354   1.827   4.637   0.730  0.3130 -1.7400 -0.8886
   42MOL    H3326355   1.071   4.066   0.482 -1.5474  0.1128  0.7836
   42MOL    C3426356   1.714   4.624   0.570 -0.3192  0.2848  0.7417
   42MOL    O3526357   1.607   4.636   0.509 -0.5635  0.8367  0.1315
   42MOL    C3626358   1.846   4.609   0.497 -0.2188  0.2780  0.4025
   42MOL    C3726359   1.872   4.472   0.418 -0.3081 -1.1836 -0.2152
   42MOL    C3826360   2.019   4.468   0.358  0.0536  0.7262 -0.7572
   42MOL    C3926361   2.041   4.349   0.269 -0.2922  0.6418 -0.7302
   42MOL    C4026362   1.968   4.220   0.309 -0.6251  0.1858 -0.2688
   42MOL    O4126363   1.986   4.165   0.414 -0.4344  0.1670 -0.4174
   42MOL    N4226364   1.869   4.177   0.223 -0.7268 -0.0087  0.1251
   42MOL    C4326365   1.798   4.054   0.243  0.6282  0.5098 -0.7443
   42MOL    C4426366   1.714   4.028   0.115  0.3924 -0.2828  0.3436
   42MOL    C4526367   1.656   3.885   0.099 -0.5893  0.4419 -0.4535
   42MOL    C4626368   1.577   3.844   7.683  0.1081 -0.4094  0.5105
   42MOL    N4726369   1.653   3.857   7.559 -0.0240  0.1001 -0.0082
   42MOL    H4826370   1.856   4.688   0.424  2.5560 -0.7382 -0.3607
   42MOL    H4926371   1.929   4.618   0.567  0.2349  0.1507 -0.1195
   42MOL    H5026372   1.854   4.393   0.490  1.6127 -1.3672  0.0841
   42MOL    H5126373   1.801   4.460   0.336 -0.7251  0.7602 -0.1649
   42MOL    H5226374   2.094   4.469   0.437  1.1049  1.3316 -1.7434
   42MOL    H5326375   2.057   4.553   0.301  0.5272  2.5358  2.1295
   42MOL    H5426376   2.149   4.330   0.275 -1.0384 -3.3414  2.8853
   42MOL    H5526377   2.028   4.370   0.163 -1.8859  1.0718 -0.4651
   42MOL    H5626378   1.858   4.219   0.131 -0.4750 -0.5659 -0.1623
   42MOL    H5726379   1.740   4.057   0.335  0.9605  1.8403 -0.5579
   42MOL    H5826380   1.859   3.964   0.253 -1.9150 -1.1114  0.6457
   42MOL    H5926381   1.631   4.098   0.106  1.5517  0.8716 -1.6382
   42MOL    H6026382   1.767   4.048   0.022 -0.9440 -3.2765 -1.1349
   42MOL    H6126383   1.595   3.871   0.188 -1.0777 -0.4598 -0.9311
   42MOL    H6226384   1.743   3.821   0.112 -0.4880 -0.1563 -3.7969
   42MOL    H6326385   1.488   3.906   7.676  0.4334 -0.0048 -0.1699
   42MOL    H6426386   1.547   3.739   7.692  3.3949 -1.2566  2.2784
   42MOL    H6526387   1.731   3.794   7.552 -1.9341 -2.3710  0.5184
   42MOL    C6626388   1.600   3.908   7.447  0.1284 -0.4586  0.1403
   42MOL    O6726389   1.483   3.958   7.440 -0.3877  0.4966  0.0585
   42MOL    C6826390   1.696   3.887   7.325 -0.1222  0.1599 -0.9938
   42MOL    C6926391   1.664   3.767   7.230  0.0741 -0.0989 -0.2622
   42MOL    C7026392   1.706   3.636   7.304  0.0151 -0.0795  0.5088
   42MOL    C7126393   1.851   3.620   7.284  0.4307 -0.0163  0.3045
   42MOL    C7226394   1.913   3.486   7.333  0.1852  0.1801  0.2456
   42MOL    O7326395   1.852   3.386   7.371 -0.1026  0.1425 -0.4417
   42MOL    N7426396   2.043   3.490   7.332 -0.1874  0.3182 -0.2849
   42MOL    C7526397   2.132   3.396   7.396 -0.1645 -0.4278 -0.7651
   42MOL    C7626398   2.210   3.471   7.501 -0.1830 -0.0330  0.1689
   42MOL    C7726399   2.300   3.390   7.589  0.1460  0.2095  0.2637
   42MOL    C7826400   2.332   3.461   0.021 -0.2440  0.0865  0.2403
   42MOL    N7926401   2.391   3.388   0.125 -0.0505 -0.3372 -0.0921
   42MOL    H8026402   1.691   3.984   7.274  0.5349  0.2084 -0.9681
   42MOL    H8126403   1.799   3.890   7.363 -0.5981  0.4575  0.3032
   42MOL    H8226404   1.559   3.771   7.202 -0.4884 -2.8452  1.2867
   42MOL    H8326405   1.715   3.780   7.134 -3.6345 -0.9976 -2.4740
   42MOL    H8426406   1.665   3.548   7.254  1.8299 -0.6823  0.0363
   42MOL    H8526407   1.681   3.639   7.410 -0.4572 -2.1776  0.4827
   42MOL    H8626408   1.903   3.710   7.316 -1.2333  0.7815  0.8012
   42MOL    H8726409   1.875   3.627   7.177 -1.1078 -0.2187 -0.0558
   42MOL    H8826410   2.085   3.549   7.262 -2.6578  1.8392 -0.5450
   42MOL    H8926411   2.194   3.336   7.330 -0.6610  0.2299 -1.8502
   42MOL    H9026412   2.082   3.316   7.450  1.0474 -0.4597  0.3384
   42MOL    H9126413   2.273   3.553   7.466 -0.4554  0.6245  1.1929
   42MOL    H9226414   2.135   3.517   7.565 -0.7058 -0.2529 -0.2893
   42MOL    H9326415   2.391   3.352   7.544  1.2983  1.5571  1.4430
   42MOL    H9426416   2.240   3.303   7.615  0.1007  0.4373  0.9194
   42MOL    H9526417   2.233   3.489   0.055  0.2226  0.6251  1.1720
   42MOL    H9626418   2.392   3.542   7.682 -0.7035  1.2645  1.8789
   42MOL    H9726419   2.338   3.314   0.169  0.5801 -0.5439  0.3385
   42MOL    C9826420   2.522   3.386   0.155 -0.1107 -0.0362 -0.6192
   42MOL    O9926421   2.599   3.450   0.088 -0.1228 -0.4051 -0.3939
   42MOL   C10026422   2.562   3.299   0.274 -0.6354 -0.4626  0.2380
   42MOL   C10126423   2.692   3.331   0.343 -0.1543 -0.9081 -0.4416
   42MOL   C10226424   2.707   3.276   0.488  0.0713  0.7425 -0.2816
   42MOL   C10326425   2.843   3.286   0.550  0.1992  0.2497 -0.4556
   42MOL   C10426426   2.894   3.426   0.594 -0.0978 -0.0198  0.2994
   42MOL   O10526427   2.833   3.530   0.573  0.0145  0.4096 -0.4752
   42MOL   N10626428   3.011   3.419   0.657 -0.3603  0.0460 -0.3248
   42MOL   C10726429   3.098   3.536   0.677 -1.1403  0.0591 -0.5826
   42MOL   C10826430   3.211   3.537   0.574  0.3939  0.5093 -0.5985
   42MOL   C10926431   3.300   3.660   0.571 -1.0259  0.3273  0.7667
   42MOL   C11026432   3.452   3.652   0.539  0.3781 -0.0426  0.0088
   42MOL   N11126433   3.508   3.783   0.548 -0.4786 -0.3978 -0.4957
   42MOL   H11226434   2.479   3.267   0.337 -1.5508 -1.2120 -1.3442
   42MOL   H11326435   2.584   3.206   0.223  1.9375 -0.2081  0.8130
   42MOL   H11426436   2.771   3.284   0.285  1.7568  0.5040  0.9446
   42MOL   H11526437   2.703   3.440   0.340 -2.7348 -0.6122 -0.0052
   42MOL   H11626438   2.673   3.173   0.495 -0.0796  0.8925  1.3538
   42MOL   H11726439   2.636   3.335   0.545  0.6354  0.4462  0.7253
   42MOL   H11826440   2.924   3.231   0.503 -0.0779  0.4744 -1.1966
   42MOL   H11926441   2.823   3.235   0.644 -2.5539 -0.2760 -1.3021
   42MOL   H12026442   3.054   3.329   0.673  0.2738 -0.1554 -2.9016
   42MOL   H12126443   3.140   3.531   0.778 -1.5908  1.7757 -0.2917
   42MOL   H12226444   3.046   3.632   0.673  2.7286  2.2091 -1.7400
   42MOL   H12326445   3.279   3.457   0.606  1.9968  1.8414 -0.6075
   42MOL   H12426446   3.186   3.501   0.474 -1.9657 -0.0860  0.1821
   42MOL   H12526447   3.292   3.704   0.670  1.0957  1.6271  0.3824
   42MOL   H12626448   3.259   3.732   0.501  0.2979 -0.4876 -0.8822
   42MOL   H12726449   3.472   3.616   0.438 -3.3334  0.8861 -1.1275
   42MOL   H12826450   3.496   3.577   0.605 -0.2624 -1.5249 -1.2142
   42MOL   H12926451   3.505   3.827   0.457 -0.9249  2.2158  0.7495
   42MOL   C13026452   3.530   3.845   0.666  0.8045 -0.1041  0.0852
   42MOL   O13126453   3.533   3.789   0.773 -0.2180 -0.1617 -0.1066
   42MOL   C13226454   3.548   3.999   0.653  0.4664 -1.0556 -0.3332
   42MOL   C13326455   3.555   4.078   0.783  0.0532 -0.0971  0.1690
   42MOL   C13426456   3.420   4.078   0.858 -0.3873 -0.1454  0.3227
   42MOL   C13526457   3.414   4.199   0.953  0.3863 -0.4993  0.1211
   42MOL   C13626458   3.359   4.147   1.082 -0.4220 -0.8567 -0.3963
   42MOL   O13726459   3.425   4.159   1.183 -0.5938  0.0067  0.5527
   42MOL   N13826460   3.230   4.114   1.084  0.4242 -0.0385 -0.0891
   42MOL   C13926461   3.169   4.069   1.203 -0.2273 -0.0032  0.3016
   42MOL   C14026462   3.021   4.087   1.192  0.1018  0.3750 -1.3857
   42MOL   C14126463   2.955   4.228   1.198  0.1056  0.1622 -0.0599
   42MOL   C14226464   2.801   4.232   1.203  0.1985 -0.7798 -0.0626
   42MOL   N14326465   2.746   4.165   1.090 -0.2488 -0.1861 -0.1436
   42MOL   H14426466   3.641   4.020   0.600  0.9965  1.7863  1.6134
   42MOL   H14526467   3.464   4.040   0.597 -0.2512  0.8515  2.0330
   42MOL   H14626468   3.638   4.042   0.845  0.6117 -1.7876 -1.5348
   42MOL   H14726469   3.581   4.181   0.757 -0.7495  0.4041  1.3037
   42MOL   H14826470   3.412   3.976   0.895  0.2558 -0.3169 -0.0045
   42MOL   H14926471   3.337   4.093   0.789  2.0257  0.0738 -2.6642
   42MOL   H15026472   3.352   4.281   0.917  0.8359  0.0959  0.6920
   42MOL   H15126473   3.511   4.247   0.963 -0.1085  1.4528 -3.6193
   42MOL   H15226474   3.180   4.104   0.997 -1.7456  2.9231  0.7370
   42MOL   H15326475   3.215   4.111   1.293 -0.4241  0.4468  0.1951
   42MOL   H15426476   3.166   3.960   1.212 -0.1953  0.0155  0.5449
   42MOL   H15526477   2.999   4.045   1.094  1.8363 -1.0960 -1.1713
   42MOL   H15626478   2.958   4.031   1.261 -0.2286  0.5542 -1.5387
   42MOL   H15726479   2.987   4.286   1.111  2.9847 -3.2823 -1.4482
   42MOL   H15826480   2.992   4.284   1.284  0.0303 -2.3750  1.6919
   42MOL   H15926481   2.764   4.333   1.190  2.5982  0.0179 -0.9691
   42MOL   H16026482   2.763   4.195   1.299 -0.4930 -0.6377 -0.2819
   42MOL   H16126483   2.798   4.151   1.005  2.2999  1.7427  1.0650
   42MOL   C16226484   2.621   4.112   1.101 -1.1062 -0.0133  0.0364
   42MOL   O16326485   2.562   4.107   1.205  0.0365 -0.0661  0.4396
   42MOL   C16426486   2.567   4.058   0.969  0.4577 -0.1223  0.0734
   42MOL   C16526487   2.421   3.998   0.984  0.3667  0.2466 -0.2494
   42MOL   C16626488   2.375   3.968   0.840 -0.5063 -0.3883  0.1173
   42MOL   C16726489   2.262   3.871   0.825  0.2640  0.0942 -0.8055
   42MOL   C16826490   2.315   3.729   0.853  0.2414 -0.5443  0.9210
   42MOL   O16926491   2.400   3.677   0.781 -0.0584  0.0239 -0.1248
   42MOL   N17026492   2.251   3.664   0.951  0.0122  0.6090 -0.6665
   42MOL   C17126493   2.269   3.524   0.979 -0.1038  0.7940  0.7896
   42MOL   C17226494   2.217   3.484   1.113  0.1121 -0.6624 -0.3799
   42MOL   C17326495   2.232   3.331   1.138 -0.3439  0.2005  0.1882
   42MOL   C17426496   2.217   3.292   1.287 -0.2377 -0.5844 -0.1117
   42MOL   N17526497   2.247   3.153   1.299  0.1383 -0.1763 -0.3095
   42MOL   H17626498   2.569   4.133   0.890 -0.7852  0.2016  0.3304
   42MOL   H17726499   2.622   3.974   0.927 -0.2352  0.3466 -1.8064
   42MOL   H17826500   2.422   3.915   1.055  0.7737  0.1645 -0.3520
   42MOL   H17926501   2.359   4.070   1.038  1.2235  1.7328 -1.2018
   42MOL   H18026502   2.462   3.935   0.783 -1.2475 -0.4976 -0.9723
   42MOL   H18126503   2.341   4.060   0.793 -0.4383 -1.7782 -2.7902
   42MOL   H18226504   2.232   3.859   0.720 -3.3766 -0.4599  0.2331
   42MOL   H18326505   2.173   3.891   0.884 -0.0312 -0.4554 -1.0529
   42MOL   H18426506   2.190   3.723   1.006 -0.6553  0.3734 -1.1492
   42MOL   H18526507   2.378   3.514   0.983 -0.2509 -0.6941  1.5004
   42MOL   H18626508   2.226   3.455   0.906  1.3431 -0.1724  0.8420
   42MOL   H18726509   2.267   3.537   1.195 -0.7813 -1.3743  0.6475
   42MOL   H18826510   2.111   3.508   1.116  0.7412  2.1285  1.1364
   42MOL   H18926511   2.332   3.305   1.101  0.0187 -0.6162  1.6905
   42MOL   H19026512   2.164   3.271   1.078  0.4844 -1.1370  0.5528
   42MOL   H19126513   2.116   3.308   1.324 -0.4525 -1.2753 -0.4078
   42MOL   H19226514   2.286   3.350   1.349 -0.3972 -0.2496 -0.2476
   42MOL   H19326515   2.340   3.116   1.280 -0.3145 -0.7594 -1.4837
   42MOL   C19426516   2.156   3.054   1.284  0.6652  0.2373 -0.3765
   42MOL   O19526517   2.198   2.938   1.284 -0.1919 -0.2160 -0.4685
   42MOL   C19626518   2.003   3.082   1.275 -0.2547  0.4006  0.6440
   42MOL   C19726519   1.924   2.960   1.233 -0.4818 -0.6946 -0.4432
   42MOL   C19826520   1.951   2.923   1.084  0.0502  0.7147  0.0649
   42MOL   C19926521   1.931   3.028   0.971 -0.5732 -0.0328 -0.2267
   42MOL   C20026522   1.804   3.116   0.972  0.2779 -0.1361  0.2997
   42MOL   O20126523   1.701   3.071   1.021 -0.3061 -0.5394  0.1787
   42MOL   N20226524   1.810   3.241   0.919  0.9544 -0.0389  0.0896
   42MOL   C20326525   1.703   3.334   0.898  0.2906  0.4988 -0.2016
   42MOL   C20426526   1.725   3.465   0.958 -0.0840 -0.6807 -0.1091
   42MOL   C20526527   1.846   3.542   0.892  0.5565  0.2595 -0.3020
   42MOL   C20626528   1.853   3.684   0.950  0.8214  0.3825 -0.2530
   42MOL   N20726529   1.866   3.689   1.093 -0.3489 -0.2135  0.1098
   42MOL   H20826530   1.969   3.106   1.376  1.0323  2.5723  0.5785
   42MOL   H20926531   1.979   3.166   1.211 -0.0052  0.2817  0.3941
   42MOL   H21026532   1.952   2.879   1.301 -1.1457 -1.2596 -0.8302
   42MOL   H21126533   1.816   2.969   1.244 -0.4278  2.2921 -1.8344
   42MOL   H21226534   1.892   2.835   1.058 -0.2454  0.6895  0.8206
   42MOL   H21326535   2.050   2.885   1.063  0.0460 -0.2959  1.7863
   42MOL   H21426536   1.932   2.991   0.869  0.2822 -0.7333  0.0354
   42MOL   H21526537   2.018   3.091   0.988 -1.0914  0.2016  1.6693
   42MOL   H21626538   1.896   3.271   0.874  2.5430 -1.1581  2.2984
   42MOL   H21726539   1.617   3.294   0.952  0.9357 -1.3474 -0.5193
   42MOL   H21826540   1.678   3.343   0.793 -0.2219  0.3791 -0.0922
   42MOL   H21926541   1.635   3.526   0.959  1.9076  2.4299 -1.4618
   42MOL   H22026542   1.756   3.447   1.061  1.2936  1.0789 -0.1915
   42MOL   H22126543   1.821   3.549   0.786 -0.5373  2.2502  0.0751
   42MOL   H22226544   1.943   3.492   0.899  0.4792  0.1319 -0.1200
   42MOL   H22326545   1.775   3.753   0.919 -0.1104  0.7544  2.7523
   42MOL   H22426546   1.942   3.727   0.903  0.1032  0.5859 -1.4498
   42MOL   H22526547   1.790   3.645   1.144  0.0086 -2.6852 -1.3762
   42MOL   C22626548   1.962   3.750   1.155 -0.6228 -0.3768  0.0078
   42MOL   O22726549   2.061   3.799   1.098  0.0411  0.2548  0.2539
   42MOL   C22826550   1.947   3.773   1.304  0.3600 -0.2302 -0.0684
   42MOL   C22926551   2.003   3.652   1.386 -0.0675  0.0546  0.0928
   42MOL   C23026552   1.906   3.524   1.392  0.6966  0.9334  0.7137
   42MOL   C23126553   1.774   3.557   1.454 -0.5175  0.7048 -0.6765
   42MOL   C23226554   1.659   3.596   1.362  0.4210  0.7642  0.0810
   42MOL   O23326555   1.659   3.580   1.240 -0.0675 -0.0839  0.1088
   42MOL   N23426556   1.559   3.658   1.421  0.4814  0.8161  0.0888
   42MOL   C23526557   1.443   3.720   1.355  0.3710 -0.0967 -0.2221
   42MOL   C23626558   1.345   3.767   1.460 -0.4438  0.4755  0.7654
   42MOL   C23726559   1.220   3.841   1.389 -0.0096 -0.6191  0.5654
   42MOL   C23826560   1.117   3.875   1.497 -0.3080 -0.4449 -0.2382
   42MOL   N23926561   1.005   3.954   1.439 -0.1564  0.2589  0.0384
   42MOL   H24026562   1.996   3.866   1.331  0.5180 -0.5089  0.6240
   42MOL   H24126563   1.846   3.788   1.343  1.6031 -1.3202  3.8753
   42MOL   H24226564   2.096   3.626   1.337 -0.5498 -1.5963  0.0146
   42MOL   H24326565   2.029   3.687   1.486 -2.4131 -2.8153  1.7982
   42MOL   H24426566   1.945   3.441   1.449 -0.3311  0.1229  0.2576
   42MOL   H24526567   1.893   3.492   1.288  0.9829  3.5171 -0.1541
   42MOL   H24626568   1.784   3.629   1.535  2.0286  1.1359 -1.3474
   42MOL   H24726569   1.743   3.469   1.511  0.1708 -0.1022 -1.5377
   42MOL   H24826570   1.575   3.676   1.519 -0.7874  1.6911  0.1557
   42MOL   H24926571   1.397   3.644   1.292  2.3681 -1.2950 -0.2742
   42MOL   H25026572   1.479   3.807   1.299  1.4864 -0.9871 -0.9055
   42MOL   H25126573   1.307   3.678   1.510  0.8510 -1.9078 -2.3469
   42MOL   H25226574   1.395   3.825   1.538  2.9698 -1.1385 -0.1330
   42MOL   H25326575   1.179   3.776   1.312 -1.1874  1.2422 -0.4143
   42MOL   H25426576   1.254   3.927   1.331 -2.3088 -0.5086 -0.6463
   42MOL   H25526577   1.174   3.933   1.570  0.9141  0.2119 -1.6794
   42MOL   H25626578   1.078   3.788   1.549 -0.2967  0.1221  0.7255
   42MOL   H25726579   1.011   3.998   1.349 -1.9235 -0.3203 -0.3702
   42MOL   C25826580   0.903   3.984   1.516  0.5812  1.1602  0.5126
   42MOL   O25926581   0.901   3.957   1.636 -0.0985  0.1442  0.0707
   42MOL   C26026582   0.786   4.069   1.459 -0.2417  0.1199  0.3583
   42MOL   C26126583   0.642   4.024   1.490  0.3555  1.1042  0.0329
   42MOL   C26226584   0.578   4.089   1.606  0.0769 -0.6990  0.1608
   42MOL   C26326585   0.489   4.212   1.569  0.5079  0.0012 -0.2596
   42MOL   C26426586   0.570   4.342   1.549  0.7973  0.3260  0.1977
   42MOL   O26526587   0.524   4.430   1.474 -0.7036 -0.4944  0.7345
   42MOL   N26626588   0.678   4.362   1.626  0.5434 -0.0462 -0.2176
   42MOL   C26726589   0.763   4.478   1.639  0.5557 -0.2671 -0.6057
   42MOL   C26826590   0.904   4.438   1.702  0.0968 -0.5674 -0.2714
   42MOL   C26926591   0.988   4.562   1.731 -0.4116 -0.2602 -0.1377
   42MOL   C27026592   1.125   4.526   1.777 -0.3935  0.2277 -0.2874
   42MOL   N27126593   1.197   4.648   1.805 -0.0847 -0.2601  0.0377
   42MOL   H27226594   0.802   4.173   1.486 -1.0483  0.6222 -1.0277
   42MOL   H27326595   0.799   4.065   1.351 -1.0795  1.4051  0.1899
   42MOL   H27426596   0.579   4.026   1.401  1.5806 -1.1947 -0.9288
   42MOL   H27526597   0.650   3.917   1.509 -1.4868  1.3600  2.5971
   42MOL   H27626598   0.642   4.099   1.694 -0.1155  0.4795  0.1804
   42MOL   H27726599   0.500   4.022   1.642 -0.7636 -0.0183 -0.3585
   42MOL   H27826600   0.423   4.234   1.653  0.4571 -2.1208  0.2958
   42MOL   H27926601   0.416   4.192   1.490  0.6552 -0.0858 -0.3749
   42MOL   H28026602   0.706   4.284   1.683 -3.9916  0.1158  2.4909
   42MOL   H28126603   0.716   4.537   1.718 -0.5183 -1.2981 -0.4645
   42MOL   H28226604   0.766   4.536   1.547 -0.9797  1.7222  0.5580
   42MOL   H28326605   0.898   4.368   1.785  0.7068  2.2755  2.2734
   42MOL   H28426606   0.953   4.385   1.621 -0.2088 -1.3534  0.0607
   42MOL   H28526607   0.945   4.636   1.798 -1.6031 -1.4972  0.5066
   42MOL   H28626608   0.993   4.617   1.637  0.0789  1.5753  0.9437
   42MOL   H28726609   1.177   4.454   1.714 -0.9773 -0.2137 -0.2689
   42MOL   H28826610   1.119   4.471   1.871  2.9154  0.1769 -0.0392
   42MOL   H28926611   1.160   4.708   1.877  0.4312  0.0717  0.0265
   42MOL   C29026612   1.314   4.676   1.754  0.2272 -0.0418 -0.2066
   42MOL   O29126613   1.361   4.619   1.652 -0.2109 -0.7301 -0.4675
   42MOL   C29226614   1.395   4.788   1.827 -0.0172  0.2630 -0.4543
   42MOL   C29326615   1.545   4.769   1.815 -0.4857  0.4829  0.1025
   42MOL   C29426616   1.605   4.678   1.929  0.8368 -0.4603 -0.4247
   42MOL   C29526617   1.760   4.668   1.922  0.4512  0.4884  0.1590
   42MOL   C29626618   1.836   4.795   1.940 -0.8397  0.1157  0.0664
   42MOL   O29726619   1.826   4.866   2.039  0.2781  0.6523 -0.2272
   42MOL   N29826620   1.923   4.826   1.841  0.0782 -0.3232 -0.0180
   42MOL   C29926621   1.989   4.949   1.821 -0.1630  0.4437  0.3153
   42MOL   C30026622   2.064   4.962   1.682 -0.3045  0.1398 -0.2936
   42MOL   C30126623   2.185   4.864   1.691 -0.7352 -0.2814  0.4155
   42MOL   C30226624   2.265   4.864   1.561  0.5189 -0.1719 -1.3773
   42MOL   N30326625   2.368   4.762   1.566  0.1318  0.7382  0.2618
   42MOL   H30426626   1.361   4.874   1.770 -2.5053 -0.3175  0.0696
   42MOL   H30526627   1.373   4.804   1.932  0.5797 -0.4187 -0.2189
   42MOL   H30626628   1.576   4.711   1.728 -0.5118  1.9780 -0.9253
   42MOL   H30726629   1.600   4.863   1.810  0.7664 -0.1540  1.4086
   42MOL   H30826630   1.569   4.575   1.932  2.2075 -0.9729 -1.2771
   42MOL   H30926631   1.572   4.715   2.026  0.6586  0.3583 -0.7957
   42MOL   H31026632   1.776   4.627   1.822  0.1095  0.1590  0.2375
   42MOL   H31126633   1.803   4.595   1.990 -0.2420  1.5425  1.7487
   42MOL   H31226634   1.941   4.751   1.775 -2.5664 -0.1505 -0.9985
   42MOL   H31326635   2.053   4.966   1.908  1.6663  0.0016 -0.9200
   42MOL   H31426636   1.920   5.031   1.842  2.1888  2.3079  0.9551
   42MOL   H31526637   2.013   4.942   1.588  0.1878  0.6245 -0.6674
   42MOL   H31626638   2.102   5.064   1.676  0.8671 -0.2932 -0.5934
   42MOL   H31726639   2.159   4.762   1.720  1.0764 -1.3117 -1.4436
   42MOL   H31826640   2.255   4.898   1.767 -1.1288  0.4407  0.4621
   42MOL   H31926641   2.296   4.965   1.533 -1.9664  1.5156  1.6866
   42MOL   H32026642   2.202   4.843   1.475 -0.4516 -0.8060 -0.5200
   42MOL   H32126643   2.378   4.725   1.660  1.9453  0.7047  0.0631
   42MOL   C32226644   2.448   4.721   1.462 -0.2471 -0.3589  0.6049
   42MOL   O32326645   2.430   4.772   1.347 -0.1274 -0.1678  0.3941
   42MOL   C32426646   2.540   4.601   1.489  0.3537 -0.0020  0.0179
   42MOL   C32526647   2.685   4.644   1.464 -0.0592  0.4964  0.2605
   42MOL   C32626648   2.781   4.528   1.497 -0.4334  0.3040  0.3528
   42MOL   C32726649   2.926   4.550   1.454  0.1297  0.2109  0.2909
   42MOL   C32826650   2.995   4.658   1.534  0.4123 -0.2381  0.0338
   42MOL   O32926651   3.050   4.635   1.646  0.0653 -0.5149 -0.0009
   42MOL   N33026652   3.025   4.777   1.467 -0.4366  0.0435 -0.0082
   42MOL   C33126653   3.114   4.878   1.520 -0.0317 -0.2122 -0.5346
   42MOL   C33226654   3.228   4.905   1.417  0.4643  0.9201  0.6773
   42MOL   C33326655   3.329   5.013   1.455 -0.2848 -0.3571 -0.3363
   42MOL   C33426656   3.285   5.155   1.424  1.1733  0.5025  0.4966
   42MOL   N33526657   3.256   5.169   1.279 -0.2241  0.3965  0.4447
   42MOL   H33626658   2.541   4.568   1.593 -0.1363  1.6555  0.5716
   42MOL   H33726659   2.502   4.517   1.431  0.6730  0.4521 -0.8561
   42MOL   H33826660   2.698   4.664   1.358 -1.7526  0.0317 -0.0500
   42MOL   H33926661   2.718   4.726   1.528 -0.4055 -0.2461  1.4159
   42MOL   H34026662   2.750   4.437   1.444  2.0489 -0.0838 -0.4971
   42MOL   H34126663   2.769   4.496   1.600  0.5269  1.6683  0.9050
   42MOL   H34226664   2.921   4.578   1.348  0.5466 -2.5096 -0.4781
   42MOL   H34326665   2.978   4.455   1.467  0.5768  0.6467  1.7749
   42MOL   H34426666   2.957   4.810   1.399  0.3709  0.0255 -0.8286
   42MOL   H34526667   3.168   4.837   1.606  0.6160  0.1303 -0.7748
   42MOL   H34626668   3.061   4.970   1.546  1.8277  0.1209  2.3253
   42MOL   H34726669   3.283   4.811   1.408  0.5329  0.9414  0.8647
   42MOL   H34826670   3.178   4.913   1.320 -1.2905 -0.1306  1.4757
   42MOL   H34926671   3.420   5.006   1.394 -1.6860  1.9449 -2.7621
   42MOL   H35026672   3.352   5.015   1.561 -0.6710 -2.6772 -0.1855
   42MOL   H35126673   3.373   5.218   1.439  2.3419 -0.5088 -1.7957
   42MOL   H35226674   3.201   5.172   1.491  0.4505 -0.6669 -0.1042
   42MOL   H35326675   3.334   5.142   1.221  0.5354 -2.1902  2.5665
   42MOL   C35426676   3.145   5.229   1.228  1.1169 -0.1328  0.4739
   42MOL   O35526677   3.046   5.258   1.296 -0.6610  0.3274  0.4472
   42MOL   C35626678   3.147   5.255   1.077 -0.2140 -0.4462  0.5251
   42MOL   C35726679   3.090   5.388   1.041 -0.0514  0.1387  1.2430
   42MOL   C35826680   3.058   5.402   0.891  0.1886 -0.1645  0.5834
   42MOL   C35926681   3.177   5.406   0.788  0.3436  0.1364  1.0068
   42MOL   C36026682   3.267   5.528   0.802  0.3629  0.2329  0.2016
   42MOL   O36126683   3.364   5.526   0.877 -0.1943  0.1809  0.2007
   42MOL   N36226684   3.250   5.628   0.710  0.2962 -0.5422 -0.9454
   42MOL   C36326685   3.338   5.738   0.682  0.0042  0.0443  0.3531
   42MOL   C36426686   3.315   5.851   0.780  0.5805  0.2488  0.1428
   42MOL   C36526687   3.418   5.960   0.749  0.6188 -0.2051  0.6826
   42MOL   C36626688   3.392   6.087   0.833 -0.5898  0.1527 -0.2922
   42MOL   N36726689   3.355   6.073   0.974  0.1326  0.4199 -0.2231
   42MOL   H36826690   3.242   5.250   1.024 -0.5391 -1.3311  0.0131
   42MOL   H36926691   3.089   5.169   1.044  1.6100 -0.4367 -2.8761
   42MOL   H37026692   3.000   5.403   1.100 -0.4255 -0.8162  0.9230
   42MOL   H37126693   3.166   5.462   1.064  1.6469 -0.7455 -1.3688
   42MOL   H37226694   3.020   5.504   0.882  2.3426  0.6107  0.0358
   42MOL   H37326695   2.990   5.327   0.850 -0.2224  2.1125 -3.1992
   42MOL   H37426696   3.140   5.387   0.687 -0.7349  2.8290  0.8328
   42MOL   H37526697   3.246   5.326   0.815 -0.2410 -1.2184 -1.3427
   42MOL   H37626698   3.182   5.613   0.637 -1.4986  0.5796  0.4275
   42MOL   H37726699   3.328   5.755   0.575 -1.1244 -3.9738 -0.2433
   42MOL   H37826700   3.444   5.712   0.689  0.0536 -0.1663 -1.1347
   42MOL   H37926701   3.210   5.878   0.768  0.0135 -2.2670 -0.7806
   42MOL   H38026702   3.327   5.800   0.875 -0.7951  1.0707  0.7804
   42MOL   H38126703   3.412   5.992   0.645 -0.0805  0.2456  0.8624
   42MOL   H38226704   3.520   5.923   0.764  0.9921 -0.1179 -1.4866
   42MOL   H38326705   3.320   6.137   0.769 -0.1550 -0.0710 -0.9662
   42MOL   H38426706   3.477   6.155   0.824 -1.9153  2.0243  0.9623
   42MOL   H38526707   3.431   6.071   1.042 -0.5673 -2.6550  0.5544
   42MOL   C38626708   3.233   6.078   1.032  0.6946 -0.5092 -0.8988
   42MOL   O38726709   3.130   6.104   0.979  0.3884 -0.5504 -0.1950
   42MOL   C38826710   3.235   6.040   1.185  0.3215  0.0899  0.0236
   42MOL   C38926711   3.158   5.909   1.213 -0.4430  0.0476  0.1678
   42MOL   C39026712   3.010   5.942   1.246  0.2098 -0.0140 -0.3535
   42MOL   C39126713   2.972   5.996   1.386 -0.0109  0.1548 -0.2481
   42MOL   C39226714   2.980   5.881   1.497  0.0117  0.0411  0.0909
   42MOL   O39326715   3.000   5.764   1.467  0.8066 -0.0217 -0.0929
   42MOL   N39426716   2.962   5.913   1.626  0.0358  0.1146 -0.0403
   42MOL   C39526717   2.941   5.817   1.735  0.3340  0.1249 -0.5503
   42MOL   C39626718   2.799   5.776   1.751  0.7577 -0.6597  0.8581
   42MOL   C39726719   2.703   5.893   1.775  0.0140  0.4564  0.7753
   42MOL   C39826720   2.565   5.865   1.834 -0.8362 -0.3398 -0.3732
   42MOL   N39926721   2.500   5.982   1.883 -0.1954  0.1909  0.0943
   42MOL   H40026722   3.336   6.022   1.223  0.7781 -0.0719 -1.2667
   42MOL   H40126723   3.191   6.119   1.247  0.2371  0.4468 -0.4843
   42MOL   H40226724   3.164   5.840   1.129 -1.5062 -0.3862  0.4353
   42MOL   H40326725   3.206   5.848   1.290  3.5626  1.5220 -1.0034
   42MOL   H40426726   2.951   5.856   1.215  0.6492 -1.0016  1.4645
   42MOL   H40526727   2.984   6.012   1.167 -1.9993 -0.7310 -0.2918
   42MOL   H40626728   2.876   6.047   1.381 -0.3018 -0.4917 -1.3629
   42MOL   H40726729   3.050   6.065   1.418 -0.0603 -0.1541  0.5459
   42MOL   H40826730   2.953   6.010   1.652 -0.2203 -0.5343  2.4294
   42MOL   H40926731   2.975   5.869   1.825 -2.6583 -4.0216  3.1826
   42MOL   H41026732   2.989   5.719   1.729 -1.4690 -0.7997 -0.2912
   42MOL   H41126733   2.772   5.712   1.667 -1.0825 -0.1213  1.0199
   42MOL   H41226734   2.793   5.710   1.837  0.0988  0.2254  1.5070
   42MOL   H41326735   2.696   5.944   1.678  1.8698 -0.9442 -0.1172
   42MOL   H41426736   2.747   5.966   1.843  0.6795 -0.4567  1.3264
   42MOL   H41526737   2.585   5.800   1.920  3.3981  1.7320  0.3777
   42MOL   H41626738   2.496   5.827   1.760 -1.9019  2.2629 -0.7615
   42MOL   H41726739   2.543   6.026   1.963 -0.5372  0.7586 -0.0260
   42MOL   C41826740   2.401   6.059   1.844  0.1272  0.3115  0.5674
   42MOL   O41926741   2.336   6.034   1.742 -0.1657 -0.3208 -0.2969
   42MOL   C42026742   2.382   6.192   1.922  0.6529  0.6262 -0.0339
   42MOL   C42126743   2.293   6.298   1.849 -0.0333 -0.0319  0.1024
   42MOL   C42226744   2.280   6.426   1.935 -0.0387  0.7439 -0.3166
   42MOL   C42326745   2.188   6.523   1.863  0.3653  0.4153  0.0874
   42MOL   C42426746   2.179   6.661   1.928 -0.1624 -1.3233 -0.1000
   42MOL   O42526747   2.266   6.699   2.002  0.4986  0.1959  0.0665
   42MOL   N42626748   2.071   6.738   1.900  0.7703 -0.1354 -0.0450
   42MOL   C42726749   2.038   6.871   1.943 -0.0844 -0.4044 -0.2257
   42MOL   C42826750   2.114   6.992   1.878  0.5549  0.3628  1.2356
   42MOL   C42926751   2.098   7.017   1.729  0.4780  0.1317  0.4043
   42MOL   C43026752   2.144   7.160   1.698  0.3963 -0.2321 -0.0005
   42MOL   N43126753   2.154   7.190   1.557 -0.0089  0.3015  0.1526
   42MOL   H43226754   2.340   6.182   2.022  2.0185  1.4941  0.6381
   42MOL   H43326755   2.480   6.227   1.952  0.2388  0.7966  1.1563
   42MOL   H43426756   2.331   6.323   1.750 -0.2570  0.6608  0.1843
   42MOL   H43526757   2.192   6.263   1.832  0.6689 -1.4164 -1.2983
   42MOL   H43626758   2.374   6.480   1.936 -0.9213  2.3192  0.1181
   42MOL   H43726759   2.243   6.406   2.036  0.6680  1.8367  0.1700
   42MOL   H43826760   2.084   6.489   1.855  1.0677 -2.0403  0.7838
   42MOL   H43926761   2.230   6.544   1.765 -0.8283 -0.0974 -0.5471
   42MOL   H44026762   2.000   6.687   1.849  0.3026 -0.7425  1.1895
   42MOL   H44126763   2.063   6.877   2.049  0.9816  0.6905 -0.5187
   42MOL   H44226764   1.930   6.884   1.934  0.0293  0.6058 -0.1724
   42MOL   H44326765   2.061   7.075   1.924 -1.1562  1.3418 -2.3275
   42MOL   H44426766   2.220   6.992   1.903  1.0630 -0.3277 -0.8588
   42MOL   H44526767   1.996   7.019   1.691  0.0035 -0.0456  1.6438
   42MOL   H44626768   2.155   6.950   1.666  1.8981  2.4256 -0.8399
   42MOL   H44726769   2.240   7.181   1.745 -0.8504  0.8453  2.1020
   42MOL   H44826770   2.064   7.223   1.736 -1.7244 -2.0840 -1.2077
   42MOL   H44926771   2.207   7.129   1.496  1.7152  1.1004  0.7908
   42MOL   C45026772   2.103   7.285   1.487  0.0332  0.1528  0.0321
   42MOL   O45126773   2.039   7.373   1.543 -0.1434 -0.3705  0.3753
   42MOL   C45226774   2.135   7.295   1.332 -0.3229  0.1313 -0.5168
   42MOL   C45326775   2.014   7.296   1.249  0.1317 -0.5286  0.6229
   42MOL   C45426776   2.038   7.248   1.107 -0.1954 -0.2297 -0.0363
   42MOL   C45526777   1.922   7.271   1.003 -0.4386 -0.1753 -0.8816
   42MOL   C45626778   1.815   7.184   1.040  0.2882  0.0444  0.2153
   42MOL   O45726779   1.826   7.061   1.043  0.5281  0.2198  0.8125
   42MOL   N45826780   1.700   7.239   1.079 -0.9033  0.5189 -0.0366
   42MOL   C45926781   1.585   7.167   1.148 -0.1784  0.0669  0.0492
   42MOL   C46026782   1.466   7.172   1.046  0.5544 -0.7242 -0.0904
   42MOL   C46126783   1.360   7.067   1.076  0.5716  0.3791  0.3811
   42MOL   C46226784   1.225   7.085   1.005 -0.1527 -0.1807  0.9173
   42MOL   N46326785   1.125   7.005   1.062 -0.5419  0.2583  0.2575
   42MOL   H46426786   2.188   7.389   1.316  1.5836 -0.7385  0.5673
   42MOL   H46526787   2.206   7.221   1.295 -0.3296  1.3039 -3.0160
   42MOL   H46626788   1.931   7.239   1.290 -0.8187  1.8589  2.1892
   42MOL   H46726789   1.973   7.398   1.248  1.1055 -0.1425 -1.7307
   42MOL   H46826790   2.061   7.143   1.127 -1.0196 -0.5746 -0.8692
   42MOL   H46926791   2.118   7.308   1.064 -0.7488 -0.9940 -2.2106
   42MOL   H47026792   1.949   7.236   0.904 -0.3992 -0.6672 -0.6982
   42MOL   H47126793   1.886   7.374   1.008 -2.1017 -0.8459  6.0499
   42MOL   H47226794   1.702   7.339   1.095  2.5763  0.5578 -0.4615
   42MOL   H47326795   1.556   7.210   1.244  0.1601 -0.8964  0.5908
   42MOL   H47426796   1.613   7.062   1.158  2.2835  0.6642 -0.3199
   42MOL   H47526797   1.426   7.273   1.038  1.5494 -0.3302 -0.2734
   42MOL   H47626798   1.501   7.170   0.943  2.2369  2.2234  0.3565
   42MOL   H47726799   1.343   7.080   1.183  0.8184 -0.9522  0.6022
   42MOL   H47826800   1.392   6.962   1.071  2.3707  1.0498 -4.0875
   42MOL   H47926801   1.248   7.061   0.902  1.6021  0.4752  1.1441
   42MOL   H48026802   1.186   7.186   1.016 -1.9634 -0.8969  1.2796
   42MOL   H48126803   1.149   6.907   1.072 -0.0132  0.4531  0.9737
   42MOL   C48226804   1.013   7.047   1.126  0.1613  0.0795 -0.4597
   42MOL   O48326805   0.972   7.162   1.114 -0.4406 -0.5038 -0.0752
   42MOL   C48426806   0.935   6.945   1.212  0.1761  0.6708  0.0853
   42MOL   C48526807   0.868   7.010   1.331  0.0256 -0.2125  0.3325
   42MOL   C48626808   0.957   7.022   1.460  0.4727 -0.2616  0.0301
   42MOL   C48726809   0.901   7.117   1.564 -0.6654  0.2632  0.1328
   42MOL   C48826810   0.759   7.088   1.608 -0.0698 -0.1052 -0.2553
   42MOL   O48926811   0.667   7.166   1.593  0.5477 -0.3255 -0.1492
   42MOL   N49026812   0.749   6.973   1.668 -0.3785 -0.5807 -0.4721
   42MOL   C49126813   0.630   6.910   1.730 -0.5209 -0.7176 -0.9361
   42MOL   C49226814   0.660   6.811   1.838 -0.3111 -0.5087  0.0450
   42MOL   C49326815   0.553   6.693   1.828  0.6037  0.3559  0.3094
   42MOL   C49426816   0.596   6.570   1.904 -0.2773  0.0745 -0.2932
   42MOL   N49526817   0.533   6.442   1.848 -0.5944  0.3158 -0.1026
   42MOL   H49626818   0.860   6.901   1.147  1.8753  0.8234 -2.0369
   42MOL   H49726819   1.001   6.864   1.243  0.9111  0.9951 -0.6006
   42MOL   H49826820   0.838   7.111   1.305 -1.1054 -0.7184 -0.3595
   42MOL   H49926821   0.773   6.964   1.356  0.6156 -2.3241 -1.1360
   42MOL   H50026822   1.063   7.033   1.436  0.7608  0.7288  1.7274
   42MOL   H50126823   0.958   6.919   1.493 -2.5698 -0.5256 -0.5960
   42MOL   H50226824   0.900   7.217   1.521 -1.1776  0.6554  1.0541
   42MOL   H50326825   0.967   7.115   1.651  1.7053 -1.0894 -1.6288
   42MOL   H50426826   0.834   6.918   1.668 -0.0538 -0.0767  0.1065
   42MOL   H50526827   0.595   6.848   1.647  0.4781 -3.1211  0.3958
   42MOL   H50626828   0.555   6.980   1.766  0.3069 -1.5153  2.4632
   42MOL   H50726829   0.754   6.758   1.826 -0.2544 -1.2017  2.9867
   42MOL   H50826830   0.662   6.851   1.940  1.0283  0.1093 -0.2200
   42MOL   H50926831   0.556   6.670   1.721 -0.5959  2.0673 -0.1080
   42MOL   H51026832   0.454   6.711   1.868  0.6375  0.1212  0.4996
   42MOL   H51126833   0.567   6.593   2.006 -1.2122 -0.2698 -0.4813
   42MOL   H51226834   0.705   6.559   1.908 -0.2372  0.2390 -0.8635
   42MOL   H51326835   0.457   6.403   1.902 -0.1810 -1.8565 -1.0409
   42MOL   C51426836   0.589   6.363   1.760 -0.4089 -0.4967 -0.1490
   42MOL   O51526837   0.697   6.386   1.709  0.0311  0.6823 -0.3820
   42MOL   C51626838   0.521   6.226   1.727 -0.5980  0.2837  0.2044
   42MOL   C51726839   0.568   6.161   1.592  0.1295  0.0244 -0.0847
   42MOL   C51826840   0.523   6.214   1.455  0.1146 -0.0979 -0.3662
   42MOL   C51926841   0.370   6.249   1.449 -0.3144 -0.1587 -0.1152
   42MOL   C52026842   0.316   6.279   1.305 -0.5976 -0.8426  0.0839
   42MOL   O52126843   0.382   6.260   1.200  0.1967  0.2396  0.4825
   42MOL   N52226844   0.205   6.348   1.299  0.0805  0.6805  0.1137
   42MOL   C52326845   0.131   6.391   1.185  0.1552  0.3571 -1.0916
   42MOL   C52426846   0.029   6.284   1.135 -0.5899 -0.2033 -0.5550
   42MOL   C52526847   0.107   6.167   1.066  0.2704 -0.9052  0.8200
   42MOL   C52626848   0.008   6.086   0.989  0.1552 -0.1752  0.2349
   42MOL   N52726849   0.055   5.968   0.917 -0.9626 -0.3813  0.5567
   42MOL   H52826850   0.544   6.166   1.815 -2.2017 -2.2564 -1.0250
   42MOL   H52926851   0.412   6.232   1.720 -0.6805 -1.6287 -0.4384
   42MOL   H53026852   0.677   6.151   1.592  0.4288  2.7584 -0.2120
   42MOL   H53126853   0.533   6.058   1.592 -0.3818  0.1917  1.7184
   42MOL   H53226854   0.535   6.128   1.389 -3.5333 -1.4429  0.6151
   42MOL   H53326855   0.584   6.294   1.413 -0.0312 -0.3094 -1.0004
   42MOL   H53426856   0.349   6.331   1.517 -3.0580 -1.9653  1.3194
   42MOL   H53526857   0.311   6.163   1.481 -0.6895  0.0244 -0.3063
   42MOL   H53626858   0.171   6.367   1.392  2.3733 -2.0526  1.5970
   42MOL   H53726859   0.195   6.434   1.107  1.0561 -1.0975 -1.1727
   42MOL   H53826860   0.080   6.480   1.222  1.6598  0.0252  1.9093
   42MOL   H53926861   7.681   6.240   1.222 -0.6361  1.0697  0.0684
   42MOL   H54026862   7.651   6.337   1.082  1.1875  2.6523 -0.4443
   42MOL   H54126863   0.153   6.100   1.138  2.5763 -1.8862 -1.5158
   42MOL   H54226864   0.189   6.202   1.003 -0.7584 -0.4074 -0.2693
   42MOL   H54326865   7.656   6.141   0.912  1.1954 -1.2793 -1.3157
   42MOL   H54426866   7.625   6.051   1.048 -1.3620  0.2255 -1.6557
   42MOL   H54526867   0.147   5.930   0.938 -0.8479 -1.7868 -2.2256
   42MOL   C54626868   7.681   5.895   0.831  0.6632  0.5110  0.0512
   42MOL   O54726869   7.581   5.943   0.774 -0.7479 -0.0664  0.1676
   42MOL   C54826870   0.035   5.769   0.778 -0.1220  0.2065  0.4789
   42MOL   C54926871   0.041   5.762   0.623 -0.3259 -0.0762  0.0479
   42MOL   C55026872   0.128   5.637   0.572 -0.2972 -0.2973  0.5450
   42MOL   C55126873   0.132   5.615   0.418  1.0634  0.4603 -0.0897
   42MOL   C55226874   0.149   5.735   0.328 -0.1100 -0.2365 -0.1988
   42MOL   O55326875   0.053   5.810   0.305  0.0882  0.2927  0.5172
   42MOL   N55426876   0.273   5.755   0.276  0.0676  0.8294 -0.1329
   42MOL   C55526877   0.295   5.838   0.154 -0.3882  0.0285 -1.0125
   42MOL   C55626878   0.235   5.771   0.031  0.3907 -0.2338 -0.1167
   42MOL   C55726879   0.261   5.864   7.611  0.0185  0.0465  0.4951
   42MOL   C55826880   0.267   5.787   7.477  0.4293  0.1851 -0.5493
   42MOL   N55926881   0.124   5.773   7.428 -0.0773 -0.3566  0.0945
   42MOL   H56026882   0.132   5.743   0.820  0.3766  1.2365 -0.0342
   42MOL   H56126883   7.675   5.696   0.831  1.0991 -2.0393 -1.1178
   42MOL   H56226884   7.646   5.743   0.576 -0.6876  0.6782  0.4732
   42MOL   H56326885   0.073   5.862   0.593 -1.6565  0.6676  1.0323
   42MOL   H56426886   0.100   5.545   0.624  1.4240  0.1752  2.3754
   42MOL   H56526887   0.233   5.654   0.596  0.0886 -1.5756 -0.2006
   42MOL   H56626888   0.042   5.557   0.396  1.3678  0.4978 -1.5025
   42MOL   H56726889   0.212   5.546   0.392 -0.0162 -1.1295  0.7292
   42MOL   H56826890   0.341   5.685   0.299  0.9329  1.5649 -0.4232
   42MOL   H56926891   0.402   5.861   0.152 -0.8231  2.0048 -2.4725
   42MOL   H57026892   0.259   5.939   0.171  2.2838  0.6697  1.2171
   42MOL   H57126893   0.268   5.668   0.017  1.0871 -0.0147 -0.0994
   42MOL   H57226894   0.128   5.775   0.054  0.6980 -0.5286  1.3852
   42MOL   H57326895   0.363   5.901   7.620  0.5176 -1.4878  1.1685
   42MOL   H57426896   0.198   5.953   7.617  0.9564  0.6633  1.5061
   42MOL   H57526897   0.310   5.686   7.476  1.0985  0.4538  0.6048
   42MOL   H57626898   0.331   5.825   7.398  1.5311  0.3815  0.4292
   42MOL   H57726899   0.070   5.700   7.473 -0.8859 -0.5617 -1.1624
   42MOL   C57826900   0.083   5.802   7.305 -0.0401  0.5308  0.0713
   42MOL   O57926901   0.155   5.856   7.228  0.2222  0.2731 -0.2436
   42MOL   C58026902   7.651   5.749   7.252 -0.0155  0.3284 -0.5670
   42MOL   C58126903   7.533   5.842   7.267 -0.3785 -0.0288  0.2144
   42MOL   C58226904   7.544   5.974   7.187 -0.7005  0.3674 -0.7519
   42MOL   C58326905   7.424   6.068   7.215  0.2821 -0.5604  0.5817
   42MOL   C58426906   7.303   6.033   7.121 -0.2191 -1.1364  0.0093
   42MOL   O58526907   7.306   6.064   7.004  0.6938 -0.3160  0.1346
   42MOL   N58626908   7.196   5.969   7.176  0.3179 -0.2884 -0.2662
   42MOL   C58726909   7.064   5.957   7.118 -0.1625  0.5069  1.3422
   42MOL   C58826910   6.972   6.076   7.139  1.3830  0.3291 -0.5289
   42MOL   C58926911   6.838   6.061   7.071  0.4291  0.6417  0.5092
   42MOL   C59026912   6.780   6.200   7.050 -0.3057  0.7643  0.0605
   42MOL   N59126913   6.778   6.292   7.166 -0.5346 -0.7066  0.2519
   42MOL   H59226914   7.663   5.716   7.149  0.6362 -1.2248 -0.0224
   42MOL   H59326915   7.637   5.664   7.320 -0.4277  0.6967 -0.1923
   42MOL   H59426916   7.448   5.785   7.232  0.8937 -2.0614  0.3559
   42MOL   H59526917   7.522   5.852   7.375 -0.6772  1.2373  0.0720
   42MOL   H59626918   7.556   5.943   7.084 -1.0019  0.2185 -0.7413
   42MOL   H59726919   7.635   6.028   7.216 -0.4482 -1.0663  1.2649
   42MOL   H59826920   7.451   6.169   7.184 -1.8331 -0.4432 -1.0371
   42MOL   H59926921   7.386   6.051   7.316  2.1621 -2.1192  1.0395
   42MOL   H60026922   7.199   5.918   7.263 -1.1461 -2.4886 -1.4575
   42MOL   H60126923   7.015   5.871   7.165 -1.3967  1.1172  1.2080
   42MOL   H60226924   7.073   5.935   7.012  0.5547  0.5693  1.3928
   42MOL   H60326925   6.964   6.082   7.248  2.2176  1.6922 -0.5348
   42MOL   H60426926   7.024   6.169   7.116 -0.4430  1.9239  1.4931
   42MOL   H60526927   6.774   6.000   7.135  0.3265 -0.3403 -0.5115
   42MOL   H60626928   6.846   6.006   6.978  0.5100 -1.1607  1.5590
   42MOL   H60726929   6.678   6.186   7.014  0.9632 -1.9238 -2.7362
   42MOL   H60826930   6.828   6.246   6.963 -0.6647 -1.6007 -1.4220
   42MOL   H60926931   6.834   6.272   7.247  0.2010  1.7168  0.3791
   42MOL   C61026932   6.687   6.387   7.175 -0.5945 -0.0945 -0.1706
   42MOL   O61126933   6.606   6.419   7.085  0.1602  0.4090  0.1669
   42MOL   C61226934   6.690   6.466   7.308  0.4978 -0.4166  0.9032
   42MOL   C61326935   6.612   6.405   7.419  0.1369  0.2630 -0.1528
   42MOL   C61426936   6.469   6.459   7.425 -0.8389 -0.2976  0.1365
   42MOL   C61526937   6.387   6.350   7.496 -0.0103  0.3843 -0.2146
   42MOL   C61626938   6.321   6.257   7.393 -0.4550  0.3070  0.4231
   42MOL   O61726939   6.215   6.294   7.340  0.7078  0.7734 -0.5634
   42MOL   N61826940   6.381   6.141   7.373 -0.1163 -0.1175 -0.0507
   42MOL   C61926941   6.335   6.033   7.286 -0.2826  0.0716 -0.0940
   42MOL   C62026942   6.196   5.982   7.329 -0.0834 -0.0335  0.2646
   42MOL   C62126943   6.188   5.914   7.462  0.2882  0.2809  0.0692
   42MOL   C62226944   6.057   5.835   7.489  0.2076  0.5154  0.4282
   42MOL   N62326945   6.049   5.786   7.623  0.2532 -0.2817  0.0990
   42MOL   H62426946   6.794   6.480   7.340  0.0781  0.5892  1.8352
   42MOL   H62526947   6.656   6.567   7.287  0.7869 -0.8553 -1.9161
   42MOL   H62626948   6.620   6.297   7.410  0.9102  0.3132 -0.0698
   42MOL   H62726949   6.664   6.432   7.512 -1.9370  0.3838  1.0112
   42MOL   H62826950   6.416   6.485   7.334 -0.7855 -1.7912 -0.3331
   42MOL   H62926951   6.469   6.544   7.493 -1.5704 -3.3857  4.2104
   42MOL   H63026952   6.305   6.404   7.543 -1.0868  1.1044 -2.8096
   42MOL   H63126953   6.443   6.297   7.573 -1.4853  0.1298  0.6987
   42MOL   H63226954   6.467   6.130   7.425  0.0529 -2.0591 -0.6750
   42MOL   H63326955   6.404   5.949   7.290  0.0569  0.2790 -1.3709
   42MOL   H63426956   6.338   6.085   7.190  0.2250 -1.4105 -0.8926
   42MOL   H63526957   6.126   6.065   7.318 -0.6505 -0.8274 -2.4801
   42MOL   H63626958   6.167   5.914   7.249 -1.3494 -0.5373  1.1247
   42MOL   H63726959   6.180   5.998   7.531  0.7130 -0.3578  0.9052
   42MOL   H63826960   6.276   5.854   7.488 -0.5234 -1.9298 -2.1427
   42MOL   H63926961   6.048   5.761   7.409  1.8667 -0.8525  1.4613
   42MOL   H64026962   5.976   5.907   7.476  0.7295  0.8878 -0.8621
   42MOL   H64126963   6.115   5.711   7.639 -0.3438 -0.9335 -0.4746
   42MOL   H64226964   6.084   5.852   7.691 -0.0490  0.7677 -0.7574
   43MOL     C126965   0.724   7.146   7.641 -0.3034  0.6051  0.0970
   43MOL     O226966   0.604   7.116   7.668  0.3432  0.3477 -0.0553
   43MOL     C326967   0.763   7.188   7.497 -0.0335 -0.0156 -0.2082
   43MOL     C426968   0.657   7.254   7.412  0.6740  0.4232 -0.1435
   43MOL     C526969   0.586   7.159   7.313  0.0088  0.4748  0.0106
   43MOL     C626970   0.473   7.222   7.236  0.0265 -0.5425  0.6047
   43MOL     C726971   0.417   7.137   7.126 -0.5162 -0.0969  0.4348
   43MOL     O826972   0.500   7.065   7.061  0.1857  0.3289  0.2554
   43MOL     N926973   0.284   7.131   7.114 -0.3980 -0.0305 -0.1357
   43MOL    C1026974   0.210   7.022   7.051  0.2811 -0.6793  0.1404
   43MOL    C1126975   0.229   7.033   6.898 -0.2778  0.2382  0.3821
   43MOL    C1226976   0.147   6.931   6.822 -0.8253 -0.3029 -0.2028
   43MOL    C1326977   0.153   6.954   6.668  0.2860  0.1811 -0.2932
   43MOL    N1426978   0.118   6.832   6.588  0.1145 -0.0053 -0.0782
   43MOL    H1526979   0.834   7.269   7.510 -0.9718  0.9101 -0.8102
   43MOL    H1626980   0.804   7.099   7.450 -2.2696 -0.7826 -0.7691
   43MOL    H1726981   0.594   7.317   7.475 -0.1759 -1.4547  0.9316
   43MOL    H1826982   0.718   7.325   7.356  1.6238  1.0578  1.6571
   43MOL    H1926983   0.551   7.074   7.372  1.8169 -0.1458  0.2267
   43MOL    H2026984   0.660   7.114   7.248 -0.6278 -1.8826  0.8675
   43MOL    H2126985   0.500   7.317   7.189 -3.0264 -0.1866 -0.5441
   43MOL    H2226986   0.389   7.254   7.298  0.3964  1.2358  0.2325
   43MOL    H2326987   0.240   7.191   7.182  2.1355  2.5805 -0.7220
   43MOL    H2426988   0.103   7.032   7.069  0.3900  1.6221 -0.4075
   43MOL    H2526989   0.243   6.926   7.091  1.3700 -0.9572 -1.3869
   43MOL    H2626990   0.193   7.129   6.862 -0.7580  0.3891  1.2639
   43MOL    H2726991   0.333   7.030   6.865  0.1865  0.7777  1.7411
   43MOL    H2826992   0.042   6.941   6.851 -1.0255  1.5982 -1.4866
   43MOL    H2926993   0.179   6.831   6.852 -0.5663 -0.2409 -0.2735
   43MOL    H3026994   0.258   6.959   6.638  0.6191  0.4237  0.8571
   43MOL    H3126995   0.106   7.048   6.637  1.0314  2.1862  4.2342
   43MOL    H3226996   0.189   6.789   6.531  0.2043 -0.8024  0.6205
   43MOL    H3326997   0.806   7.148   0.011  0.0135  0.3385 -0.2665
   43MOL    C3426998   7.692   6.794   6.576 -0.2023  0.6493  0.3947
   43MOL    O3526999   7.592   6.838   6.642  0.8996  0.2385  0.1072
   43MOL    C3627000   7.661   6.697   6.467  0.4471  0.1944  0.9917
   43MOL    C3727001   7.548   6.597   6.492 -0.6523  0.2558  0.3551
   43MOL    C3827002   7.586   6.493   6.600 -0.2831  0.0970 -0.3137
   43MOL    C3927003   7.468   6.410   6.644 -0.3979  0.7976 -0.8056
   43MOL    C4027004   7.499   6.313   6.755 -0.1766  0.6582 -0.0739
   43MOL    O4127005   7.600   6.322   6.821 -0.1032  0.9772 -0.6815
   43MOL    N4227006   7.405   6.219   6.785 -0.4644  0.1047 -0.4608
   43MOL    C4327007   7.286   6.185   6.710 -0.2225  0.0126  0.0329
   43MOL    C4427008   7.322   6.065   6.619 -0.2766  0.9935  0.6774
   43MOL    C4527009   7.206   6.013   6.539 -0.6055 -0.6409 -1.0678
   43MOL    C4627010   7.220   5.876   6.467  0.3007  0.2470  0.1403
   43MOL    N4727011   7.288   5.773   6.538 -0.4104  0.0328 -0.5591
   43MOL    H4827012   7.622   6.757   6.385 -1.8758 -0.4955  1.5324
   43MOL    H4927013   0.049   6.648   6.431  0.9507  1.1668  0.9011
   43MOL    H5027014   7.456   6.638   6.533 -0.4906 -0.2394  1.2171
   43MOL    H5127015   7.523   6.546   6.398  0.6277 -1.6120  0.9937
   43MOL    H5227016   7.635   6.541   6.685 -0.7680  0.2992 -0.1414
   43MOL    H5327017   7.675   6.436   6.573  0.9489  0.4021  2.8311
   43MOL    H5427018   7.437   6.354   6.556  0.6068  0.1056 -0.7317
   43MOL    H5527019   7.388   6.473   6.681 -0.1104  1.5400 -1.4338
   43MOL    H5627020   7.425   6.156   6.862 -1.6373 -0.9782 -1.0153
   43MOL    H5727021   7.250   6.266   6.648 -1.3517 -0.4251  0.0984
   43MOL    H5827022   7.209   6.146   6.777 -0.2351 -2.0746 -1.1426
   43MOL    H5927023   7.403   6.094   6.552  1.6551 -0.1571  2.4553
   43MOL    H6027024   7.364   5.986   6.682  0.8520 -0.4992 -1.8891
   43MOL    H6127025   7.183   6.087   6.462  0.2485 -2.0606 -2.6916
   43MOL    H6227026   7.120   5.990   6.603 -0.1986 -0.1972 -0.3533
   43MOL    H6327027   7.273   5.896   6.374  0.5768  0.5945  0.3783
   43MOL    H6427028   7.121   5.836   6.444  0.0987  1.3653 -0.9965
   43MOL    H6527029   7.387   5.781   6.559 -0.3310  1.6516 -1.4833
   43MOL    C6627030   7.228   5.674   6.609  0.5583 -0.5299 -0.3647
   43MOL    O6727031   7.112   5.653   6.609 -0.2941 -0.6043 -0.0162
   43MOL    C6827032   7.319   5.578   6.682 -0.1879  0.6727  0.1354
   43MOL    C6927033   7.398   5.639   6.813  0.5477  0.0871  0.2967
   43MOL    C7027034   7.307   5.699   6.914  0.5826  0.1397 -0.5128
   43MOL    C7127035   7.242   5.603   7.011  0.3738  0.1490 -0.2281
   43MOL    C7227036   7.327   5.524   7.108 -0.1260  0.6909  0.3822
   43MOL    O7327037   7.447   5.548   7.118 -0.6004 -1.0645  0.2022
   43MOL    N7427038   7.270   5.429   7.182 -1.3640  0.2999  0.1585
   43MOL    C7527039   7.346   5.330   7.261  0.2662 -0.0228 -0.2460
   43MOL    C7627040   7.293   5.314   7.404 -0.4136  0.8091  0.4488
   43MOL    C7727041   7.343   5.422   7.503  0.4834  0.5380  0.2322
   43MOL    C7827042   7.306   5.569   7.471  0.0455 -0.0279 -0.0145
   43MOL    N7927043   7.161   5.592   7.444  0.0900  0.2930 -0.0377
   43MOL    H8027044   7.274   5.486   6.720  1.5983  0.5592  2.0681
   43MOL    H8127045   7.396   5.530   6.621  0.9067  0.5117  1.5969
   43MOL    H8227046   7.476   5.578   6.860 -0.6974 -0.4798  1.6595
   43MOL    H8327047   7.455   5.729   6.790 -0.6240  0.9829  0.8152
   43MOL    H8427048   7.228   5.763   6.873 -0.3235 -0.1547  0.7120
   43MOL    H8527049   7.371   5.765   6.973 -0.1910  0.4025  0.0517
   43MOL    H8627050   7.174   5.544   6.948 -0.0326 -0.6237  0.9158
   43MOL    H8727051   7.174   5.658   7.075 -1.1240 -1.1151 -0.6874
   43MOL    H8827052   7.174   5.405   7.158 -0.3332 -0.1087 -3.9529
   43MOL    H8927053   7.454   5.349   7.267  1.1504 -3.3316 -3.5760
   43MOL    H9027054   7.330   5.234   7.214 -0.4244 -0.2678  0.4763
   43MOL    H9127055   7.184   5.316   7.397 -0.4936 -0.5914  1.1649
   43MOL    H9227056   7.323   5.224   7.458  0.8362  1.0143  0.1120
   43MOL    H9327057   7.451   5.413   7.518  0.4966 -1.1929 -0.8443
   43MOL    H9427058   7.311   5.408   7.606 -0.8921  0.7575 -0.1637
   43MOL    H9527059   7.371   5.599   7.389  1.8452  1.0133  1.7271
   43MOL    H9627060   7.331   5.627   7.560  0.3656  0.5198 -0.4592
   43MOL    H9727061   7.101   5.511   7.445 -0.3621  0.6261  0.0174
   43MOL    C9827062   7.097   5.712   7.426 -0.3823  0.3595 -0.1459
   43MOL    O9927063   7.156   5.820   7.425 -0.4400  0.2342  0.8709
   43MOL   C10027064   6.941   5.709   7.403 -0.4365 -0.1564 -0.5734
   43MOL   C10127065   6.869   5.833   7.452 -0.3149  0.1951  0.3020
   43MOL   C10227066   6.835   5.814   7.604  0.0230 -0.1726 -0.0542
   43MOL   C10327067   6.719   5.901   7.663  0.0314 -0.9957  0.1289
   43MOL   C10427068   6.729   6.044   7.621  0.1920  0.2905 -0.1293
   43MOL   O10527069   6.653   6.079   7.533  0.3766 -0.2028 -1.1581
   43MOL   N10627070   6.818   6.117   7.686 -0.5173  0.3308  0.2703
   43MOL   C10727071   6.830   6.263   7.677  0.3401  0.1515 -0.0213
   43MOL   C10827072   6.944   6.320   0.057 -0.3052  0.6121 -0.2826
   43MOL   C10927073   6.958   6.470   0.060  0.0942 -0.2668  0.2615
   43MOL   C11027074   6.979   6.528   7.619 -0.0735 -0.5219 -0.3850
   43MOL   N11127075   7.108   6.482   7.565 -0.2213 -0.1880 -0.1293
   43MOL   H11227076   6.949   5.705   7.294  0.6779 -0.4467 -0.4920
   43MOL   H11327077   6.876   5.628   7.435 -0.6578  1.6259  3.8164
   43MOL   H11427078   6.930   5.923   7.453 -1.9456  1.3332 -0.0513
   43MOL   H11527079   6.775   5.850   7.399  0.4894  1.0085 -0.8902
   43MOL   H11627080   6.924   5.841   7.661 -1.2780 -0.5133  2.1664
   43MOL   H11727081   6.819   5.707   7.618 -1.8693  0.0736 -0.2065
   43MOL   H11827082   6.731   5.904   0.070 -0.4649  2.6355  0.1426
   43MOL   H11927083   6.623   5.854   7.643 -0.7421  0.5038  0.2343
   43MOL   H12027084   6.890   6.069   0.037 -1.3795 -1.7608 -0.4381
   43MOL   H12127085   6.737   6.309   0.007 -0.9440 -1.6455 -1.1384
   43MOL   H12227086   6.839   6.279   7.570 -1.3766 -2.7193 -0.6537
   43MOL   H12327087   6.917   6.281   0.156 -1.6287 -0.9697 -1.2246
   43MOL   H12427088   7.030   6.261   0.025 -0.5550  0.3561 -0.4925
   43MOL   H12527089   7.035   6.498   0.132 -0.3278  1.2024  0.1499
   43MOL   H12627090   6.867   6.510   0.105  0.0765  1.0613 -0.9540
   43MOL   H12727091   6.985   6.636   7.611 -1.0234 -0.6067 -2.4722
   43MOL   H12827092   6.898   6.489   7.558  1.7989 -1.9305 -2.0460
   43MOL   H12927093   7.191   6.508   7.616 -0.5227  2.3388 -0.8934
   43MOL   C13027094   7.121   6.396   7.462 -0.1256  1.2095  1.2549
   43MOL   O13127095   7.023   6.362   7.395  0.5062  0.2055  0.0643
   43MOL   C13227096   7.264   6.357   7.429 -0.1487 -0.4654 -0.3219
   43MOL   C13327097   7.315   6.418   7.303 -0.0284 -0.0444  0.2412
   43MOL   C13427098   7.242   6.399   7.173 -0.2043  0.3059  0.1711
   43MOL   C13527099   7.335   6.425   7.046  0.8650  0.0949 -0.7444
   43MOL   C13627100   7.396   6.563   7.035  0.1382 -0.1381 -0.2713
   43MOL   O13727101   7.336   6.655   7.087 -0.1529  0.0349  0.5670
   43MOL   N13827102   7.505   6.574   6.956 -0.3515 -0.6984 -0.4383
   43MOL   C13927103   7.591   6.691   6.951  0.0621  0.7822 -0.0920
   43MOL   C14027104   7.696   6.700   7.064 -0.2026  0.7401 -0.1529
   43MOL   C14127105   0.085   6.583   7.085 -0.4241 -0.8836  0.3352
   43MOL   C14227106   0.188   6.563   6.973  0.0738  0.2697  1.0592
   43MOL   N14327107   0.250   6.432   6.999 -0.5025 -0.2319 -0.5415
   43MOL   H14427108   7.325   6.389   7.513 -0.2857 -0.0505 -0.3820
   43MOL   H14527109   7.265   6.248   7.438  0.5721 -0.3812  0.7264
   43MOL   H14627110   7.328   6.526   7.316 -1.5812  0.1795  0.0094
   43MOL   H14727111   7.417   6.381   7.294  0.3927  0.3120  3.1646
   43MOL   H14827112   7.145   6.449   7.168 -1.7023 -2.6100 -1.3634
   43MOL   H14927113   7.218   6.292   7.170 -3.7171  0.9975  0.9856
   43MOL   H15027114   7.294   6.410   6.947 -0.5187 -1.6045  0.0586
   43MOL   H15127115   7.421   6.361   7.063  0.7413  0.1256  0.0125
   43MOL   H15227116   7.545   6.488   6.922 -0.2572 -1.1948  0.9262
   43MOL   H15327117   7.541   6.788   6.938 -1.1692  0.0587 -0.8384
   43MOL   H15427118   7.650   6.675   6.861  2.4480  0.1671  1.5414
   43MOL   H15527119   0.055   6.790   7.049  0.5354  0.3668  0.5025
   43MOL   H15627120   7.639   6.708   7.157 -1.3430  0.2134 -0.7913
   43MOL   H15727121   0.024   6.492   7.084 -2.4116  0.3835 -3.8109
   43MOL   H15827122   0.134   6.590   7.182 -0.3710 -0.9192  0.3105
   43MOL   H15927123   0.275   6.629   6.967 -0.3233  0.7877  0.9899
   43MOL   H16027124   0.145   6.578   6.874  2.4071 -0.7025 -0.1387
   43MOL   H16127125   0.231   6.379   7.083 -0.2345  0.8403  0.2073
   43MOL   C16227126   0.328   6.368   6.918 -0.0666 -0.0523  0.5906
   43MOL   O16327127   0.377   6.419   6.818 -0.3408 -0.0163 -0.1297
   43MOL   C16427128   0.358   6.219   6.955 -0.2570  0.0686 -0.4078
   43MOL   C16527129   0.343   6.124   6.834 -0.3072 -0.3516 -0.4432
   43MOL   C16627130   0.244   5.998   6.847  0.5589 -0.6601 -0.4056
   43MOL   C16727131   0.301   5.891   6.941 -0.2112  0.4998  0.6588
   43MOL   C16827132   0.401   5.800   6.862 -0.0600 -0.2939  0.6812
   43MOL   O16927133   0.432   5.833   6.743 -0.6771  0.1481 -0.0902
   43MOL   N17027134   0.456   5.698   6.928 -0.1849  0.7289  0.1775
   43MOL   C17127135   0.439   5.648   7.069  0.0634 -0.1084  0.4202
   43MOL   C17227136   0.552   5.680   7.172 -0.1890 -0.2080 -0.0619
   43MOL   C17327137   0.693   5.605   7.143 -0.2124 -0.1006  0.4147
   43MOL   C17427138   0.818   5.690   7.125  0.4870 -0.1703 -0.1641
   43MOL   N17527139   0.804   5.777   7.016  0.2797 -0.3350  0.3105
   43MOL   H17627140   0.444   6.206   7.020 -0.1294  1.6697 -0.2304
   43MOL   H17727141   0.275   6.193   7.019 -2.1007  1.0699 -2.3252
   43MOL   H17827142   0.319   6.185   6.748 -0.5955  1.3443  0.8173
   43MOL   H17927143   0.441   6.096   6.796  0.0414 -0.3386  0.4368
   43MOL   H18027144   0.226   5.963   6.745 -2.3218  1.5246 -0.7063
   43MOL   H18127145   0.147   6.028   6.887  0.5835  0.8543 -1.4120
   43MOL   H18227146   0.224   5.827   6.984  2.2447 -1.8725  1.7522
   43MOL   H18327147   0.357   5.939   7.022  0.3290  0.1990  0.4636
   43MOL   H18427148   0.523   5.645   6.874  0.1245  0.7916  0.4965
   43MOL   H18527149   0.426   5.540   7.070 -0.7053 -0.0159  0.6346
   43MOL   H18627150   0.346   5.691   7.105  0.5394  0.7917  0.5916
   43MOL   H18727151   0.578   5.785   7.182 -0.4604 -0.1052 -0.4555
   43MOL   H18827152   0.517   5.644   7.269 -0.0371  2.0941  0.8848
   43MOL   H18927153   0.682   5.538   7.058  3.7393 -2.3588  1.5720
   43MOL   H19027154   0.718   5.527   7.215 -2.0252 -0.5801  0.5358
   43MOL   H19127155   0.899   5.619   7.110 -0.9912 -1.9217 -0.0217
   43MOL   H19227156   0.828   5.744   7.219 -1.2600 -0.3355  0.1345
   43MOL   H19327157   0.767   5.727   6.937  0.3690  2.5971 -1.6354
   43MOL   C19427158   0.869   5.894   6.994  0.2195  0.3119 -0.5656
   43MOL   O19527159   0.935   5.951   7.076  0.0345  0.1276 -0.1198
   43MOL   C19627160   0.856   5.954   6.847  0.4225 -0.4902 -0.0575
   43MOL   C19727161   0.745   6.052   6.834 -0.2548  0.3693  0.0166
   43MOL   C19827162   0.781   6.177   6.910 -0.5505  0.5609 -0.0190
   43MOL   C19927163   0.706   6.301   6.865  0.3402 -0.2534  0.2096
   43MOL   C20027164   0.740   6.355   6.724 -0.3801  0.1236  0.3719
   43MOL   O20127165   0.849   6.327   6.665  0.1676  0.4787 -0.3743
   43MOL   N20227166   0.650   6.435   6.665 -0.2166 -0.6372  0.2719
   43MOL   C20327167   0.666   6.488   6.530 -0.3995 -0.1942 -0.3406
   43MOL   C20427168   0.532   6.527   6.468  0.4932  0.0931  0.4469
   43MOL   C20527169   0.431   6.413   6.461  0.0497  0.3068  0.2327
   43MOL   C20627170   0.284   6.458   6.461 -0.5856 -0.3523 -0.4038
   43MOL   N20727171   0.203   6.351   6.531  0.2463 -0.3284  0.1690
   43MOL   H20827172   0.947   5.998   6.806  0.0036 -0.9077 -1.4484
   43MOL   H20927173   0.832   5.874   6.777 -0.2534 -0.7015  0.4087
   43MOL   H21027174   0.723   6.074   6.729 -1.2065 -0.0287  0.1267
   43MOL   H21127175   0.657   5.999   6.871 -0.6223  1.3908  0.6041
   43MOL   H21227176   0.889   6.188   6.906 -0.3062 -2.1592 -2.6503
   43MOL   H21327177   0.761   6.151   7.014  0.6393  2.2379  0.6414
   43MOL   H21427178   0.737   6.387   6.925 -1.0660  1.4276 -1.4139
   43MOL   H21527179   0.598   6.291   6.867  0.2551  0.7510  1.2521
   43MOL   H21627180   0.570   6.469   6.715  0.2451 -1.4945  1.6099
   43MOL   H21727181   0.702   6.398   6.479 -0.8047  1.0463 -2.9228
   43MOL   H21827182   0.746   6.562   6.533 -0.8433  0.2802 -0.0066
   43MOL   H21927183   0.497   6.615   6.523  1.0693  0.0693  0.8540
   43MOL   H22027184   0.549   6.561   6.366  1.3879 -1.3509  0.0999
   43MOL   H22127185   0.439   6.352   6.551  1.1007 -1.1153 -0.8047
   43MOL   H22227186   0.445   6.344   6.378 -1.5946  2.6128 -2.0596
   43MOL   H22327187   0.244   6.486   6.364 -0.0343 -0.2475 -0.6032
   43MOL   H22427188   0.279   6.544   6.528 -0.4495 -0.4545 -0.2607
   43MOL   H22527189   0.202   6.360   6.632 -0.1152 -0.1148  0.1456
   43MOL   C22627190   0.132   6.255   6.463  0.4653 -1.0345 -0.3872
   43MOL   O22727191   0.133   6.242   6.341 -0.1127 -0.6367 -0.2053
   43MOL   C22827192   0.041   6.159   6.544  0.3349 -0.0425  0.0377
   43MOL   C22927193   0.067   6.003   6.526 -0.0124 -0.9820 -0.5121
   43MOL   C23027194   0.011   5.939   6.397 -0.0490  0.0104  0.1763
   43MOL   C23127195   0.036   5.794   6.374 -0.7049  0.0355  0.5537
   43MOL   C23227196   7.689   5.696   6.487  0.0259  0.1187 -0.4145
   43MOL   O23327197   7.579   5.719   6.532  0.3173 -0.2512 -0.8351
   43MOL   N23427198   0.061   5.590   6.515  0.0806  0.1249 -0.4261
   43MOL   C23527199   0.027   5.488   6.615 -0.0434  0.5245 -0.5449
   43MOL   C23627200   0.080   5.527   6.757  0.1591 -0.1549 -0.3328
   43MOL   C23727201   0.037   5.433   6.874  0.2244  0.3380 -0.3964
   43MOL   C23827202   0.106   5.468   7.005  0.0520 -0.0068 -0.4821
   43MOL   N23927203   0.058   5.387   7.124  0.7572  0.2814  0.4212
   43MOL   H24027204   0.069   6.188   6.646  0.1140  0.6617 -0.1009
   43MOL   H24127205   7.639   6.188   6.528  0.5948  0.6943 -0.3328
   43MOL   H24227206   0.174   5.981   6.532 -0.2508 -2.1685 -0.5893
   43MOL   H24327207   0.006   5.958   6.604 -1.1061  0.2138 -0.6782
   43MOL   H24427208   0.043   5.990   6.306 -0.1951 -0.9750 -0.4379
   43MOL   H24527209   7.607   5.967   6.402 -0.1145  0.4585 -3.0705
   43MOL   H24627210   0.143   5.775   6.377 -0.4128  1.2908 -1.3291
   43MOL   H24727211   0.015   5.763   6.272  0.5695  0.3066  0.1953
   43MOL   H24827212   0.155   5.584   6.478  0.7536 -0.3145  1.2919
   43MOL   H24927213   0.071   5.394   6.584  2.7591  1.1744  1.3197
   43MOL   H25027214   7.620   5.479   6.624 -0.1786  0.3041 -2.2499
   43MOL   H25127215   0.188   5.524   6.762  0.0862 -0.9798  0.7758
   43MOL   H25227216   0.056   5.631   6.777  0.8174 -0.5044  2.4730
   43MOL   H25327217   0.069   5.330   6.854  0.6461  0.5901 -1.0371
   43MOL   H25427218   7.631   5.413   6.879  0.5079 -0.8303  1.3934
   43MOL   H25527219   0.085   5.572   7.026 -1.6710 -1.1504  4.1190
   43MOL   H25627220   0.214   5.463   6.995  0.1590  2.1009 -0.4512
   43MOL   H25727221   7.669   5.416   7.156 -0.6993 -2.4821 -1.0239
   43MOL   C25827222   0.109   5.278   7.184  0.5636  0.4424 -0.5225
   43MOL   O25927223   0.216   5.231   7.150  0.0997  0.1275  0.2901
   43MOL   C26027224   0.039   5.200   7.294  0.3080 -0.5036 -0.0770
   43MOL   C26127225   0.011   5.278   7.416 -0.9758 -0.0931  0.2816
   43MOL   C26227226   0.135   5.362   7.476 -0.2497 -0.3252  0.4316
   43MOL   C26327227   0.127   5.392   7.626 -0.0946  0.1177 -0.0192
   43MOL   C26427228   0.021   5.491   7.664 -0.5907 -0.6680 -0.1695
   43MOL   O26527229   7.692   5.583   7.586 -0.3372 -0.1130 -0.1091
   43MOL   N26627230   7.677   5.479   0.090 -0.5032  0.1127 -0.1573
   43MOL   C26727231   7.559   5.540   0.149  0.7244  0.1174 -0.0789
   43MOL   C26827232   7.486   5.439   0.241  0.2678  0.7310  0.2371
   43MOL   C26927233   7.432   5.320   0.161 -0.3155 -0.0820  0.2525
   43MOL   C27027234   7.446   5.191   0.237 -0.1695 -0.5015  0.3955
   43MOL   N27127235   7.374   5.082   0.186 -0.2672  0.9551  0.2780
   43MOL   H27227236   7.646   5.163   7.253 -0.8024  0.1084  1.8347
   43MOL   H27327237   0.096   5.109   7.310  1.3508  0.3688  1.2114
   43MOL   H27427238   7.628   5.340   7.387 -2.5420 -2.4396 -0.4038
   43MOL   H27527239   7.662   5.213   7.487 -0.5304 -0.6787  0.0722
   43MOL   H27627240   0.151   5.450   7.413  1.2608 -0.6415  0.3618
   43MOL   H27727241   0.225   5.303   7.461  0.4836  0.8638  0.0440
   43MOL   H27827242   0.221   5.435   7.660 -0.2637  2.2656 -2.1267
   43MOL   H27927243   0.101   5.301   7.680 -0.4830 -0.5654 -1.3390
   43MOL   H28027244   0.017   5.408   0.149 -1.3370 -0.3151 -0.0669
   43MOL   H28127245   7.490   5.578   0.075  1.2585  1.1463 -0.0573
   43MOL   H28227246   7.589   5.628   0.206  0.2385  0.0477  0.2873
   43MOL   H28327247   7.554   5.401   0.317 -0.8794 -3.4656 -0.7245
   43MOL   H28427248   7.404   5.490   0.293  0.7411  2.5192 -0.7400
   43MOL   H28527249   7.486   5.312   0.067 -0.3523 -0.1242  0.2354
   43MOL   H28627250   7.331   5.344   0.126  1.0377  1.0189 -3.0788
   43MOL   H28727251   7.415   5.208   0.340 -1.1423 -0.4170  0.0966
   43MOL   H28827252   7.553   5.170   0.235 -0.1312 -0.3224  0.5513
   43MOL   H28927253   7.316   5.031   0.252  0.0223 -0.3159 -0.4294
   43MOL   C29027254   7.379   5.029   0.061  0.5328 -0.5927 -0.2612
   43MOL   O29127255   7.463   5.065   7.681  0.4007 -0.3109  0.2117
   43MOL   C29227256   7.277   4.924   0.043  0.3084  0.0984 -0.1821
   43MOL   C29327257   7.270   4.867   7.597  0.2540 -0.8669  0.0883
   43MOL   C29427258   7.172   4.960   7.512  0.0281 -0.1140  0.8093
   43MOL   C29527259   7.203   4.974   7.366  0.1678 -0.0214  0.5437
   43MOL   C29627260   7.155   4.847   7.291 -0.3260 -0.1618  0.5167
   43MOL   O29727261   7.039   4.803   7.309 -0.0624  0.0662 -0.4192
   43MOL   N29827262   7.236   4.801   7.193  0.0648 -0.1072  0.5783
   43MOL   C29927263   7.217   4.667   7.131  0.2475 -0.2993 -0.3589
   43MOL   C30027264   7.156   4.676   6.994 -0.3399 -0.1473  0.3308
   43MOL   C30127265   7.246   4.749   6.884  0.2442 -0.6159  0.3446
   43MOL   C30227266   7.219   4.709   6.732 -0.1479 -0.6165 -0.4832
   43MOL   N30327267   7.080   4.728   6.708  0.2255 -0.2029  0.5320
   43MOL   H30427268   7.319   4.852   0.113 -2.9717 -2.6059 -0.8429
   43MOL   H30527269   7.179   4.956   0.078 -0.0958 -0.9720 -0.3110
   43MOL   H30627270   7.370   4.880   7.555  0.3198  0.4732  0.6282
   43MOL   H30727271   7.249   4.761   7.583 -1.9983 -0.3377 -0.8323
   43MOL   H30827272   7.176   5.059   7.557 -1.2572  0.2517  0.1436
   43MOL   H30927273   7.066   4.944   7.534 -0.7357  0.8956 -1.9324
   43MOL   H31027274   7.307   4.994   7.341  0.4331 -2.3364 -0.3670
   43MOL   H31127275   7.141   5.052   7.322  2.9120  0.7861 -2.0269
   43MOL   H31227276   7.323   4.850   7.177 -0.7312  1.2498  0.2595
   43MOL   H31327277   7.161   4.597   7.193  1.8916 -0.9718  0.3873
   43MOL   H31427278   7.319   4.635   7.111  0.9920  0.9220  1.3565
   43MOL   H31527279   7.144   4.571   6.965 -0.1131 -0.9635  3.0258
   43MOL   H31627280   7.053   4.711   6.996 -0.4494 -0.3939 -0.6236
   43MOL   H31727281   7.350   4.726   6.905  0.3194 -0.2685  0.3596
   43MOL   H31827282   7.244   4.856   6.905  1.5289 -0.4270 -0.4474
   43MOL   H31927283   7.248   4.605   6.717  0.5433 -0.9700  2.9515
   43MOL   H32027284   7.278   4.767   6.661  1.3366  0.2582  1.4194
   43MOL   H32127285   7.014   4.674   6.761  0.1228 -0.5076  0.0968
   43MOL   C32227286   7.032   4.832   6.636 -0.7790 -0.4659  0.5516
   43MOL   O32327287   7.106   4.906   6.564  0.1313 -0.1984 -0.3143
   43MOL   C32427288   6.875   4.874   6.640  0.0681 -0.2648 -0.4631
   43MOL   C32527289   6.788   4.800   6.747 -0.0621 -0.5311 -0.4957
   43MOL   C32627290   6.756   4.658   6.696  0.4957  0.3586 -0.1678
   43MOL   C32727291   6.660   4.578   6.785 -0.7569  0.8833 -0.1922
   43MOL   C32827292   6.646   4.432   6.749  0.2178 -0.4807 -0.1092
   43MOL   O32927293   6.565   4.402   6.665  0.9742  0.3927  0.0437
   43MOL   N33027294   6.728   4.346   6.806  0.0865  0.1769  0.0255
   43MOL   C33127295   6.734   4.201   6.791  0.4115 -0.0641  0.7242
   43MOL   C33227296   6.678   4.137   6.668  0.0870  0.0746 -0.0511
   43MOL   C33327297   6.707   3.987   6.654  0.0417  0.0345 -0.0336
   43MOL   C33427298   6.633   3.915   6.542 -0.2127 -0.2677  0.1385
   43MOL   N33527299   6.657   3.772   6.541 -0.0725 -0.5375 -0.3270
   43MOL   H33627300   6.866   4.979   6.668 -1.5202 -0.3489 -0.5926
   43MOL   H33727301   6.836   4.875   6.538 -0.4760 -0.8271 -0.2657
   43MOL   H33827302   6.819   4.814   6.850 -2.0838 -2.5491  0.4203
   43MOL   H33927303   6.694   4.855   6.741 -0.6030 -1.1750  1.6949
   43MOL   H34027304   6.845   4.595   6.692  0.3613  0.2044 -1.0534
   43MOL   H34127305   6.723   4.655   6.592  2.4681  0.2418 -0.8082
   43MOL   H34227306   6.563   4.626   6.786 -1.0023  0.3878  1.2220
   43MOL   H34327307   6.695   4.575   6.889 -1.5110  0.3811  0.0521
   43MOL   H34427308   6.801   4.387   6.862 -0.2721  1.9274 -0.7735
   43MOL   H34527309   6.695   4.158   6.883  1.3405  0.7484  1.5080
   43MOL   H34627310   6.836   4.162   6.793 -0.0078 -1.1544  0.9631
   43MOL   H34727311   6.572   4.155   6.653  0.2643  0.0857 -1.3971
   43MOL   H34827312   6.731   4.184   6.585 -0.1687  0.8408  0.2182
   43MOL   H34927313   6.675   3.934   6.744 -0.2269  0.2524  0.0020
   43MOL   H35027314   6.812   3.966   6.637 -0.1464 -1.2031  0.2183
   43MOL   H35127315   6.651   3.952   6.441 -0.8498 -0.7047 -0.1356
   43MOL   H35227316   6.528   3.933   6.566 -0.7603 -2.3043 -0.6061
   43MOL   H35327317   6.753   3.750   6.522  0.2800  1.1128 -0.5833
   43MOL   C35427318   6.566   3.673   6.550  0.4644  0.1083  0.0434
   43MOL   O35527319   6.449   3.698   6.569  0.2880  0.0347 -1.0365
   43MOL   C35627320   6.606   3.533   6.527  0.4934  0.3275 -0.3680
   43MOL   C35727321   6.557   3.484   6.392  0.2843  0.0156  0.0814
   43MOL   C35827322   6.532   3.340   6.362 -0.9567 -0.0999  0.2679
   43MOL   C35927323   6.651   3.243   6.399 -0.3923  0.3081  0.8273
   43MOL   C36027324   6.752   3.210   6.282 -0.1792 -0.5975 -0.0644
   43MOL   O36127325   6.742   3.279   6.182  0.1056  0.4760 -0.0819
   43MOL   N36227326   6.843   3.114   6.311 -0.3636  0.0652 -0.1665
   43MOL   C36327327   6.948   3.084   6.210  0.0290  0.4173 -0.1323
   43MOL   C36427328   6.885   2.976   6.114 -0.2339 -0.0683  0.0165
   43MOL   C36527329   6.983   2.925   5.995  0.0691 -0.2977 -0.4019
   43MOL   C36627330   6.965   2.775   5.948 -0.9141  0.0398 -0.1972
   43MOL   N36727331   6.993   2.673   6.049 -0.2702 -0.5927  0.1846
   43MOL   H36827332   6.713   3.520   6.538  0.4410 -0.7519 -1.1092
   43MOL   H36927333   6.568   3.474   6.610 -1.0303 -0.0317 -1.2917
   43MOL   H37027334   6.477   3.546   6.350 -0.3141 -1.0586 -0.4011
   43MOL   H37127335   6.643   3.504   6.328  1.1616  1.9136  1.7786
   43MOL   H37227336   6.502   3.335   6.257  1.4100 -0.1428 -0.4468
   43MOL   H37327337   6.442   3.315   6.418 -1.5822 -2.3134 -1.6377
   43MOL   H37427338   6.606   3.147   6.424  0.2965  0.3894  2.4222
   43MOL   H37527339   6.711   3.278   6.483 -1.7540  3.0291  0.7107
   43MOL   H37627340   6.837   3.064   6.399  0.3856  3.3264  1.8421
   43MOL   H37727341   7.037   3.047   6.261 -1.0111 -1.6490  0.2382
   43MOL   H37827342   6.981   3.174   6.158  0.1245 -0.7848 -2.1998
   43MOL   H37927343   6.853   2.885   6.165 -2.5624  0.0425 -1.1762
   43MOL   H38027344   6.797   3.015   6.062 -2.1409 -1.1435  2.3572
   43MOL   H38127345   7.082   2.917   6.040  0.2638  1.5301 -0.4803
   43MOL   H38227346   7.000   2.997   5.915 -1.2726  1.2733  0.7082
   43MOL   H38327347   7.033   2.761   5.864  0.3504  0.3071  0.7634
   43MOL   H38427348   6.863   2.755   5.915 -0.8153  1.6350 -1.5665
   43MOL   H38527349   6.937   2.677   6.132  0.5196  0.8742  0.6733
   43MOL   C38627350   7.105   2.603   6.062  0.1977  0.4451  0.4708
   43MOL   O38727351   7.198   2.623   5.984  0.7296 -0.1772 -0.0213
   43MOL   C38827352   7.108   2.507   6.173  0.2794  0.0595  0.0219
   43MOL   C38927353   7.232   2.417   6.174  0.3162  0.1637  0.0955
   43MOL   C39027354   7.283   2.373   6.312  0.4762 -1.0370 -0.1212
   43MOL   C39127355   7.378   2.466   6.383 -0.4970  0.7424  0.3798
   43MOL   C39227356   7.340   2.480   6.527  0.2159  0.8452 -0.0476
   43MOL   O39327357   7.272   2.390   6.581  0.2869 -0.0390  0.4261
   43MOL   N39427358   7.407   2.576   6.595  0.1981  0.1714 -0.4124
   43MOL   C39527359   7.363   2.621   6.729 -0.3111 -0.3336  0.2225
   43MOL   C39627360   7.432   2.749   6.780 -0.0456 -0.3275 -0.8272
   43MOL   C39727361   7.577   2.711   6.808  0.9225  0.3746 -0.3069
   43MOL   C39827362   7.668   2.825   6.858  1.2177 -0.0582  0.1238
   43MOL   N39927363   0.101   2.776   6.860 -0.5825  0.1228 -0.2579
   43MOL   H40027364   7.120   2.567   6.263  0.2965 -2.4739  1.7683
   43MOL   H40127365   7.009   2.462   6.174 -0.1476  0.9579 -1.0790
   43MOL   H40227366   7.197   2.334   6.112  0.4507  1.8006 -2.2648
   43MOL   H40327367   7.320   2.447   6.116 -1.1870  1.3397 -1.6358
   43MOL   H40427368   7.341   2.281   6.303  0.0044 -1.3964  0.4934
   43MOL   H40527369   7.200   2.328   6.366  0.2607  0.0893  0.5180
   43MOL   H40627370   7.379   2.562   6.331  1.4932 -0.1840 -1.3778
   43MOL   H40727371   7.477   2.422   6.385 -0.8336 -0.0802 -0.5629
   43MOL   H40827372   7.430   2.650   6.529 -0.0295 -0.5245 -1.2864
   43MOL   H40927373   7.369   2.545   6.807  2.7528  0.8650  1.2203
   43MOL   H41027374   7.258   2.650   6.723 -0.1653  0.2158  0.2655
   43MOL   H41127375   7.415   2.836   6.718 -0.5050 -0.3768 -0.7728
   43MOL   H41227376   7.393   2.781   6.877 -0.1427 -0.6405 -0.7634
   43MOL   H41327377   7.610   2.673   6.711 -0.9308  0.2969 -0.9157
   43MOL   H41427378   7.571   2.634   6.885  1.2225  1.8423  1.2199
   43MOL   H41527379   7.633   2.857   6.956  1.2947  0.3199  0.0288
   43MOL   H41627380   7.653   2.913   6.796 -0.5705  0.3903  1.1453
   43MOL   H41727381   0.121   2.677   6.861  0.7953  0.3888 -0.5297
   43MOL   C41827382   0.210   2.850   6.889  0.5627 -0.4464  0.3956
   43MOL   O41927383   0.193   2.969   6.915 -0.1686  0.0134  0.1571
   43MOL   C42027384   0.346   2.779   6.869 -0.5595  0.2182 -0.7075
   43MOL   C42127385   0.456   2.873   6.838 -0.2720 -0.8241  0.0293
   43MOL   C42227386   0.590   2.800   6.838  1.0553  0.2204 -0.5987
   43MOL   C42327387   0.599   2.686   6.728  0.2993 -0.1271 -0.4318
   43MOL   C42427388   0.689   2.727   6.621  0.0637 -0.1178 -0.3329
   43MOL   O42527389   0.646   2.816   6.546  0.2712  0.0480 -0.0087
   43MOL   N42627390   0.812   2.682   6.624 -0.1038 -0.0955  0.2713
   43MOL   C42727391   0.914   2.735   6.524  0.0386  0.0904  0.1898
   43MOL   C42827392   1.047   2.767   6.592 -0.5838 -0.2390  0.0192
   43MOL   C42927393   1.019   2.874   6.695  0.2423 -0.1642  0.1562
   43MOL   C43027394   1.137   2.945   6.745 -0.0436  0.4667 -0.1131
   43MOL   N43127395   1.098   3.043   6.844  0.3375  0.2614 -0.8509
   43MOL   H43227396   0.362   2.723   6.961  0.1868 -0.9666 -1.5432
   43MOL   H43327397   0.341   2.707   6.788 -0.7615  0.1572 -0.6402
   43MOL   H43427398   0.439   2.911   6.737  2.5915 -1.5530 -0.7917
   43MOL   H43527399   0.457   2.952   6.913  1.4074  0.5254 -1.3783
   43MOL   H43627400   0.611   2.752   6.934 -1.1030  0.2792 -0.0565
   43MOL   H43727401   0.668   2.875   6.832  2.1536 -0.5632  2.8237
   43MOL   H43827402   0.503   2.676   6.678  0.3944  0.1813 -0.6818
   43MOL   H43927403   0.619   2.588   6.771 -1.8627 -1.0394 -1.4145
   43MOL   H44027404   0.840   2.622   6.699 -0.7090  1.7352  2.0041
   43MOL   H44127405   0.880   2.818   6.462 -1.9087 -1.7102 -1.2054
   43MOL   H44227406   0.938   2.657   6.452 -0.5677  0.9295 -0.9425
   43MOL   H44327407   1.089   2.679   6.640 -2.1326 -0.9086  0.1981
   43MOL   H44427408   1.111   2.798   6.510 -1.7176 -0.0274 -0.8022
   43MOL   H44527409   0.967   2.827   6.778  1.7458 -0.3204  1.0356
   43MOL   H44627410   0.956   2.952   6.652  3.1018  2.2002  0.0944
   43MOL   H44727411   1.205   2.988   6.671  1.3749  1.9100  1.9840
   43MOL   H44827412   1.206   2.878   6.796 -0.3737 -0.3663 -0.7580
   43MOL   H44927413   1.083   3.012   6.939 -1.2337  2.3564 -0.3732
   43MOL   C45027414   1.065   3.168   6.822 -0.1649 -0.3728  0.4311
   43MOL   O45127415   1.073   3.224   6.712 -0.0745 -0.4192 -0.2019
   43MOL   C45227416   1.024   3.258   6.941 -0.8121  0.0060  0.1307
   43MOL   C45327417   0.881   3.313   6.934 -0.2860 -0.0740  0.2254
   43MOL   C45427418   0.791   3.246   7.041  0.4359  0.2006 -1.0273
   43MOL   C45527419   0.778   3.092   7.024 -0.0292 -0.2076 -0.3746
   43MOL   C45627420   0.731   3.032   7.155  0.7206  0.2186 -0.0625
   43MOL   O45727421   0.619   3.070   7.195 -0.0085  0.2246 -0.0032
   43MOL   N45827422   0.806   2.940   7.215 -0.1228  0.5594  0.9257
   43MOL   C45927423   0.771   2.888   7.339  0.0181  0.4760 -0.2357
   43MOL   C46027424   0.671   2.765   7.318 -0.5528 -0.0379 -0.5987
   43MOL   C46127425   0.655   2.683   7.449 -0.4405 -0.4662 -0.4190
   43MOL   C46227426   0.763   2.570   7.447 -0.1386 -0.3097  0.1320
   43MOL   N46327427   0.893   2.621   7.456 -0.2218 -0.1193  0.3969
   43MOL   H46427428   1.048   3.199   7.029  1.2436  0.4276 -0.1297
   43MOL   H46527429   1.092   3.343   6.950 -1.4633  0.6272 -0.7172
   43MOL   H46627430   0.881   3.422   6.942  1.2475  0.0563 -1.3355
   43MOL   H46727431   0.836   3.283   6.839  0.0179 -0.1631  0.1102
   43MOL   H46827432   0.696   3.294   7.065 -0.0804 -0.8335 -0.9853
   43MOL   H46927433   0.845   3.267   7.133  0.4011 -2.2833 -0.4072
   43MOL   H47027434   0.875   3.059   6.985  0.2591  0.5259 -0.3006
   43MOL   H47127435   0.706   3.084   6.943  1.0406  0.1548 -1.3889
   43MOL   H47227436   0.901   2.923   7.182 -0.3999  2.3015 -0.8473
   43MOL   H47327437   0.738   2.962   7.412  0.4656  0.0192  0.4379
   43MOL   H47427438   0.869   2.849   7.370  0.6525  1.5558 -0.8657
   43MOL   H47527439   0.572   2.794   7.284  0.3430  1.2933 -2.1703
   43MOL   H47627440   0.709   2.713   7.230  0.3347  1.0017 -0.8478
   43MOL   H47727441   0.558   2.635   7.465  1.0819 -4.0563 -1.5594
   43MOL   H47827442   0.671   2.748   7.534  0.6880 -0.2435 -0.7995
   43MOL   H47927443   0.745   2.491   7.374 -2.3280 -0.5110  0.8609
   43MOL   H48027444   0.741   2.510   7.534  1.9925 -0.7368  0.4020
   43MOL   H48127445   0.926   2.671   7.537 -1.3624 -0.3934  1.0373
   43MOL   C48227446   1.006   2.600   7.375  0.8568  0.1647 -0.1416
   43MOL   O48327447   0.998   2.550   7.264  0.5774  0.0608  0.2096
   43MOL   C48427448   1.137   2.654   7.428  0.0916  0.7593 -0.2649
   43MOL   C48527449   1.260   2.597   7.350 -0.5293 -0.5605  0.2139
   43MOL   C48627450   1.296   2.451   7.381 -0.1995 -0.1970 -0.8697
   43MOL   C48727451   1.426   2.425   7.301  0.3066  0.0679 -0.5442
   43MOL   C48827452   1.551   2.468   7.375  0.4174  0.3701  0.0575
   43MOL   O48927453   1.551   2.553   7.468 -0.1547  0.0098  0.5733
   43MOL   N49027454   1.665   2.413   7.324 -0.3202  0.0860  0.5123
   43MOL   C49127455   1.800   2.468   7.341  0.0730 -0.0670  0.2813
   43MOL   C49227456   1.839   2.568   7.232  0.1390  0.3439  0.4756
   43MOL   C49327457   1.970   2.645   7.259 -0.2954 -0.4164  0.2134
   43MOL   C49427458   1.951   2.771   7.348  0.0750  0.1806 -0.2268
   43MOL   N49527459   2.079   2.839   7.346 -0.3818 -0.6963  0.4801
   43MOL   H49627460   1.138   2.763   7.424 -0.0279  0.7933  0.5159
   43MOL   H49727461   1.134   2.620   7.531 -1.7523  0.7313 -0.3174
   43MOL   H49827462   1.232   2.610   7.246 -1.3905 -0.1998  0.4831
   43MOL   H49927463   1.340   2.671   7.356  1.0075 -2.2646  0.9468
   43MOL   H50027464   1.218   2.387   7.340 -0.8686 -0.5542  0.9282
   43MOL   H50127465   1.308   2.434   7.487  1.2426  0.8744 -0.8508
   43MOL   H50227466   1.427   2.461   7.198  0.5942  0.2472 -0.4776
   43MOL   H50327467   1.442   2.317   7.302 -2.2704 -0.3792 -1.8836
   43MOL   H50427468   1.643   2.354   7.245 -1.5600  0.9014  0.2283
   43MOL   H50527469   1.865   2.380   7.350  0.0999 -0.1041 -0.2378
   43MOL   H50627470   1.802   2.518   7.437 -0.3058 -0.0596  0.2827
   43MOL   H50727471   1.853   2.523   7.134 -1.1214 -0.2307  0.5563
   43MOL   H50827472   1.757   2.638   7.215  0.7965  0.8467 -0.7021
   43MOL   H50927473   1.999   2.676   7.159  0.4944  0.3335  0.6640
   43MOL   H51027474   2.055   2.581   7.284 -0.4230 -0.3418  0.8654
   43MOL   H51127475   1.917   2.738   7.446  2.0591 -0.0135  0.4138
   43MOL   H51227476   1.875   2.836   7.305 -1.4616 -0.1370  1.9633
   43MOL   H51327477   2.115   2.887   7.264 -3.8065 -1.9166 -1.8429
   43MOL   C51427478   2.147   2.860   7.459 -0.2068  0.3377 -0.8951
   43MOL   O51527479   2.126   2.807   7.568  0.2701 -0.0176 -0.1397
   43MOL   C51627480   2.272   2.945   7.445  0.4585 -0.3716 -0.4041
   43MOL   C51727481   2.342   2.979   7.577 -0.5776 -0.6164  0.6175
   43MOL   C51827482   2.476   3.038   7.549  0.2100 -0.4568  0.1648
   43MOL   C51927483   2.559   3.060   7.679 -0.0419  0.3748 -0.1110
   43MOL   C52027484   2.704   3.050   7.655 -0.0867 -0.3448 -0.0262
   43MOL   O52127485   2.756   2.949   7.599 -0.0359  0.0807  0.2737
   43MOL   N52227486   2.774   3.159   7.688 -0.6755  0.0160 -0.0085
   43MOL   C52327487   2.916   3.174   0.005  1.1063 -0.2450 -0.0143
   43MOL   C52427488   2.968   3.252   7.580  0.4364 -0.8960 -0.8280
   43MOL   C52527489   3.122   3.250   7.556  0.0513  0.4365 -0.3560
   43MOL   C52627490   3.164   3.312   7.427 -0.0229  0.3352  0.2395
   43MOL   N52727491   3.157   3.452   7.441 -0.2219  0.2534 -0.2532
   43MOL   H52827492   2.343   2.885   7.389  2.6431  0.5047  1.3404
   43MOL   H52927493   2.247   3.031   7.382 -1.2581 -1.5851 -1.4454
   43MOL   H53027494   2.293   3.052   7.642 -2.1157 -1.5388  0.5369
   43MOL   H53127495   2.360   2.892   7.639 -0.3066 -0.4422  0.7806
   43MOL   H53227496   2.468   3.137   7.503  1.1765  0.1052  1.1794
   43MOL   H53327497   2.532   2.973   7.482 -0.2467 -0.4096 -0.2688
   43MOL   H53427498   2.519   2.983   0.044  0.5903 -0.9324 -1.2232
   43MOL   H53527499   2.539   3.157   0.022  3.0787  0.8600  0.3539
   43MOL   H53627500   2.727   3.246   0.006 -1.2540  0.0800 -1.6028
   43MOL   H53727501   2.965   3.078   0.021  0.7046 -0.2449  1.3175
   43MOL   H53827502   2.922   3.233   0.097 -0.4160  0.6111 -0.4559
   43MOL   H53927503   2.929   3.193   7.498 -0.2972 -1.9672  0.2684
   43MOL   H54027504   2.937   3.357   7.583 -0.2755 -1.1477  2.7552
   43MOL   H54127505   3.146   3.144   7.554 -2.0385 -0.1445  2.1072
   43MOL   H54227506   3.176   3.295   7.639 -1.6514  1.7929  0.0569
   43MOL   H54327507   3.104   3.268   7.347  0.4689 -0.1570  0.1440
   43MOL   H54427508   3.266   3.295   7.394 -0.3051  1.4365 -1.3012
   43MOL   H54527509   3.217   3.494   7.510  1.1876 -0.3949 -1.0582
   43MOL   C54627510   3.094   3.531   7.355 -0.1092 -0.4083  0.1988
   43MOL   O54727511   3.049   3.487   7.250  0.2286  0.1820  0.1453
   43MOL   C54827512   3.091   3.684   7.393 -0.0668 -0.0534 -0.0563
   43MOL   C54927513   3.000   3.760   7.293  0.2758 -0.3242  0.2893
   43MOL   C55027514   3.005   3.909   7.332 -0.0419  0.3708  0.4764
   43MOL   C55127515   2.902   4.000   7.259 -0.4887 -0.3629 -0.3275
   43MOL   C55227516   2.907   3.992   7.104  0.2957 -0.3431  0.5259
   43MOL   O55327517   3.012   4.011   7.046 -0.2387  0.2668  0.2429
   43MOL   N55427518   2.798   3.955   7.041  0.1680 -0.1911  0.3644
   43MOL   C55527519   2.797   3.915   6.899  0.4359 -0.2325 -0.1666
   43MOL   C55627520   2.689   3.803   6.872 -0.7452 -0.3173 -0.1225
   43MOL   C55727521   2.682   3.699   6.983 -0.2781 -0.2302  0.7587
   43MOL   C55827522   2.584   3.586   6.948 -0.1072 -0.4376  0.0645
   43MOL   N55927523   2.620   3.522   6.823  0.2191  0.1061 -0.1424
   43MOL   H56027524   3.043   3.687   7.491  3.0767 -0.2516  1.5307
   43MOL   H56127525   3.187   3.734   7.401 -1.4187  2.5390  0.2053
   43MOL   H56227526   3.042   3.752   7.192  2.3365 -0.0073  1.0982
   43MOL   H56327527   2.896   3.731   7.278 -0.0322  0.4471  0.9146
   43MOL   H56427528   3.103   3.951   7.310  0.7346 -1.5056  0.3228
   43MOL   H56527529   2.979   3.922   7.437  1.1095  3.7958  0.4006
   43MOL   H56627530   2.932   4.103   7.279  3.1942 -1.0242 -1.8968
   43MOL   H56727531   2.802   3.971   7.289  0.0769 -2.1191 -0.0709
   43MOL   H56827532   2.711   3.938   7.090 -0.4107  0.1473 -0.5291
   43MOL   H56927533   2.899   3.882   6.878  0.6110 -0.3712  0.9237
   43MOL   H57027534   2.775   4.007   6.844 -0.7657 -0.0228  0.6616
   43MOL   H57127535   2.593   3.846   6.847  0.8462  2.2266 -2.1057
   43MOL   H57227536   2.713   3.758   6.775 -1.7793  2.2512 -1.6056
   43MOL   H57327537   2.650   3.756   7.070  2.0433 -0.4939  1.8237
   43MOL   H57427538   2.782   3.657   6.990  0.4650  0.9369 -1.9234
   43MOL   H57527539   2.479   3.615   6.950  0.3494  1.2588  0.3694
   43MOL   H57627540   2.592   3.521   7.035  0.1260  0.6836  0.9000
   43MOL   H57727541   2.605   3.583   6.744 -0.4952 -0.1925 -0.2420
   43MOL   C57827542   2.668   3.399   6.813 -0.3301  0.4214  0.4924
   43MOL   O57927543   2.679   3.322   6.903  0.0873 -0.2584 -0.4473
   43MOL   C58027544   2.717   3.353   6.668  0.4977 -0.0818 -0.1723
   43MOL   C58127545   2.677   3.209   6.617 -0.2813 -0.0002 -0.4421
   43MOL   C58227546   2.533   3.192   6.594 -0.1363  0.5222 -0.0404
   43MOL   C58327547   2.494   3.054   6.546  0.0657 -0.0481 -0.0181
   43MOL   C58427548   2.522   3.033   6.394 -0.1780  0.1965  0.1392
   43MOL   O58527549   2.496   3.126   6.312  0.4940  0.0139 -0.2677
   43MOL   N58627550   2.554   2.911   6.352 -0.2081 -0.0488  0.1385
   43MOL   C58727551   2.563   2.866   6.214 -0.0492 -0.4587  0.3405
   43MOL   C58827552   2.708   2.844   6.163 -0.5887  0.1279  0.3177
   43MOL   C58927553   2.761   2.988   6.131 -0.0137 -0.0144  1.0175
   43MOL   C59027554   2.917   2.997   6.085 -0.5379 -0.1496 -0.4918
   43MOL   N59127555   2.986   2.872   6.081 -0.1283 -0.1386 -0.0406
   43MOL   H59227556   2.680   3.429   6.599  2.1590 -0.4282 -1.4580
   43MOL   H59327557   2.825   3.365   6.673  0.8204 -2.5855 -0.6435
   43MOL   H59427558   2.726   3.200   6.520 -2.0644 -1.6562 -1.2410
   43MOL   H59527559   2.709   3.128   6.683 -0.9778 -1.1989 -1.5544
   43MOL   H59627560   2.505   3.275   6.529  0.2066  1.5854  1.1492
   43MOL   H59727561   2.475   3.214   6.683  0.1272 -0.7496  0.4509
   43MOL   H59827562   2.386   3.039   6.549  0.0168  0.6472  2.1856
   43MOL   H59927563   2.560   2.981   6.593  2.5549  1.2968 -1.3088
   43MOL   H60027564   2.563   2.840   6.424  1.0353  1.2713  1.3329
   43MOL   H60127565   2.491   2.922   6.154  2.3881  1.6170 -0.7530
   43MOL   H60227566   2.524   2.764   6.210  1.5173 -1.0795  0.5434
   43MOL   H60327567   2.765   2.791   6.239 -1.7717 -0.1074  1.0433
   43MOL   H60427568   2.707   2.791   6.068 -1.0596  0.2596  0.2472
   43MOL   H60527569   2.740   3.049   6.219 -0.4340  0.9898  0.2293
   43MOL   H60627570   2.703   3.029   6.048  0.2738 -1.2727  0.1604
   43MOL   H60727571   2.966   3.083   6.130 -2.0445  0.5287 -0.1074
   43MOL   H60827572   2.913   3.032   5.982  0.2034  0.5307 -0.2945
   43MOL   H60927573   2.999   2.845   5.984 -1.1745  1.0007 -0.5069
   43MOL   C61027574   3.054   2.815   6.186 -0.3120 -0.0209  0.7628
   43MOL   O61127575   3.039   2.849   6.301  0.1886  0.6128  0.4250
   43MOL   C61227576   3.146   2.700   6.147  0.3016  0.1280  0.5594
   43MOL   C61327577   3.091   2.591   6.046  0.2321  0.3609 -0.7079
   43MOL   C61427578   3.047   2.453   6.116  0.2656  0.6549 -0.7441
   43MOL   C61527579   3.002   2.344   6.013  0.4464 -0.4274  0.0789
   43MOL   C61627580   2.864   2.355   5.955 -0.4069  0.1338 -0.1724
   43MOL   O61727581   2.794   2.446   5.993 -0.5435 -0.2474 -0.1396
   43MOL   N61827582   2.823   2.262   5.869  0.5388  0.2513 -0.0976
   43MOL   C61927583   2.685   2.252   5.816 -0.2309 -0.0592  0.6957
   43MOL   C62027584   2.594   2.182   5.914  0.7662 -0.0292 -0.9700
   43MOL   C62127585   2.454   2.153   5.849 -0.4941  0.1107  0.3313
   43MOL   C62227586   2.363   2.070   5.935 -0.1502  0.2322  0.2448
   43MOL   N62327587   2.232   2.038   5.875 -0.7442 -0.5765 -0.1920
   43MOL   H62427588   3.229   2.750   6.096  0.7860 -0.1606  1.0587
   43MOL   H62527589   3.190   2.648   6.232  0.9979  1.8825  1.2780
   43MOL   H62627590   3.014   2.631   5.980  1.4152  0.6875 -1.9369
   43MOL   H62727591   3.166   2.567   5.970  1.4784  1.6448  0.0757
   43MOL   H62827592   2.971   2.465   6.193 -1.5837 -0.0562 -2.4235
   43MOL   H62927593   3.127   2.404   6.172  1.7609  1.0427 -2.5101
   43MOL   H63027594   3.014   2.250   6.065 -0.2018  0.2998  1.5571
   43MOL   H63127595   3.065   2.343   5.924 -0.7212 -0.3813 -0.7579
   43MOL   H63227596   2.898   2.210   5.825  1.7917  3.1112 -1.4756
   43MOL   H63327597   2.688   2.207   5.718 -2.0577  2.0390 -0.3790
   43MOL   H63427598   2.648   2.353   5.795 -1.5670 -0.6806 -0.0379
   43MOL   H63527599   2.626   2.085   5.952 -1.4110 -0.1763  0.5978
   43MOL   H63627600   2.577   2.238   6.006  1.3298 -0.1843 -0.7706
   43MOL   H63727601   2.476   2.086   5.765  1.0505  0.0751  0.7428
   43MOL   H63827602   2.405   2.241   5.807  1.6322  0.1937 -2.1575
   43MOL   H63927603   2.359   2.119   6.032  0.4088 -0.2075  0.4886
   43MOL   H64027604   2.405   1.970   5.945  0.6572  0.5484  0.0356
   43MOL   H64127605   2.181   2.125   5.882 -2.5199 -1.6798  0.8499
   43MOL   H64227606   2.188   1.974   5.940 -0.3178 -2.4056 -1.6620
   44MOL     C127607   0.832   4.824   2.746 -0.3204  0.1909 -0.3270
   44MOL     O227608   0.739   4.745   2.757 -0.1959 -0.2303  0.2190
   44MOL     C327609   0.937   4.811   2.638 -1.0524 -0.2121 -0.2528
   44MOL     C427610   0.888   4.729   2.513 -0.4841 -0.5323  0.8982
   44MOL     C527611   0.799   4.811   2.419 -0.0964 -0.0492  0.3701
   44MOL     C627612   0.777   4.736   2.295 -0.0997  0.0507 -0.1002
   44MOL     C727613   0.666   4.785   2.202 -0.7413 -0.3779 -0.3766
   44MOL     O827614   0.579   4.864   2.241 -0.5325 -0.5484  0.3585
   44MOL     N927615   0.659   4.728   2.080  0.1483  0.6071  0.8727
   44MOL    C1027616   0.565   4.775   1.974  0.1460  0.0379 -0.3146
   44MOL    C1127617   0.614   4.909   1.910 -0.4036 -0.4870  0.2087
   44MOL    C1227618   0.536   4.940   1.791  0.5812  0.2630 -0.4375
   44MOL    C1327619   0.594   5.043   1.696  0.3206  0.0457 -0.8967
   44MOL    N1427620   0.587   5.183   1.745 -0.5232  0.3636 -0.4610
   44MOL    H1527621   0.971   4.903   2.591  1.5597 -0.7727  0.4906
   44MOL    H1627622   1.031   4.775   2.679 -1.1931  1.5826  1.6954
   44MOL    H1727623   0.978   4.701   2.459 -0.6295  0.6893  0.0061
   44MOL    H1827624   0.835   4.643   2.554 -2.6830  0.2055 -0.2748
   44MOL    H1927625   0.843   4.907   2.391 -3.5411  1.3495 -0.4744
   44MOL    H2027626   0.706   4.828   2.473  0.6494 -0.2969  1.7686
   44MOL    H2127627   0.733   4.641   2.326  1.0758 -0.3099  0.4936
   44MOL    H2227628   0.870   4.720   2.240  0.6217  0.6815  0.9321
   44MOL    H2327629   0.720   4.649   2.062  0.0473  0.5865  0.6164
   44MOL    H2427630   0.471   4.785   2.028  1.3339 -0.2123  1.8740
   44MOL    H2527631   0.559   4.704   1.892  0.6829  1.8270 -1.9266
   44MOL    H2627632   0.599   4.990   1.981 -1.0117 -0.4527  0.0449
   44MOL    H2727633   0.720   4.887   1.895 -0.6441 -2.0274  0.6030
   44MOL    H2827634   0.437   4.980   1.809  1.1993  1.7399 -0.2456
   44MOL    H2927635   0.529   4.853   1.725 -1.1091 -0.2517  0.3958
   44MOL    H3027636   0.526   5.048   1.611 -0.2022 -2.2629 -0.6386
   44MOL    H3127637   0.694   5.016   1.659 -0.0763  0.4492 -2.3124
   44MOL    H3227638   0.498   5.222   1.771 -0.6999  0.0093 -0.5307
   44MOL    H3327639   0.847   4.915   2.804 -2.0201  0.8618 -0.9192
   44MOL    C3427640   0.690   5.268   1.750  0.3389  0.0467 -0.3023
   44MOL    O3527641   0.801   5.236   1.714  0.6290  0.0366 -0.2444
   44MOL    C3627642   0.661   5.405   1.820  0.5313 -0.3366 -0.0635
   44MOL    C3727643   0.755   5.508   1.760  0.4719  0.1686  0.5462
   44MOL    C3827644   0.687   5.575   1.633 -0.2628  0.2253 -0.0788
   44MOL    C3927645   0.762   5.698   1.582  0.1715  0.1449  0.0901
   44MOL    C4027646   0.759   5.811   1.685 -0.2720 -0.3309  0.1146
   44MOL    O4127647   0.645   5.859   1.711  0.7228 -0.4484 -0.6943
   44MOL    N4227648   0.868   5.869   1.735 -0.0192  1.1664 -0.1352
   44MOL    C4327649   0.869   5.986   1.815  0.9930 -0.3050 -0.0187
   44MOL    C4427650   0.926   5.945   1.952  0.0305  0.1274  0.0568
   44MOL    C4527651   0.955   6.068   2.034 -0.7933  0.0878  0.0933
   44MOL    C4627652   1.014   6.027   2.167  0.4809 -0.1945  0.6151
   44MOL    N4727653   1.059   6.146   2.237  0.0053  0.2919 -0.2010
   44MOL    H4827654   0.554   5.416   1.808  0.1121 -2.5210  1.3312
   44MOL    H4927655   0.681   5.390   1.926  1.2622 -0.0055 -0.1513
   44MOL    H5027656   0.759   5.590   1.832 -0.8739  0.6722  0.0609
   44MOL    H5127657   0.857   5.482   1.734 -0.2824 -1.1884 -1.1634
   44MOL    H5227658   0.592   5.618   1.666 -0.4123 -0.2829  0.1563
   44MOL    H5327659   0.678   5.510   1.547 -3.1208  1.8372 -1.0758
   44MOL    H5427660   0.733   5.740   1.486 -0.1155 -2.2932 -0.9418
   44MOL    H5527661   0.863   5.669   1.554 -0.8131 -3.5319  0.0800
   44MOL    H5627662   0.961   5.840   1.707 -0.5479  1.1922 -1.9677
   44MOL    H5727663   0.767   6.022   1.824  1.4340  1.4225 -1.6243
   44MOL    H5827664   0.927   6.063   1.763  1.4609 -1.0990 -0.6881
   44MOL    H5927665   0.845   5.885   1.993 -0.3636  1.1161  0.7599
   44MOL    H6027666   1.019   5.890   1.940  1.0085  1.0893  2.7464
   44MOL    H6127667   0.867   6.132   2.049 -0.0347  1.1667  0.0269
   44MOL    H6227668   1.029   6.126   1.980 -2.7787  0.1701 -2.6232
   44MOL    H6327669   1.088   5.948   2.154 -0.1994 -0.6923 -0.2918
   44MOL    H6427670   0.931   5.996   2.230 -3.1464  0.1990 -3.7361
   44MOL    H6527671   0.991   6.207   2.281  1.6850  2.5526 -0.6298
   44MOL    C6627672   1.187   6.181   2.251 -0.2408  0.0320  0.2841
   44MOL    O6727673   1.283   6.116   2.209  0.2008 -0.0361 -0.1170
   44MOL    C6827674   1.216   6.309   2.325  0.3983  0.2189 -0.2908
   44MOL    C6927675   1.230   6.304   2.474 -0.4200 -0.2826  0.0465
   44MOL    C7027676   1.362   6.240   2.531  0.7648  0.4228 -0.0917
   44MOL    C7127677   1.369   6.230   2.683  0.1967  0.3255  0.6438
   44MOL    C7227678   1.504   6.194   2.739  0.6553  0.1319 -0.3111
   44MOL    O7327679   1.592   6.280   2.727 -0.2921 -0.0144  0.4489
   44MOL    N7427680   1.518   6.082   2.818 -0.2398  0.4477 -0.3508
   44MOL    C7527681   1.645   6.047   2.892 -0.7022  0.2139 -0.1361
   44MOL    C7627682   1.743   5.956   2.817  0.8225  0.2298  0.0370
   44MOL    C7727683   1.855   5.896   2.902 -0.6635  0.0613  0.0786
   44MOL    C7827684   1.818   5.765   2.970 -0.4552  0.4388 -0.3807
   44MOL    N7927685   1.928   5.698   3.038 -0.2875 -0.5187 -0.2314
   44MOL    H8027686   1.310   6.344   2.282  0.3200  1.9004  0.8596
   44MOL    H8127687   1.136   6.380   2.304 -0.8842 -0.5726  1.7307
   44MOL    H8227688   1.218   6.406   2.512  2.6211  0.0573  0.2448
   44MOL    H8327689   1.155   6.243   2.523 -1.2507  0.6025 -0.1165
   44MOL    H8427690   1.442   6.303   2.493  0.4284  0.3735 -0.8916
   44MOL    H8527691   1.371   6.138   2.494  0.3912  0.0269  0.9035
   44MOL    H8627692   1.293   6.159   2.717  1.3892 -1.8442 -1.0376
   44MOL    H8727693   1.343   6.323   2.734 -0.7509  0.9960 -1.0344
   44MOL    H8827694   1.445   6.014   2.832  0.0751 -0.0164 -0.9528
   44MOL    H8927695   1.625   5.986   2.979  1.8754  0.9156  0.9720
   44MOL    H9027696   1.695   6.137   2.927 -2.1832  1.7762 -1.8355
   44MOL    H9127697   1.690   5.881   2.758 -0.1509 -0.3887  1.6744
   44MOL    H9227698   1.789   6.014   2.737  0.2797 -0.1351 -0.5467
   44MOL    H9327699   1.892   5.971   2.973 -0.4776  0.7290 -0.7199
   44MOL    H9427700   1.945   5.887   2.841 -0.4176 -0.3789  0.5049
   44MOL    H9527701   1.766   5.698   2.901 -0.5514 -0.8941  0.9690
   44MOL    H9627702   1.744   5.781   3.048  0.7106  2.4770  0.3339
   44MOL    H9727703   2.015   5.746   3.058 -0.2133 -0.9120  0.4173
   44MOL    C9827704   1.921   5.575   3.086 -0.8626  0.0861 -0.4130
   44MOL    O9927705   1.824   5.504   3.078  0.0957  0.1275 -0.3470
   44MOL   C10027706   2.052   5.522   3.148 -0.0476 -0.1636  0.5245
   44MOL   C10127707   2.044   5.512   3.297  0.3886  0.5712 -0.4465
   44MOL   C10227708   2.141   5.608   3.381  0.2086 -0.2065 -0.4190
   44MOL   C10327709   2.113   5.596   3.538  0.4842 -0.4517  0.0589
   44MOL   C10427710   2.188   5.482   3.603  0.1078 -0.1761 -0.2912
   44MOL   O10527711   2.305   5.508   3.629 -0.0450  0.0247  0.3696
   44MOL   N10627712   2.132   5.365   3.631  0.0713  0.6460 -0.6680
   44MOL   C10727713   2.205   5.255   3.687 -0.7233 -0.1844 -0.1370
   44MOL   C10827714   2.118   5.131   3.707 -0.6443  0.5780  0.2231
   44MOL   C10927715   2.183   5.013   3.776 -0.1867 -0.3899 -0.2599
   44MOL   C11027716   2.140   4.880   3.709  0.9453  0.2682  0.0286
   44MOL   N11127717   2.181   4.764   3.786  0.3835 -0.0691  0.3069
   44MOL   H11227718   2.073   5.426   3.101  0.3177  0.8509 -1.4322
   44MOL   H11327719   2.130   5.594   3.124  1.4192 -1.5359  1.0950
   44MOL   H11427720   1.946   5.541   3.336  1.2781  1.9001  0.8692
   44MOL   H11527721   2.081   5.414   3.327 -0.0702  1.3409  2.8632
   44MOL   H11627722   2.111   5.703   3.338 -1.5402 -1.0321 -1.0683
   44MOL   H11727723   2.248   5.588   3.367  0.1351 -3.9364  3.3745
   44MOL   H11827724   2.005   5.601   3.556  0.4514 -3.2754  0.8990
   44MOL   H11927725   2.154   5.690   3.574  0.7959 -0.5942  0.0779
   44MOL   H12027726   2.044   5.332   3.594  0.1399 -0.4871  0.1461
   44MOL   H12127727   2.239   5.301   3.780 -0.6662 -1.3030  0.4107
   44MOL   H12227728   2.291   5.228   3.626  1.4313  0.6214  2.4090
   44MOL   H12327729   2.033   5.152   3.772  0.4127  0.3385  1.7162
   44MOL   H12427730   2.087   5.103   3.606 -1.9713  1.9487  0.2331
   44MOL   H12527731   2.157   5.018   3.882 -0.0320 -0.7079 -0.2058
   44MOL   H12627732   2.291   5.001   3.768 -0.3587 -3.5011  1.5035
   44MOL   H12727733   2.170   4.878   3.604 -0.1334  1.1919 -0.3058
   44MOL   H12827734   2.031   4.878   3.698  1.0621  1.2348 -1.4686
   44MOL   H12927735   2.166   4.757   3.885 -1.8205  2.1994  0.1604
   44MOL   C13027736   2.233   4.659   3.724 -0.3310 -0.1055  0.4019
   44MOL   O13127737   2.280   4.660   3.611 -0.2307  0.4015  0.2645
   44MOL   C13227738   2.230   4.527   3.799 -0.7932 -0.5619  0.5623
   44MOL   C13327739   2.369   4.482   3.839  0.2620 -0.3691 -0.2335
   44MOL   C13427740   2.431   4.553   3.967 -0.3473  0.1180  0.6672
   44MOL   C13527741   2.581   4.523   3.990  0.0150  0.7750  0.2539
   44MOL   C13627742   2.679   4.605   3.902  0.2544  0.9721 -0.5251
   44MOL   O13727743   2.696   4.725   3.925  0.2873  0.5820  0.0536
   44MOL   N13827744   2.727   4.543   3.794 -0.2090  0.9264  0.2451
   44MOL   C13927745   2.824   4.605   3.701 -0.5752 -0.1458  0.2606
   44MOL   C14027746   2.816   4.527   3.565  0.2130 -0.3771 -0.8048
   44MOL   C14127747   2.942   4.548   3.489 -0.2366 -0.2003 -0.2206
   44MOL   C14227748   2.959   4.465   3.362 -1.1341 -0.3253  0.3044
   44MOL   N14327749   3.092   4.494   3.309 -0.1792 -0.3181 -0.1367
   44MOL   H14427750   2.163   4.527   3.884 -0.0106  0.6187  1.1898
   44MOL   H14527751   2.186   4.459   3.725 -0.9030 -1.1980  1.2107
   44MOL   H14627752   2.346   4.378   3.862 -0.7146  0.1477  1.1916
   44MOL   H14727753   2.443   4.477   3.759  0.0006 -2.3952 -0.3644
   44MOL   H14827754   2.375   4.538   4.059  0.9926 -3.1043  1.0031
   44MOL   H14927755   2.435   4.661   3.954  0.0927  0.0960  0.6151
   44MOL   H15027756   2.605   4.417   3.987 -0.4108  0.6943 -0.3832
   44MOL   H15127757   2.612   4.548   4.091  3.5822 -0.1998 -0.5526
   44MOL   H15227758   2.691   4.450   3.776 -0.4822  1.3102 -1.2564
   44MOL   H15327759   2.920   4.593   3.752 -0.9229 -0.9923  0.7116
   44MOL   H15427760   2.810   4.712   3.686 -2.5595 -0.1100  2.1044
   44MOL   H15527761   2.790   4.425   3.593 -0.3040  0.5250  2.2728
   44MOL   H15627762   2.737   4.559   3.497 -0.2129 -0.4969 -0.3661
   44MOL   H15727763   3.021   4.526   3.562  1.5067 -0.4825 -2.1460
   44MOL   H15827764   2.956   4.652   3.458 -1.8282  0.3334  0.7772
   44MOL   H15927765   2.872   4.490   3.302 -0.4619 -1.3095 -1.1157
   44MOL   H16027766   2.954   4.356   3.367  0.9433 -0.6957 -3.6759
   44MOL   H16127767   3.153   4.545   3.371 -0.2549 -0.9876  0.5032
   44MOL   C16227768   3.134   4.439   3.198 -0.3249  0.0695 -0.1069
   44MOL   O16327769   3.076   4.350   3.146 -0.3566  0.5125 -0.1422
   44MOL   C16427770   3.266   4.490   3.145 -0.9392 -0.0764 -0.2059
   44MOL   C16527771   3.250   4.566   3.009 -0.8422  1.1969 -1.0938
   44MOL   C16627772   3.178   4.699   3.033  0.0247 -0.8507  0.1404
   44MOL   C16727773   3.172   4.791   2.900 -0.2434  0.2560  0.2343
   44MOL   C16827774   3.127   4.932   2.935 -0.2171  0.4640 -0.3821
   44MOL   O16927775   3.023   4.942   3.005  0.0348  0.0968 -0.2828
   44MOL   N17027776   3.197   5.035   2.895  0.6709  0.3811  0.1160
   44MOL   C17127777   3.204   5.168   2.962  0.6175  0.2458 -0.4553
   44MOL   C17227778   3.320   5.164   3.070 -0.7681 -1.1080 -0.0963
   44MOL   C17327779   3.299   5.265   3.180  0.2365 -0.5343  0.6069
   44MOL   C17427780   3.419   5.284   3.274  0.3868  0.0027 -0.2502
   44MOL   N17527781   3.389   5.369   3.388 -0.8695  1.3133 -1.4189
   44MOL   H17627782   3.324   4.543   3.222  1.5887 -0.7086 -1.6080
   44MOL   H17727783   3.323   4.401   3.119 -1.4607  0.2542 -2.5474
   44MOL   H17827784   3.352   4.591   2.978  0.0167  1.1189  1.4852
   44MOL   H17927785   3.206   4.520   2.921  0.0424  0.2137 -1.0248
   44MOL   H18027786   3.244   4.746   3.107  0.7441 -3.2278  1.0673
   44MOL   H18127787   3.081   4.680   3.079 -0.7327  0.4723 -0.8821
   44MOL   H18227788   3.109   4.752   2.821 -0.5303  2.0965 -0.4591
   44MOL   H18327789   3.272   4.791   2.857 -0.6148  1.6593 -0.6361
   44MOL   H18427790   3.273   5.018   2.832  0.7980 -0.5898  0.5182
   44MOL   H18527791   3.113   5.186   3.019  0.2775 -1.8367 -0.2959
   44MOL   H18627792   3.217   5.249   2.891 -1.7182  0.1761 -0.9868
   44MOL   H18727793   3.324   5.061   3.107 -0.3922 -0.6284  1.2313
   44MOL   H18827794   3.416   5.186   3.023 -1.1846  2.2837  0.5517
   44MOL   H18927795   3.202   5.247   3.225 -0.6158 -1.8301 -1.6711
   44MOL   H19027796   3.272   5.359   3.131  0.7987 -0.4479  0.4481
   44MOL   H19127797   3.502   5.333   3.223  0.5536 -0.8982 -0.8725
   44MOL   H19227798   3.449   5.186   3.312 -1.3837 -1.4554 -2.4757
   44MOL   H19327799   3.410   5.467   3.393  2.0671  0.6568  1.3594
   44MOL   C19427800   3.336   5.323   3.501  1.0492 -0.0962  0.0525
   44MOL   O19527801   3.314   5.202   3.528 -0.6133 -0.1056  0.1177
   44MOL   C19627802   3.289   5.428   3.597 -0.0894 -0.3868  0.3604
   44MOL   C19727803   3.149   5.476   3.560  0.3597 -0.9107 -0.1051
   44MOL   C19827804   3.030   5.382   3.546 -0.0017  0.1152 -0.0559
   44MOL   C19927805   2.983   5.295   3.667  0.4778  0.7768 -0.1481
   44MOL   C20027806   2.954   5.372   3.801 -0.3581  0.4369  0.1983
   44MOL   O20127807   2.873   5.463   3.803 -0.3973  0.0962 -0.0309
   44MOL   N20227808   3.023   5.325   3.905  0.3723 -0.6117 -0.2400
   44MOL   C20327809   3.014   5.368   4.043  0.7287 -0.3540  0.2975
   44MOL   C20427810   3.155   5.400   4.096 -0.4078 -0.6114  0.0963
   44MOL   C20527811   3.172   5.431   4.241  0.3668 -0.1147  0.0474
   44MOL   C20627812   3.314   5.457   4.284 -0.3513  0.1807 -0.2100
   44MOL   N20727813   3.321   5.484   4.427  0.2037  0.0050  0.2063
   44MOL   H20827814   3.307   5.391   3.698 -0.4476 -0.9951  0.2047
   44MOL   H20927815   3.362   5.509   3.585  0.0989 -0.5708  0.2650
   44MOL   H21027816   3.122   5.562   3.622  2.4443  0.7656 -1.4925
   44MOL   H21127817   3.174   5.522   3.465  3.0808 -1.4309  0.3081
   44MOL   H21227818   3.061   5.309   3.471 -0.1433 -0.5628  0.5490
   44MOL   H21327819   2.942   5.426   3.499 -0.4200 -1.3574 -0.6657
   44MOL   H21427820   3.052   5.213   3.688 -0.6607 -0.5093 -1.3822
   44MOL   H21527821   2.899   5.234   3.634  2.6822 -2.0015 -0.7312
   44MOL   H21627822   3.087   5.253   3.873  1.2822  0.7558 -1.5628
   44MOL   H21727823   2.967   5.284   4.094  1.2894 -0.6201  0.3771
   44MOL   H21827824   2.952   5.456   4.063 -2.2650 -1.6247 -3.0031
   44MOL   H21927825   3.225   5.320   4.072  1.9071  1.6203 -0.7899
   44MOL   H22027826   3.186   5.484   4.034  0.9715 -1.6822 -0.6975
   44MOL   H22127827   3.136   5.347   4.301  1.2472 -1.7586 -1.6460
   44MOL   H22227828   3.101   5.511   4.262 -0.2527 -1.2084  2.2995
   44MOL   H22327829   3.354   5.544   4.232  0.0365 -0.6009 -1.2288
   44MOL   H22427830   3.369   5.370   4.248 -0.1075  0.6409 -0.9526
   44MOL   H22527831   3.300   5.579   4.454  0.2948  0.4435 -1.2178
   44MOL   C22627832   3.351   5.395   4.519  0.2465 -0.0274 -0.4294
   44MOL   O22727833   3.351   5.277   4.491 -0.0562  0.1687 -0.4622
   44MOL   C22827834   3.372   5.452   4.657  0.8101 -0.4510  0.0450
   44MOL   C22927835   3.233   5.458   4.738  0.3095  0.8511 -0.0908
   44MOL   C23027836   3.140   5.573   4.699  0.3694  0.4528 -0.1359
   44MOL   C23127837   3.006   5.580   4.756  0.2295  0.6977  0.3377
   44MOL   C23227838   2.917   5.464   4.718 -0.0755 -0.5532 -0.3056
   44MOL   O23327839   2.889   5.370   4.797 -0.3357  0.1345 -0.6443
   44MOL   N23427840   2.860   5.472   4.598  0.0216  0.3294  0.1286
   44MOL   C23527841   2.774   5.369   4.540 -0.1328  0.3933  0.2329
   44MOL   C23627842   2.800   5.357   4.390  0.3360  0.3003 -0.3984
   44MOL   C23727843   2.713   5.238   4.345  0.5260  0.4101 -0.1851
   44MOL   C23827844   2.554   5.250   4.353  0.1733 -0.1993 -0.5275
   44MOL   N23927845   2.498   5.346   4.253 -0.1446  0.1528  0.1388
   44MOL   H24027846   3.432   5.374   4.704 -1.3355 -2.4850 -0.5300
   44MOL   H24127847   3.426   5.547   4.655  0.0105  0.0088 -0.0960
   44MOL   H24227848   3.172   5.371   4.714 -0.8783  1.8306 -0.6745
   44MOL   H24327849   3.237   5.454   4.847 -3.2726 -2.7604  0.0144
   44MOL   H24427850   3.133   5.584   4.591 -2.4899 -0.0465 -0.0533
   44MOL   H24527851   3.189   5.662   4.739 -0.7222  0.6595  0.7649
   44MOL   H24627852   2.953   5.665   4.713 -2.2138 -0.4800  0.8849
   44MOL   H24727853   3.005   5.598   4.863 -2.5739  1.2924  0.2606
   44MOL   H24827854   2.878   5.555   4.545  2.1406 -1.2097 -1.6343
   44MOL   H24927855   2.675   5.413   4.554 -0.5788  0.0292 -1.6205
   44MOL   H25027856   2.776   5.273   4.590 -0.7774  0.1441 -0.2199
   44MOL   H25127857   2.781   5.446   4.330  2.3430  1.5051  0.6953
   44MOL   H25227858   2.906   5.333   4.380  0.8387  1.8826  0.9844
   44MOL   H25327859   2.752   5.143   4.382  3.2829  1.4194 -0.4114
   44MOL   H25427860   2.734   5.230   4.238  1.6598  1.1429 -0.0280
   44MOL   H25527861   2.539   5.278   4.458 -1.6637 -0.9947 -0.5515
   44MOL   H25627862   2.496   5.160   4.333 -1.0489  0.4832 -0.1351
   44MOL   H25727863   2.477   5.310   4.161 -0.8784  0.9622 -0.0136
   44MOL   C25827864   2.454   5.470   4.283 -0.3859  0.1070  0.7805
   44MOL   O25927865   2.466   5.532   4.386  0.4730  0.7573  0.0499
   44MOL   C26027866   2.389   5.545   4.166 -0.1472  0.6234  0.6229
   44MOL   C26127867   2.479   5.560   4.041  0.2974  0.5029 -0.3698
   44MOL   C26227868   2.582   5.673   4.058  0.0524  0.9072  0.6764
   44MOL   C26327869   2.698   5.666   3.948  0.1401  0.5059 -0.2147
   44MOL   C26427870   2.754   5.797   3.891  0.6071  1.1737  0.7152
   44MOL   O26527871   2.744   5.899   3.957 -0.2621 -0.2666  0.0743
   44MOL   N26627872   2.823   5.778   3.776 -0.1563 -0.4003 -0.6707
   44MOL   C26727873   2.884   5.883   3.696  0.9181 -0.0301 -0.5150
   44MOL   C26827874   2.919   5.820   3.564 -1.1361 -0.5000  1.0275
   44MOL   C26927875   2.988   5.919   3.472  0.5967 -0.0661  0.5269
   44MOL   C27027876   2.992   5.865   3.323  1.0142  0.2801 -0.4196
   44MOL   N27127877   3.008   5.977   3.234 -0.3940  0.5389  0.0929
   44MOL   H27227878   2.298   5.490   4.144  0.3223 -0.1128  0.5216
   44MOL   H27327879   2.343   5.639   4.197 -2.2557 -0.0644 -0.3774
   44MOL   H27427880   2.539   5.469   4.032 -0.8217 -0.4362  1.3549
   44MOL   H27527881   2.423   5.570   3.948 -2.1500  0.3848  1.0635
   44MOL   H27627882   2.626   5.669   4.157 -0.9708 -0.3942  1.0885
   44MOL   H27727883   2.526   5.767   4.053 -2.6798 -0.6513  0.5777
   44MOL   H27827884   2.673   5.602   3.863 -1.1403  1.1763 -0.3627
   44MOL   H27927885   2.781   5.619   4.001 -0.5576 -2.0230 -1.2855
   44MOL   H28027886   2.843   5.681   3.757  1.6607 -0.1438 -0.1153
   44MOL   H28127887   2.979   5.911   3.742  0.2249  2.1598 -0.3757
   44MOL   H28227888   2.815   5.967   3.694 -0.2622 -0.9709  0.3172
   44MOL   H28327889   2.988   5.736   3.572  1.0305  1.1162  0.0931
   44MOL   H28427890   2.834   5.781   3.508 -1.5933  2.4132 -0.3782
   44MOL   H28527891   3.085   5.940   3.516 -0.1210  0.2814  1.9790
   44MOL   H28627892   2.931   6.012   3.465  1.6987  0.6723  1.3441
   44MOL   H28727893   2.903   5.807   3.300  0.4752  1.3275 -1.0123
   44MOL   H28827894   3.073   5.791   3.315 -1.4191 -2.3213 -1.9507
   44MOL   H28927895   3.106   5.993   3.216  0.4506  0.6654  4.3284
   44MOL   C29027896   2.921   6.052   3.179  0.5317  0.1567 -0.6261
   44MOL   O29127897   2.958   6.148   3.117 -0.2936  0.5470  0.1760
   44MOL   C29227898   2.767   6.024   3.197  0.6039  0.0722 -0.3099
   44MOL   C29327899   2.699   6.158   3.235  0.0363  0.3802  0.0817
   44MOL   C29427900   2.728   6.206   3.382 -0.0793  0.2271  0.1253
   44MOL   C29527901   2.641   6.308   3.449 -0.1415 -0.6594  0.3414
   44MOL   C29627902   2.679   6.348   3.595  0.3456  0.2484 -0.4511
   44MOL   O29727903   2.761   6.275   3.649  0.1611  1.0751  0.6343
   44MOL   N29827904   2.630   6.463   3.652  0.0599 -0.2020  0.5101
   44MOL   C29927905   2.671   6.519   3.779  0.5258 -0.3654  0.3231
   44MOL   C30027906   2.751   6.645   3.756  0.2836 -0.4656 -0.8796
   44MOL   C30127907   2.902   6.621   3.722  0.6662  0.5046  0.0678
   44MOL   C30227908   2.981   6.753   3.726 -0.1501 -0.9404  0.6934
   44MOL   N30327909   3.102   6.744   3.652 -0.1240 -0.4784  0.0404
   44MOL   H30427910   2.734   5.988   3.100 -0.0155  2.7087 -1.1189
   44MOL   H30527911   2.738   5.955   3.276 -0.9379  0.5851 -0.4191
   44MOL   H30627912   2.722   6.237   3.164 -0.4100  0.6958  0.2872
   44MOL   H30727913   2.592   6.154   3.218  0.1995 -0.3639 -0.8297
   44MOL   H30827914   2.834   6.230   3.393 -0.8649  2.6357  3.1096
   44MOL   H30927915   2.721   6.118   3.446  1.2212 -0.9225 -1.2493
   44MOL   H31027916   2.534   6.287   3.447 -0.2716 -0.0809  0.8664
   44MOL   H31127917   2.642   6.395   3.383 -1.3346  0.7663  2.1366
   44MOL   H31227918   2.545   6.490   3.605 -0.2290 -0.0839  1.0978
   44MOL   H31327919   2.726   6.442   3.833 -1.0629 -1.8288 -0.0804
   44MOL   H31427920   2.580   6.539   3.836  1.0536  0.6002  0.8386
   44MOL   H31527921   2.710   6.703   3.673 -1.3151 -2.5337 -1.5883
   44MOL   H31627922   2.744   6.703   3.848 -0.0322 -1.9670  0.0549
   44MOL   H31727923   2.898   6.580   3.621 -1.9412 -0.5652  0.5617
   44MOL   H31827924   2.938   6.542   3.788 -2.2795 -1.9067 -1.0644
   44MOL   H31927925   2.989   6.796   3.826  0.5814 -2.1739  1.1647
   44MOL   H32027926   2.914   6.824   3.677  1.1971 -1.6849 -2.3726
   44MOL   H32127927   3.109   6.776   3.557  3.5302 -1.5072 -0.1145
   44MOL   C32227928   3.224   6.731   3.714  0.1375 -0.2338  0.4258
   44MOL   O32327929   3.245   6.702   3.835  0.3211  0.7447  0.9653
   44MOL   C32427930   3.341   6.759   3.624 -0.1475  0.5636  0.3459
   44MOL   C32527931   3.445   6.644   3.625 -0.1398  0.1277 -0.0017
   44MOL   C32627932   3.578   6.677   3.551 -0.9801 -0.0048  0.6656
   44MOL   C32727933   3.645   6.812   3.587  0.2704  0.1586 -0.2330
   44MOL   C32827934   3.711   6.881   3.466  0.1534 -0.3062  0.0438
   44MOL   O32927935   3.768   6.809   3.384 -0.0329  0.1256 -0.0553
   44MOL   N33027936   3.710   7.013   3.463  0.2798 -0.0126  0.0175
   44MOL   C33127937   3.789   7.104   3.382 -0.0470  0.1480  0.0139
   44MOL   C33227938   3.720   7.138   3.249 -1.2569 -0.1374  0.1955
   44MOL   C33327939   3.780   7.277   3.199 -0.0525  0.1269 -0.4804
   44MOL   C33427940   3.730   7.316   3.057  0.1068 -0.2790 -0.3586
   44MOL   N33527941   3.824   7.262   2.958 -0.2092  0.4796  0.6390
   44MOL   H33627942   3.315   6.790   3.523 -3.5372  2.6610  1.7666
   44MOL   H33727943   3.372   6.851   3.674  0.1421  0.2301  0.7878
   44MOL   H33827944   3.463   6.607   3.726 -0.6944 -1.4148 -0.4378
   44MOL   H33927945   3.406   6.559   3.568  2.2558  0.5378 -2.2972
   44MOL   H34027946   3.550   6.684   3.446 -1.9266  0.4294  0.9442
   44MOL   H34127947   3.648   6.594   3.564 -1.8960 -0.5672  2.1445
   44MOL   H34227948   3.716   6.787   3.666  0.3620 -1.0443 -0.6951
   44MOL   H34327949   3.575   6.884   3.631  0.4157  1.4056 -2.0146
   44MOL   H34427950   3.652   7.058   3.532  1.2518 -1.0339  1.5262
   44MOL   H34527951   3.888   7.060   3.366 -0.3814 -1.0732  1.2576
   44MOL   H34627952   3.818   7.197   3.431  0.5890  0.6433 -1.2744
   44MOL   H34727953   3.735   7.045   3.193 -0.5039 -0.0101  0.1875
   44MOL   H34827954   3.618   7.163   3.279 -0.3791  1.5290  1.8295
   44MOL   H34927955   3.889   7.281   3.201  0.0200 -1.0259  3.7088
   44MOL   H35027956   3.748   7.359   3.264  1.3215  2.1340 -2.2538
   44MOL   H35127957   3.718   7.424   3.055 -1.1586 -0.4350 -2.1721
   44MOL   H35227958   3.634   7.271   3.030  0.6841 -1.7011 -0.1209
   44MOL   H35327959   3.819   7.169   2.920  0.9256  0.5602  0.2562
   44MOL   C35427960   3.936   7.332   2.919  0.0815 -0.4402  0.1761
   44MOL   O35527961   3.956   7.447   2.954  0.4922  0.5879  0.8153
   44MOL   C35627962   4.037   7.253   2.838  0.2206 -0.1952 -0.8182
   44MOL   C35727963   4.050   7.284   2.690  0.2325  0.2850  0.9029
   44MOL   C35827964   3.957   7.195   2.609  0.0026 -0.3235  0.3056
   44MOL   C35927965   3.987   7.193   2.461 -1.1936 -0.0167  0.5323
   44MOL   C36027966   3.866   7.135   2.382 -0.9000 -0.1498 -0.3018
   44MOL   O36127967   3.759   7.203   2.372  0.3182 -0.3316  0.0281
   44MOL   N36227968   3.882   7.015   2.327  0.1444 -0.8313  0.1638
   44MOL   C36327969   3.789   6.944   2.239 -0.0801 -0.2459  0.0064
   44MOL   C36427970   3.843   6.949   2.094 -0.4750  0.1433 -0.1204
   44MOL   C36527971   3.965   6.855   2.085  0.1472  0.6644  0.4732
   44MOL   C36627972   4.027   6.864   1.943 -0.3458  0.4021 -0.3424
   44MOL   N36727973   4.139   6.769   1.931  0.0024  0.1746 -0.9750
   44MOL   H36827974   4.138   7.268   2.876 -1.6026 -0.2495  4.4966
   44MOL   H36927975   4.018   7.147   2.851 -0.8767  0.0578 -0.2460
   44MOL   H37027976   4.031   7.390   2.677 -1.9410 -0.5662 -4.0549
   44MOL   H37127977   4.152   7.257   2.661 -0.1582 -0.7773  0.4692
   44MOL   H37227978   3.852   7.214   2.631 -0.0351  0.5628 -0.6178
   44MOL   H37327979   3.972   7.094   2.647  0.1874  0.1139  1.4031
   44MOL   H37427980   4.078   7.139   2.436 -0.4515  1.3437  0.2254
   44MOL   H37527981   4.009   7.294   2.426 -0.0981  0.1913  1.7543
   44MOL   H37627982   3.973   6.975   2.340 -0.2572 -1.4676  1.0818
   44MOL   H37727983   3.694   6.995   2.226  0.1227 -0.3204 -1.8284
   44MOL   H37827984   3.761   6.842   2.267 -0.8807 -0.3512 -1.1322
   44MOL   H37927985   3.762   6.927   2.026  0.5595 -1.2123 -0.9278
   44MOL   H38027986   3.880   7.051   2.077  0.1722 -0.0998 -0.1914
   44MOL   H38127987   3.926   6.753   2.094 -1.3670  0.5941 -4.7724
   44MOL   H38227988   4.044   6.887   2.152 -1.1601  0.3184  2.2217
   44MOL   H38327989   4.064   6.963   1.917 -0.5908  0.3143 -1.0353
   44MOL   H38427990   3.949   6.848   1.868 -0.6958  2.2196 -0.3798
   44MOL   H38527991   4.227   6.809   1.904 -0.1507 -0.5042 -2.5139
   44MOL   C38627992   4.125   6.637   1.902 -0.1591 -0.1249  0.4186
   44MOL   O38727993   4.020   6.573   1.924  0.5192  1.1489  0.3510
   44MOL   C38827994   4.251   6.567   1.838 -0.7944  0.1763  0.5932
   44MOL   C38927995   4.241   6.563   1.680  0.0649 -0.2204  0.4379
   44MOL   C39027996   4.356   6.488   1.613 -0.0150 -0.6585 -0.0911
   44MOL   C39127997   4.499   6.544   1.638 -0.5887  0.1826 -0.3423
   44MOL   C39227998   4.516   6.682   1.593  0.8405 -0.2493 -0.5185
   44MOL   O39327999   4.526   6.712   1.477 -0.0065  0.3464  0.4439
   44MOL   N39428000   4.536   6.782   1.685  1.0510  0.2226  0.8333
   44MOL   C39528001   4.556   6.928   1.653 -0.5005  0.3702 -0.1392
   44MOL   C39628002   4.692   6.961   1.596 -0.1623  0.7897 -0.0896
   44MOL   C39728003   4.810   6.917   1.697  0.4180  0.3836 -0.3997
   44MOL   C39828004   4.931   6.995   1.674 -0.2304  0.7500  0.0564
   44MOL   N39928005   4.932   7.132   1.704  0.5560  0.3295  0.4610
   44MOL   H40028006   4.339   6.620   1.876  0.7935 -1.9201 -0.0186
   44MOL   H40128007   4.267   6.464   1.871  0.0171  0.5635  1.4613
   44MOL   H40228008   4.152   6.508   1.650  0.1075 -0.2878  0.4353
   44MOL   H40328009   4.228   6.663   1.639 -1.4070  0.8108  3.2406
   44MOL   H40428010   4.344   6.491   1.505  0.5756  3.7490 -0.1201
   44MOL   H40528011   4.351   6.385   1.647  3.1185 -1.2065 -1.1666
   44MOL   H40628012   4.571   6.478   1.588  0.5618  0.2987  1.1404
   44MOL   H40728013   4.528   6.529   1.742 -1.0345  2.1947  0.0898
   44MOL   H40828014   4.520   6.760   1.782  0.1995  1.3958  0.9646
   44MOL   H40928015   4.524   6.998   1.731 -0.3028 -0.8707  1.0733
   44MOL   H41028016   4.482   6.951   1.576 -0.3914  1.6935  0.1351
   44MOL   H41128017   4.701   6.909   1.501 -0.4072 -0.2051  0.4263
   44MOL   H41228018   4.694   7.066   1.568  0.5157 -0.1505 -3.7843
   44MOL   H41328019   4.829   6.810   1.684 -1.8877 -0.1914  0.6850
   44MOL   H41428020   4.776   6.939   1.799 -0.7362 -2.6450 -0.0923
   44MOL   H41528021   4.966   6.982   1.572 -0.7608  2.0279 -0.2908
   44MOL   H41628022   5.010   6.950   1.735  1.4280  4.1001  0.4952
   44MOL   H41728023   4.924   7.195   1.626 -0.1918 -1.2801 -0.8043
   44MOL   C41828024   4.928   7.181   1.826 -0.1034  0.0246 -0.5986
   44MOL   O41928025   4.938   7.112   1.925 -0.2473 -0.6013  0.0424
   44MOL   C42028026   4.910   7.327   1.845 -0.3868  0.9555 -0.0598
   44MOL   C42128027   4.802   7.359   1.948 -0.4918  0.1793 -0.0146
   44MOL   C42228028   4.674   7.276   1.940  0.3667  0.0389  0.5024
   44MOL   C42328029   4.583   7.306   1.812  0.2848  0.4974 -0.9335
   44MOL   C42428030   4.515   7.440   1.808  0.3540  0.0860 -0.2649
   44MOL   O42528031   4.531   7.517   1.908 -0.0353 -0.1410 -0.4340
   44MOL   N42628032   4.433   7.472   1.704  0.2665  0.4021 -0.1783
   44MOL   C42728033   4.370   7.605   1.687 -0.4460  0.0935  0.1291
   44MOL   C42828034   4.280   7.617   1.555  0.2034  0.0615 -0.0996
   44MOL   C42928035   4.187   7.493   1.540 -0.3534 -0.3998 -0.4794
   44MOL   C43028036   4.117   7.497   1.401  0.2156  0.2150 -0.3091
   44MOL   N43128037   4.037   7.624   1.388 -0.0685  0.4524  0.5960
   44MOL   H43228038   5.002   7.378   1.871 -0.7492  2.1980 -1.1854
   44MOL   H43328039   4.891   7.378   1.751  1.9841  2.2471  0.1267
   44MOL   H43428040   4.845   7.337   2.046 -2.1477  1.8643  1.1276
   44MOL   H43528041   4.784   7.467   1.950  0.4501  0.3734 -1.2836
   44MOL   H43628042   4.614   7.286   2.030 -2.8563  1.7055 -1.7118
   44MOL   H43728043   4.705   7.173   1.957  1.9489  0.6538  1.4194
   44MOL   H43828044   4.510   7.227   1.801 -1.0955  1.3557  1.7339
   44MOL   H43928045   4.642   7.290   1.722  1.1389 -1.2278 -0.0716
   44MOL   H44028046   4.419   7.418   1.619 -1.0321 -0.4381  0.5509
   44MOL   H44128047   4.441   7.685   1.708 -1.9601  1.1425  1.3321
   44MOL   H44228048   4.313   7.623   1.778  2.0150  0.8904  1.5342
   44MOL   H44328049   4.220   0.006   1.567 -0.8169 -0.4596 -1.2302
   44MOL   H44428050   4.338   7.639   1.466 -2.6834  1.4618 -1.7047
   44MOL   H44528051   4.107   7.482   1.613 -1.7226 -0.4113 -1.9535
   44MOL   H44628052   4.246   7.402   1.544 -1.5012 -1.1081  0.9829
   44MOL   H44728053   4.049   7.412   1.388 -0.0992  0.3901  0.1408
   44MOL   H44828054   4.186   7.486   1.318 -2.4878 -3.0438 -2.2510
   44MOL   H44928055   4.078   0.014   1.374 -0.3748  0.3787 -0.9568
   44MOL   C45028056   3.906   7.628   1.429 -0.0283 -0.0740 -0.3570
   44MOL   O45128057   3.839   7.535   1.474 -0.3012 -0.5413 -0.0432
   44MOL   C45228058   3.846   0.065   1.413 -0.2106  0.5570  0.5695
   44MOL   C45328059   3.773   0.108   1.538 -0.6030 -0.8615 -0.1787
   44MOL   C45428060   3.852   0.208   1.625 -0.1235 -0.5529  0.0156
   44MOL   C45528061   3.984   0.163   1.699  0.1887 -0.6258 -0.2201
   44MOL   C45628062   3.983   0.048   1.801 -0.0184 -0.3626 -0.2436
   44MOL   O45728063   3.895   7.665   1.793 -0.0835 -0.0539 -0.2566
   44MOL   N45828064   4.080   0.053   1.895 -0.0991  0.4208  0.0854
   44MOL   C45928065   4.097   7.668   2.012 -0.1537 -0.3246  0.3336
   44MOL   C46028066   4.076   0.041   2.146 -0.3681  0.0951  0.1074
   44MOL   C46128067   3.940   0.116   2.155  0.9857 -0.3990  0.1711
   44MOL   C46228068   3.935   0.183   2.293 -1.2442  0.1723 -0.8008
   44MOL   N46328069   3.802   0.236   2.328 -0.0085 -0.1091  0.1037
   44MOL   H46428070   3.925   0.132   1.380 -0.2380 -0.8985 -2.6055
   44MOL   H46528071   3.778   0.065   1.328  1.4233  2.5656 -0.8012
   44MOL   H46628072   3.687   0.169   1.509 -1.1621 -0.9444  1.2527
   44MOL   H46728073   3.722   0.030   1.595  0.1641 -0.1894  1.4557
   44MOL   H46828074   3.783   0.237   1.705 -0.6074 -0.3145 -0.4822
   44MOL   H46928075   3.873   0.293   1.560  1.2483 -1.1419 -0.3225
   44MOL   H47028076   4.028   0.250   1.747 -1.2692 -0.5219  0.9655
   44MOL   H47128077   4.061   0.146   1.624  0.8044 -0.6111  0.4024
   44MOL   H47228078   4.150   0.126   1.888 -0.6864  0.8936 -1.1099
   44MOL   H47328079   4.197   7.623   2.012 -0.3720 -0.8099  1.1001
   44MOL   H47428080   4.026   7.585   2.013 -1.1533  0.5262 -0.0489
   44MOL   H47528081   4.083   7.662   2.219  0.7566 -2.2344 -2.4606
   44MOL   H47628082   4.153   0.113   2.175 -0.5787 -0.5558  2.3719
   44MOL   H47728083   3.866   0.036   2.161 -1.1017  1.5303  1.2118
   44MOL   H47828084   3.912   0.190   2.079 -1.3315 -2.4552 -1.0544
   44MOL   H47928085   4.008   0.264   2.297 -2.4566  1.2408  0.0683
   44MOL   H48028086   3.954   0.111   2.373  0.6745 -0.7947 -2.0753
   44MOL   H48128087   3.738   0.160   2.345 -1.8560  1.5796  0.9314
   44MOL   C48228088   3.748   0.357   2.314  0.1953 -0.3845  0.2283
   44MOL   O48328089   3.812   0.461   2.292  0.2372  0.5111 -0.5257
   44MOL   C48428090   3.598   0.363   2.357 -0.0677  0.2348  0.0142
   44MOL   C48528091   3.582   0.347   2.511 -0.3518 -0.0886  0.0282
   44MOL   C48628092   3.621   0.471   2.594 -0.3768  0.2530 -0.3630
   44MOL   C48728093   3.588   0.455   2.744  0.0613  1.5229 -0.5341
   44MOL   C48828094   3.652   0.558   2.836 -0.3032  0.4058  0.3299
   44MOL   O48928095   3.598   0.669   2.848  0.7191  0.0481  0.4072
   44MOL   N49028096   3.747   0.511   2.912  0.0252  0.0546 -0.5266
   44MOL   C49128097   3.825   0.563   3.020 -0.2319  0.4442  0.7963
   44MOL   C49228098   3.956   0.639   2.990 -0.3025 -0.3877  0.2443
   44MOL   C49328099   3.949   0.734   2.871  0.2178 -0.2330  0.3122
   44MOL   C49428100   4.069   0.818   2.850 -0.3449 -0.4776  0.2853
   44MOL   N49528101   4.039   0.923   2.745 -0.3936  0.2900 -0.0142
   44MOL   H49628102   3.548   0.452   2.318 -0.5681  0.6403  1.5621
   44MOL   H49728103   3.553   0.283   2.299  1.6732  0.7625 -2.1283
   44MOL   H49828104   3.475   0.325   2.514 -0.6304  0.8783 -1.7819
   44MOL   H49928105   3.626   0.257   2.552  0.8394  0.0828 -0.8419
   44MOL   H50028106   3.566   0.559   2.559  5.6066  3.4613 -2.4882
   44MOL   H50128107   3.723   0.507   2.589 -0.2194 -0.1097  0.2523
   44MOL   H50228108   3.617   0.353   2.772 -0.4837  1.4403 -0.2502
   44MOL   H50328109   3.482   0.453   2.769  0.0186  0.0304 -0.7744
   44MOL   H50428110   3.760   0.413   2.894  2.0778  0.4946 -1.6773
   44MOL   H50528111   3.846   0.476   3.081  0.7844  0.2778  0.2266
   44MOL   H50628112   3.761   0.631   3.076 -0.4941  1.9453 -1.2326
   44MOL   H50728113   4.002   0.690   3.074 -4.3071 -0.2997  2.4450
   44MOL   H50828114   4.029   0.564   2.960 -1.1204 -1.5198  1.0654
   44MOL   H50928115   3.865   0.800   2.892 -0.5670 -1.3756  0.8215
   44MOL   H51028116   3.923   0.673   2.784  0.0202 -2.6836  2.0411
   44MOL   H51128117   4.162   0.768   2.825 -0.4102 -0.6566  0.4037
   44MOL   H51228118   4.083   0.872   2.943 -0.0228 -0.5718  0.2894
   44MOL   H51328119   4.051   0.897   2.648  0.1001  2.3902 -0.5319
   44MOL   C51428120   3.993   1.051   2.763  0.2687 -0.5677 -0.0927
   44MOL   O51528121   3.975   1.103   2.872  0.0714  0.2314 -0.3226
   44MOL   C51628122   3.981   1.131   2.636  0.2011 -0.1708 -0.6511
   44MOL   C51728123   3.841   1.190   2.622  0.1775  0.0622  0.3343
   44MOL   C51828124   3.801   1.227   2.477 -0.1047  0.1357  0.0742
   44MOL   C51928125   3.660   1.280   2.452 -0.1104 -0.8968 -0.6277
   44MOL   C52028126   3.617   1.415   2.516 -0.7234  0.4632 -0.1445
   44MOL   O52128127   3.700   1.497   2.549  0.1947 -0.0945 -0.1185
   44MOL   N52228128   3.489   1.418   2.549  0.2520  0.6847 -0.8791
   44MOL   C52328129   3.419   1.522   2.616  0.5411  0.7856 -0.5622
   44MOL   C52428130   3.264   1.502   2.631  0.4922 -0.2193  0.2310
   44MOL   C52528131   3.188   1.521   2.499 -0.2266  0.1479 -0.2308
   44MOL   C52628132   3.211   1.410   2.403 -0.1660  0.0212  0.0949
   44MOL   N52728133   3.131   1.299   2.447  0.0356  0.2046  0.2594
   44MOL   H52828134   4.052   1.213   2.651  1.9916 -1.8282  0.1148
   44MOL   H52928135   4.015   1.079   2.547  0.2797 -0.4651 -0.4466
   44MOL   H53028136   3.771   1.122   2.671  1.4840 -0.4116  1.5923
   44MOL   H53128137   3.840   1.284   2.677  3.2159  0.1646  0.2560
   44MOL   H53228138   3.809   1.136   2.417 -1.9931 -1.6323  2.4386
   44MOL   H53328139   3.879   1.292   2.437  1.2775 -1.2527  0.4490
   44MOL   H53428140   3.591   1.200   2.476 -1.7042  1.4147  2.7467
   44MOL   H53528141   3.658   1.292   2.343 -1.8892  0.3748 -0.4619
   44MOL   H53628142   3.424   1.345   2.524 -0.1900  1.3145 -1.5973
   44MOL   H53728143   3.437   1.618   2.566  1.2369  1.1389  0.3610
   44MOL   H53828144   3.448   1.529   2.720 -2.6907  0.7333  0.4051
   44MOL   H53928145   3.233   1.408   2.678 -0.5896 -0.2069 -0.4524
   44MOL   H54028146   3.228   1.580   2.699 -1.6372  0.0412 -1.1694
   44MOL   H54128147   3.227   1.615   2.461  0.6662  0.1401  0.6346
   44MOL   H54228148   3.082   1.538   2.519 -0.0319  0.8794  0.1992
   44MOL   H54328149   3.317   1.398   2.378 -0.2839 -1.2973  0.1510
   44MOL   H54428150   3.177   1.445   2.305 -1.0279  1.4333  0.8887
   44MOL   H54528151   3.031   1.290   2.443  0.1183 -0.5860 -0.1560
   44MOL   C54628152   3.191   1.192   2.498  0.0060  0.0971  0.4861
   44MOL   O54728153   3.312   1.172   2.519 -0.0330  0.1497 -0.2853
   44MOL   C54828154   3.097   1.087   2.555  0.0865 -0.0942  0.5971
   44MOL   C54928155   3.090   1.077   2.705  0.4573 -0.3198 -0.1696
   44MOL   C55028156   3.024   1.198   2.776 -0.0708 -0.1842 -0.4944
   44MOL   C55128157   3.048   1.179   2.927 -0.4253  0.3383  0.7032
   44MOL   C55228158   2.982   1.286   3.016  0.0664  0.9016 -0.4269
   44MOL   O55328159   2.969   1.402   2.975  0.2516  0.0635 -0.4177
   44MOL   N55428160   2.910   1.239   3.122 -0.6721  0.3418 -0.4534
   44MOL   C55528161   2.817   1.312   3.204  0.0964 -0.2351  0.5904
   44MOL   C55628162   2.822   1.272   3.348  0.0592 -0.2442 -0.0422
   44MOL   C55728163   2.945   1.326   3.415 -0.1606  0.0099 -0.1274
   44MOL   C55828164   2.937   1.454   3.499 -0.5744 -0.2502 -0.8717
   44MOL   N55928165   2.930   1.571   3.409  0.0051 -0.0341 -0.2604
   44MOL   H56028166   2.992   1.109   2.536 -0.3215  0.0836  2.9475
   44MOL   H56128167   3.123   0.991   2.511  1.3375 -0.4826  2.1324
   44MOL   H56228168   3.043   0.982   2.731 -0.2613  0.3708  1.1157
   44MOL   H56328169   3.192   1.083   2.743  0.5247  2.5860 -0.6543
   44MOL   H56428170   2.924   1.209   2.734  0.3896  0.7933 -1.3405
   44MOL   H56528171   3.082   1.285   2.746 -0.9415  0.3062 -0.7689
   44MOL   H56628172   3.151   1.167   2.962  0.6590  1.3556 -1.9597
   44MOL   H56728173   2.997   1.085   2.951  0.3955  0.0901  1.5047
   44MOL   H56828174   2.895   1.139   3.121  0.6479  0.1351 -0.3489
   44MOL   H56928175   2.714   1.300   3.170  0.3984 -0.0454 -0.3976
   44MOL   H57028176   2.842   1.418   3.201 -0.7027 -0.0852 -1.8568
   44MOL   H57128177   2.730   1.299   3.399  0.5820  0.6864  0.4139
   44MOL   H57228178   2.813   1.164   3.365  0.4584 -0.2623  0.0623
   44MOL   H57328179   3.030   1.334   3.347  0.5279 -0.2862  0.6944
   44MOL   H57428180   2.980   1.251   3.486  4.1936  1.1879 -0.8935
   44MOL   H57528181   3.031   1.457   3.554 -2.1993  2.7444  1.8837
   44MOL   H57628182   2.854   1.449   3.569  1.6843  0.4942  1.9507
   44MOL   H57728183   3.012   1.586   3.353 -1.4869 -0.6139 -2.6785
   44MOL   C57828184   2.836   1.661   3.402  0.0185  0.3963  0.4762
   44MOL   O57928185   2.755   1.665   3.491 -0.1238  0.4151  0.6942
   44MOL   C58028186   2.849   1.763   3.283 -0.0924  0.0158  0.0183
   44MOL   C58128187   2.820   1.707   3.147 -0.7151 -0.3113  0.4805
   44MOL   C58228188   2.675   1.657   3.126 -0.3640  0.1167  0.2096
   44MOL   C58328189   2.648   1.571   3.000 -0.4671 -0.6459 -0.6356
   44MOL   C58428190   2.699   1.625   2.866  0.2632 -0.2458 -0.2637
   44MOL   O58528191   2.625   1.687   2.791 -0.5454 -0.8274  0.0113
   44MOL   N58628192   2.830   1.597   2.839 -0.0852  0.1521 -0.1063
   44MOL   C58728193   2.906   1.639   2.728 -0.1502  0.0011  0.2535
   44MOL   C58828194   2.913   1.792   2.716 -0.4706 -0.8297 -0.0635
   44MOL   C58928195   2.989   1.841   2.587 -0.1760 -0.1346  0.6482
   44MOL   C59028196   3.019   1.988   2.607  0.2445  0.0488  0.0776
   44MOL   N59128197   3.084   2.030   2.482  0.1055 -0.1345 -0.1903
   44MOL   H59228198   2.808   1.863   3.299  0.6961  0.5219 -1.0761
   44MOL   H59328199   2.957   1.771   3.294 -0.0630 -1.0141  0.5826
   44MOL   H59428200   2.851   1.775   3.067  0.2269 -3.3695 -1.8164
   44MOL   H59528201   2.886   1.622   3.133 -0.3765  0.1821 -1.0869
   44MOL   H59628202   2.611   1.745   3.126  1.6731  1.6671 -1.4702
   44MOL   H59728203   2.643   1.594   3.209  0.6446 -1.0216 -0.2408
   44MOL   H59828204   2.540   1.563   2.995 -0.7202  0.8510  1.7924
   44MOL   H59928205   2.683   1.469   3.015 -0.7712 -0.8560 -1.3109
   44MOL   H60028206   2.881   1.546   2.910 -2.7749 -1.1171  0.9722
   44MOL   H60128207   2.860   1.585   2.646 -1.9091  3.3061 -1.0575
   44MOL   H60228208   3.007   1.598   2.740 -1.1008 -2.4252  0.2053
   44MOL   H60328209   2.816   1.839   2.700  0.7233  2.0194  0.7552
   44MOL   H60428210   2.959   1.831   2.807  0.5789  0.0485 -0.9625
   44MOL   H60528211   2.928   1.830   2.497  1.0231 -2.5062  0.0819
   44MOL   H60628212   3.085   1.791   2.573  0.5826  0.9321  1.9304
   44MOL   H60728213   3.089   2.014   2.687 -1.7440  1.0363  1.5543
   44MOL   H60828214   2.929   2.045   2.630 -0.1477 -0.4756 -0.1424
   44MOL   H60928215   3.073   1.961   2.409  1.2584  0.6536 -1.1134
   44MOL   C61028216   3.187   2.111   2.468 -0.6284 -0.2058 -0.0468
   44MOL   O61128217   3.248   2.166   2.561  0.4911  0.1250  0.1253
   44MOL   C61228218   3.257   2.113   2.334  0.4033  0.8955  0.6106
   44MOL   C61328219   3.368   2.009   2.313 -0.4779  0.3590 -0.1742
   44MOL   C61428220   3.320   1.863   2.326  0.1251 -0.0133 -0.8461
   44MOL   C61528221   3.249   1.809   2.202  0.1705  0.0980  0.4738
   44MOL   C61628222   3.097   1.798   2.195 -0.0222  0.2439 -0.0608
   44MOL   O61728223   3.027   1.886   2.249  0.2199  0.6028  0.3293
   44MOL   N61828224   3.036   1.689   2.136  0.0081  0.0255 -0.4644
   44MOL   C61928225   2.892   1.685   2.131  0.5346  0.1372 -0.3262
   44MOL   C62028226   2.827   1.622   2.259 -0.3694 -0.0719 -0.6323
   44MOL   C62128227   2.871   1.480   2.295 -0.2689 -0.5306 -0.1953
   44MOL   C62228228   2.760   1.411   2.377 -0.5376  0.7007  0.7200
   44MOL   N62328229   2.809   1.289   2.439 -0.1889  0.6002 -0.2594
   44MOL   H62428230   3.174   2.103   2.264  0.2831  2.2578  0.5357
   44MOL   H62528231   3.287   2.214   2.304  2.0414 -0.0680 -1.1134
   44MOL   H62628232   3.407   2.015   2.212  1.4769 -1.0603  0.4527
   44MOL   H62728233   3.437   2.036   2.393  0.4951 -1.3560 -0.4156
   44MOL   H62828234   3.244   1.859   2.405  0.1899  1.5254 -0.6934
   44MOL   H62928235   3.397   1.794   2.361 -0.6755  0.0919  1.2240
   44MOL   H63028236   3.271   1.703   2.189  1.6520  0.5948 -1.3151
   44MOL   H63128237   3.276   1.865   2.112 -1.4441  1.7278  0.9839
   44MOL   H63228238   3.095   1.619   2.093 -1.2183 -1.5175  0.3038
   44MOL   H63328239   2.853   1.645   2.038 -1.2686 -1.2472  1.0017
   44MOL   H63428240   2.859   1.787   2.111 -3.9773 -0.4308  3.4420
   44MOL   H63528241   2.845   1.682   2.348  0.2418 -0.7238 -0.3121
   44MOL   H63628242   2.720   1.636   2.249 -0.3851  0.2014 -0.1261
   44MOL   H63728243   2.964   1.479   2.352 -0.4139 -2.0701  0.0364
   44MOL   H63828244   2.894   1.438   2.198 -2.6284  2.0680 -1.9669
   44MOL   H63928245   2.681   1.389   2.305 -0.0376  1.9016 -0.2294
   44MOL   H64028246   2.724   1.478   2.455 -0.4714  1.8003 -0.1674
   44MOL   H64128247   2.843   1.221   2.372 -1.3162 -0.5812  0.3446
   44MOL   H64228248   2.741   1.232   2.487  0.4293 -0.7726 -0.9776
   45MOL     C128249   5.100   1.172   3.648  0.1861  1.1422 -0.5819
   45MOL     O228250   5.015   1.258   3.652 -0.3762 -0.4392 -0.4215
   45MOL     C328251   5.116   1.093   3.522 -0.1231 -0.4446 -1.0629
   45MOL     C428252   5.263   1.058   3.493 -0.4806 -0.3906 -0.0323
   45MOL     C528253   5.361   1.179   3.475  0.3303  0.4401 -0.1464
   45MOL     C628254   5.325   1.277   3.362  0.3602  0.1457 -0.6586
   45MOL     C728255   5.408   1.408   3.367 -0.3374 -0.2862  0.4554
   45MOL     O828256   5.513   1.418   3.434 -0.3131 -0.0818 -0.2252
   45MOL     N928257   5.359   1.510   3.292 -0.3946  0.0352 -0.5644
   45MOL    C1028258   5.438   1.630   3.274  0.1159 -0.0391 -0.6401
   45MOL    C1128259   5.415   1.734   3.386 -0.5135  1.1503  0.5428
   45MOL    C1228260   5.273   1.794   3.379  0.0165  0.1472 -0.0398
   45MOL    C1328261   5.244   1.887   3.482  0.0957 -0.2640 -0.4134
   45MOL    N1428262   5.101   1.906   3.499 -0.3960 -0.1063  0.0545
   45MOL    H1528263   5.074   1.001   3.563 -1.0651  0.0372 -0.9482
   45MOL    H1628264   5.064   1.138   3.438 -0.2102  1.1702 -0.1754
   45MOL    H1728265   5.301   0.998   3.576 -0.3946  1.6163  1.4321
   45MOL    H1828266   5.277   0.991   3.408  0.3259 -0.0825 -0.1397
   45MOL    H1928267   5.457   1.131   3.462  1.3464  1.8953  1.7309
   45MOL    H2028268   5.376   1.240   3.564 -1.5442 -0.5058  0.8437
   45MOL    H2128269   5.224   1.313   3.381  1.2974  2.9381 -0.6902
   45MOL    H2228270   5.315   1.239   3.261 -0.0865  2.7283 -1.6087
   45MOL    H2328271   5.276   1.496   3.236  0.5207 -2.2425 -1.4243
   45MOL    H2428272   5.396   1.675   3.185 -2.2717  1.6292  1.2572
   45MOL    H2528273   5.546   1.623   3.262  0.0241 -2.4063 -0.3893
   45MOL    H2628274   5.438   1.692   3.484  1.4387  0.3063 -0.2627
   45MOL    H2728275   5.491   1.810   3.370 -0.5149  0.8712 -0.8312
   45MOL    H2828276   5.207   1.708   3.388 -0.0366 -0.0145 -1.7414
   45MOL    H2928277   5.271   1.835   3.278  1.9701  0.5830  0.0753
   45MOL    H3028278   5.302   1.978   3.468  0.6930 -0.0956  2.6468
   45MOL    H3128279   5.278   1.844   3.577  1.4503  0.5775 -0.5169
   45MOL    H3228280   5.048   1.846   3.560 -1.9705  1.4581  0.2846
   45MOL    H3328281   5.152   1.126   3.732 -0.6174 -0.6149 -1.0256
   45MOL    C3428282   5.023   1.991   3.429  0.9504 -0.0843 -0.4685
   45MOL    O3528283   5.059   2.064   3.340 -0.0246 -0.1801  0.3888
   45MOL    C3628284   4.877   2.002   3.465 -0.1824 -0.3038  0.1069
   45MOL    C3728285   4.846   2.107   3.579  0.0106  1.0723 -0.3903
   45MOL    C3828286   4.805   2.248   3.532 -0.1405 -0.1057 -0.1564
   45MOL    C3928287   4.662   2.259   3.484  0.3949 -0.5082 -0.5489
   45MOL    C4028288   4.617   2.412   3.466  0.2473 -0.0628  0.2542
   45MOL    O4128289   4.693   2.506   3.497 -0.2144  0.4165 -0.3491
   45MOL    N4228290   4.492   2.433   3.421  0.3571  0.1982  0.0419
   45MOL    C4328291   4.420   2.567   3.411 -0.2034  0.1750 -0.0441
   45MOL    C4428292   4.474   2.647   3.297  0.4562 -0.6145  0.2262
   45MOL    C4528293   4.456   2.596   3.155 -0.3466  0.2232 -1.1302
   45MOL    C4628294   4.517   2.678   3.043 -0.4832  0.3342 -0.0752
   45MOL    N4728295   4.499   2.631   2.913  0.3479 -0.2723  0.2342
   45MOL    H4828296   4.821   2.037   3.379 -1.8912 -0.4754  1.1358
   45MOL    H4928297   4.833   1.907   3.496  0.5659 -0.1748  1.6309
   45MOL    H5028298   4.767   2.062   3.640  2.8257 -1.2459  1.7122
   45MOL    H5128299   4.930   2.112   3.648  0.3266  0.7638 -0.7517
   45MOL    H5228300   4.875   2.276   3.454 -1.0979  1.0265 -0.6292
   45MOL    H5328301   4.824   2.318   3.614 -3.4178 -0.4282  0.9675
   45MOL    H5428302   4.598   2.207   3.555  0.6555  0.3585  0.3289
   45MOL    H5528303   4.650   2.219   3.383 -0.2547 -0.5028 -0.4814
   45MOL    H5628304   4.440   2.350   3.397 -1.1469  0.3521  2.5847
   45MOL    H5728305   4.432   2.628   3.500 -2.6244 -0.9416  1.0957
   45MOL    H5828306   4.317   2.556   3.376 -1.0206 -0.4322  2.4328
   45MOL    H5928307   4.431   2.747   3.297 -0.1792 -0.8705 -1.1611
   45MOL    H6028308   4.580   2.666   3.317  0.4755 -0.2544 -0.2140
   45MOL    H6128309   4.350   2.582   3.135 -0.8545 -0.1338  1.5447
   45MOL    H6228310   4.479   2.490   3.161 -1.5544  0.0306  0.5847
   45MOL    H6328311   4.623   2.683   3.069 -0.1780  0.8620 -1.3658
   45MOL    H6428312   4.478   2.780   3.039 -0.1164  0.4166 -3.5385
   45MOL    H6528313   4.584   2.633   2.857  0.5778  0.0713  0.5969
   45MOL    C6628314   4.382   2.613   2.852 -0.1542  0.1764  0.1738
   45MOL    O6728315   4.272   2.636   2.896 -0.2998  0.3433  0.2681
   45MOL    C6828316   4.395   2.557   2.708  0.2119 -0.2855 -1.0105
   45MOL    C6928317   4.324   2.652   2.609 -0.7757 -0.4811  0.4151
   45MOL    C7028318   4.297   2.583   2.474 -0.1184  0.4562  0.3000
   45MOL    C7128319   4.232   2.673   2.368 -0.1759  0.6729  0.1299
   45MOL    C7228320   4.218   2.591   2.238  0.0233 -0.7456 -0.2353
   45MOL    O7328321   4.317   2.564   2.179 -0.2681 -0.2821  0.0842
   45MOL    N7428322   4.093   2.573   2.189  0.1118 -0.3014  0.1234
   45MOL    C7528323   4.077   2.510   2.058  0.0976 -0.3492  0.1096
   45MOL    C7628324   4.064   2.364   2.083 -0.1536 -0.4576 -0.0803
   45MOL    C7728325   4.022   2.297   1.950 -0.1668  0.1525  0.0619
   45MOL    C7828326   3.981   2.146   1.968  0.9761  0.0717  0.1048
   45MOL    N7928327   4.089   2.070   2.029 -0.3586  0.1306  0.0716
   45MOL    H8028328   4.497   2.533   2.681 -0.1813 -2.4223 -0.6838
   45MOL    H8128329   4.335   2.467   2.722  1.4382 -0.8802  0.4606
   45MOL    H8228330   4.231   2.696   2.645 -0.2267  0.5094  0.6489
   45MOL    H8328331   4.384   2.743   2.596 -0.4027 -0.4540  2.2570
   45MOL    H8428332   4.228   2.504   2.504  1.1694 -0.6838  0.2972
   45MOL    H8528333   4.389   2.538   2.438  0.0089 -1.7354  3.1399
   45MOL    H8628334   4.298   2.757   2.348  2.3059 -1.2013  0.1390
   45MOL    H8728335   4.133   2.701   2.403 -0.7993  0.0470 -1.0996
   45MOL    H8828336   4.015   2.609   2.242  0.9347  0.5416  0.7715
   45MOL    H8928337   4.162   2.527   1.992 -0.5889 -0.3999 -0.8029
   45MOL    H9028338   3.993   2.554   2.005 -0.4286 -2.0500 -0.5031
   45MOL    H9128339   4.150   2.317   2.131  0.7272 -0.3457 -1.5175
   45MOL    H9228340   3.983   2.359   2.155 -0.8473 -1.6072 -0.9168
   45MOL    H9328341   4.100   2.306   1.875 -0.8601  0.8712 -0.5813
   45MOL    H9428342   3.932   2.348   1.914  0.0612  0.1560 -0.5075
   45MOL    H9528343   3.955   2.102   1.872 -0.2020 -4.0963  2.1862
   45MOL    H9628344   3.896   2.136   2.037  0.7672  0.5586 -0.0820
   45MOL    H9728345   4.140   2.109   2.106 -1.7150  0.5041  0.8026
   45MOL    C9828346   4.120   1.942   2.000 -0.8180  0.3330  0.3476
   45MOL    O9928347   4.065   1.870   1.916  0.2602 -0.4681 -0.1073
   45MOL   C10028348   4.244   1.886   2.071 -0.6612 -0.0051 -0.0727
   45MOL   C10128349   4.321   1.780   1.987  0.4766  0.3285  0.8615
   45MOL   C10228350   4.459   1.745   2.039  0.1339 -0.7536  0.7185
   45MOL   C10328351   4.466   1.660   2.166 -0.6646  0.0256 -0.8722
   45MOL   C10428352   4.469   1.508   2.135 -0.3301  0.7055  0.5773
   45MOL   O10528353   4.574   1.451   2.093  0.0011 -0.4759  0.3967
   45MOL   N10628354   4.355   1.447   2.163  0.4314 -0.6038 -0.5430
   45MOL   C10728355   4.330   1.308   2.146 -0.5568 -0.7409  0.0028
   45MOL   C10828356   4.355   1.238   2.285  0.1953  0.5344  0.0117
   45MOL   C10928357   4.318   1.085   2.295  0.1133 -0.1338 -0.8881
   45MOL   C11028358   4.347   1.025   2.431  0.3543 -0.0443 -0.6304
   45MOL   N11128359   4.492   1.042   2.464  0.4164 -0.1858  0.6014
   45MOL   H11228360   4.300   1.965   2.122  1.7556 -1.0774 -0.9626
   45MOL   H11328361   4.204   1.832   2.156  0.3909  0.2279  0.5806
   45MOL   H11428362   4.268   1.686   1.972  0.0113  0.7427 -0.1554
   45MOL   H11528363   4.328   1.818   1.885 -2.2276  1.7097  1.1616
   45MOL   H11628364   4.510   1.840   2.055 -0.6548 -0.7024  3.2278
   45MOL   H11728365   4.513   1.691   1.961 -2.3961 -0.7931 -1.0479
   45MOL   H11828366   4.377   1.680   2.226  0.1211  0.3825  0.1810
   45MOL   H11928367   4.553   1.689   2.225 -1.7087 -0.1748  0.8034
   45MOL   H12028368   4.281   1.506   2.197 -2.5819 -3.1020 -2.5388
   45MOL   H12128369   4.394   1.266   2.068 -0.0673 -0.7353  0.4005
   45MOL   H12228370   4.225   1.293   2.119 -0.9122 -1.3877  1.7274
   45MOL   H12328371   4.460   1.243   2.311  0.1621 -1.4698  0.6142
   45MOL   H12428372   4.295   1.279   2.366  1.0697  0.7655  0.5399
   45MOL   H12528373   4.368   1.034   2.213 -1.7653 -1.3744 -1.2985
   45MOL   H12628374   4.214   1.062   2.270 -0.0626 -0.0777 -0.2178
   45MOL   H12728375   4.312   0.922   2.426 -0.7080  0.1414  1.7988
   45MOL   H12828376   4.280   1.076   2.501  0.3684 -0.1900 -0.5111
   45MOL   H12928377   4.523   1.135   2.488 -2.5259  1.0379 -0.1247
   45MOL   C13028378   4.584   0.958   2.425 -0.7332  0.2937  0.1644
   45MOL   O13128379   4.559   0.850   2.374 -0.2522  0.1334 -0.1194
   45MOL   C13228380   4.728   1.004   2.447 -0.4509 -0.4101  0.3470
   45MOL   C13328381   4.813   0.986   2.322  0.0936 -0.7173  0.5132
   45MOL   C13428382   4.754   1.061   2.198 -0.1672 -0.3951  0.6932
   45MOL   C13528383   4.742   1.218   2.206 -1.1889 -0.4290  0.0083
   45MOL   C13628384   4.872   1.304   2.212  0.0358 -0.6022  0.2091
   45MOL   O13728385   4.972   1.269   2.270  0.0132 -0.0623  0.8919
   45MOL   N13828386   4.850   1.423   2.154 -0.7363 -0.5109 -0.6379
   45MOL   C13928387   4.942   1.538   2.155  0.5579  0.2384  0.4322
   45MOL   C14028388   4.938   1.620   2.019  0.0209  0.1967  0.2931
   45MOL   C14128389   4.807   1.698   1.995 -0.1019  0.7909 -0.0602
   45MOL   C14228390   4.829   1.800   1.883 -0.5160  0.4616  0.4867
   45MOL   N14328391   4.709   1.880   1.851 -0.1159  0.4264 -0.2285
   45MOL   H14428392   4.746   1.104   2.487  0.4141 -1.7280  3.4184
   45MOL   H14528393   4.770   0.939   2.523 -1.2936 -0.5404  0.7074
   45MOL   H14628394   4.913   1.028   2.335 -0.4390  0.5381  0.6230
   45MOL   H14728395   4.825   0.879   2.301  0.3274 -0.5566 -0.1965
   45MOL   H14828396   4.652   1.026   2.181 -0.4562  1.3772 -1.5816
   45MOL   H14928397   4.800   1.040   2.101 -1.3442 -3.6479  0.7669
   45MOL   H15028398   4.665   1.242   2.280 -1.9784 -0.7092 -0.7126
   45MOL   H15128399   4.687   1.240   2.114  0.2167  0.9460 -0.5142
   45MOL   H15228400   4.757   1.445   2.122 -1.5830 -0.8406  1.5711
   45MOL   H15328401   5.042   1.494   2.160  0.7779  0.7484  0.5766
   45MOL   H15428402   4.931   1.591   2.250 -1.7877 -0.8037  0.7795
   45MOL   H15528403   5.025   1.686   2.021  0.0650  0.3038 -2.6157
   45MOL   H15628404   4.948   1.565   1.926  1.8487  3.6574 -1.6700
   45MOL   H15728405   4.783   1.753   2.087 -0.9276  0.2306  0.0708
   45MOL   H15828406   4.724   1.628   1.984  0.3463  0.0540  1.0700
   45MOL   H15928407   4.871   1.757   1.791 -0.4215  1.0469  0.2564
   45MOL   H16028408   4.910   1.870   1.902 -0.3323  0.2899  0.3369
   45MOL   H16128409   4.622   1.836   1.874  0.2668 -0.3066 -0.1613
   45MOL   C16228410   4.704   2.007   1.822 -0.2073  0.2130 -0.5661
   45MOL   O16328411   4.811   2.067   1.797  0.3469 -0.5449  0.7724
   45MOL   C16428412   4.567   2.073   1.805  0.7327 -0.2071 -0.1744
   45MOL   C16528413   4.563   2.205   1.887 -0.3994 -0.6722  0.2394
   45MOL   C16628414   4.546   2.184   2.043  0.4221 -0.1535 -0.1428
   45MOL   C16728415   4.512   2.313   2.115  0.5595  0.1964  0.0845
   45MOL   C16828416   4.627   2.417   2.124  0.5104 -0.0960 -0.0576
   45MOL   O16928417   4.748   2.395   2.110 -0.2655  0.0123 -0.5802
   45MOL   N17028418   4.581   2.540   2.143 -0.1833  0.0252  0.4985
   45MOL   C17128419   4.661   2.662   2.161  0.3593  0.2641 -0.2232
   45MOL   C17228420   4.586   2.783   2.224 -0.0240  0.7038  0.1448
   45MOL   C17328421   4.678   2.905   2.226  0.0006 -0.0568 -0.8078
   45MOL   C17428422   4.592   3.024   2.276  0.0349  0.5513  0.2453
   45MOL   N17528423   4.544   3.006   2.415  0.3827  0.5068  0.5057
   45MOL   H17628424   4.555   2.086   1.698 -0.9497  0.4991  0.0900
   45MOL   H17728425   4.487   2.006   1.836  0.1008 -0.0679 -1.4921
   45MOL   H17828426   4.647   2.272   1.870 -1.1734  0.3107  0.2552
   45MOL   H17928427   4.479   2.259   1.844  0.6190  0.5729 -0.2144
   45MOL   H18028428   4.635   2.149   2.096  0.5861  1.3024  0.5594
   45MOL   H18128429   4.466   2.113   2.062 -0.2413  0.9791  1.3768
   45MOL   H18228430   4.487   2.276   2.215  2.2397 -2.3811 -0.3926
   45MOL   H18328431   4.427   2.360   2.067 -1.0010 -1.7511  0.8620
   45MOL   H18428432   4.480   2.542   2.145 -0.2224 -1.6050  1.2814
   45MOL   H18528433   4.701   2.680   2.061  0.5282 -0.5524 -0.3053
   45MOL   H18628434   4.746   2.650   2.228  0.7542 -0.5337 -0.8617
   45MOL   H18728435   4.507   2.800   2.151  0.8724  0.2498 -0.9249
   45MOL   H18828436   4.561   2.756   2.327 -0.2753  0.4488  0.0169
   45MOL   H18928437   4.722   2.932   2.130 -1.1484  1.5654 -0.9018
   45MOL   H19028438   4.756   2.883   2.300 -1.4663  0.0466  0.8140
   45MOL   H19128439   4.505   3.022   2.211  0.8344  0.7324 -0.8296
   45MOL   H19228440   4.653   3.114   2.269 -0.4456  0.9134  0.6613
   45MOL   H19328441   4.461   2.950   2.423 -0.5967  1.4583 -2.4160
   45MOL   C19428442   4.625   3.019   2.515 -0.4690 -0.4396  0.3060
   45MOL   O19528443   4.744   3.066   2.504  0.1527 -0.0535  0.9200
   45MOL   C19628444   4.575   2.961   2.650  0.1561 -0.1308 -0.0888
   45MOL   C19728445   4.569   3.072   2.763  0.5583 -0.1707  0.2825
   45MOL   C19828446   4.509   3.008   2.898  0.5168  0.2187  0.0034
   45MOL   C19928447   4.508   3.102   3.018  0.8594 -0.0818  0.4855
   45MOL   C20028448   4.396   3.206   3.020 -0.0590 -0.1941  0.4711
   45MOL   O20128449   4.342   3.255   2.923 -0.1156 -0.2357 -0.1810
   45MOL   N20228450   4.358   3.243   3.146 -0.3145 -0.6690  0.2934
   45MOL   C20328451   4.241   3.319   3.184 -0.3476 -0.1599  0.1946
   45MOL   C20428452   4.138   3.212   3.219  0.6097 -0.7216  0.4150
   45MOL   C20528453   4.001   3.261   3.277 -0.4384 -0.2060  0.2169
   45MOL   C20628454   3.924   3.142   3.322  0.4602  0.2708 -0.2748
   45MOL   N20728455   3.787   3.178   3.363  0.0938 -0.8507 -0.8787
   45MOL   H20828456   4.474   2.924   2.631  0.0854 -1.3328  2.4954
   45MOL   H20928457   4.639   2.877   2.676  2.4290  1.7050  0.4035
   45MOL   H21028458   4.662   3.125   2.781 -0.0044  2.5546 -4.0157
   45MOL   H21128459   4.498   3.150   2.736  2.6434  1.5013 -0.4881
   45MOL   H21228460   4.582   2.933   2.929 -0.4840 -1.2020 -0.9715
   45MOL   H21328461   4.418   2.956   2.869  1.1737 -2.2016  2.1527
   45MOL   H21428462   4.607   3.147   3.025 -0.4759  2.7285  1.9489
   45MOL   H21528463   4.499   3.048   3.112  1.7524 -1.7546 -0.3578
   45MOL   H21628464   4.424   3.209   3.214  0.5461  1.0059  0.3238
   45MOL   H21728465   4.197   3.379   3.104 -1.1913  0.0749  0.8239
   45MOL   H21828466   4.273   3.380   3.269 -0.6238  2.8692 -1.8287
   45MOL   H21928467   4.113   3.151   3.133 -0.8923 -0.8385  0.9217
   45MOL   H22028468   4.186   3.140   3.285  0.0738 -0.7297  0.7974
   45MOL   H22128469   3.945   3.302   3.193  1.1130  2.7014  0.5369
   45MOL   H22228470   3.998   3.333   3.358 -2.2200  0.7677 -0.6916
   45MOL   H22328471   3.978   3.082   3.395 -0.0891 -0.2586 -0.3070
   45MOL   H22428472   3.903   3.079   3.236 -1.2737  0.9739 -0.3729
   45MOL   H22528473   3.722   3.219   3.298  0.3365 -1.8570 -1.7587
   45MOL   C22628474   3.745   3.160   3.490 -0.6841 -0.2397  0.0038
   45MOL   O22728475   3.803   3.097   3.580 -0.2832 -0.1685  0.2575
   45MOL   C22828476   3.619   3.245   3.523  0.4634 -0.4071  0.6180
   45MOL   C22928477   3.602   3.286   3.669 -0.5202 -0.4814  0.2754
   45MOL   C23028478   3.633   3.434   3.692 -0.1792  0.2767  0.1392
   45MOL   C23128479   3.616   3.467   3.841  0.4031 -1.0237 -0.0892
   45MOL   C23228480   3.747   3.448   3.926 -0.6609  0.4717 -0.1290
   45MOL   O23328481   3.852   3.498   3.888 -0.7115 -0.0064 -0.3563
   45MOL   N23428482   3.730   3.372   4.032  0.0378  0.2765  0.1864
   45MOL   C23528483   3.844   3.303   4.084 -0.2351  0.0235  0.5882
   45MOL   C23628484   3.875   3.170   4.005 -0.7925 -0.5216  0.1759
   45MOL   C23728485   3.959   3.075   4.096 -0.4857 -0.6175  0.5517
   45MOL   C23828486   4.006   2.946   4.025  0.0334  0.4559 -0.5516
   45MOL   N23928487   4.092   2.859   4.101  0.0936  0.5062 -0.5125
   45MOL   H24028488   3.612   3.327   3.451 -0.8379  0.4803  1.7479
   45MOL   H24128489   3.537   3.175   3.509 -2.6264  3.2257 -0.2712
   45MOL   H24228490   3.500   3.273   3.706 -0.0865 -0.9510  1.3153
   45MOL   H24328491   3.659   3.225   3.740  0.4264 -0.3551 -0.3726
   45MOL   H24428492   3.577   3.489   3.616 -1.3224 -2.5172 -1.1057
   45MOL   H24528493   3.738   3.446   3.667 -0.5604  1.8328 -0.7934
   45MOL   H24628494   3.519   3.428   3.873 -1.0551  0.0562 -3.0523
   45MOL   H24728495   3.605   3.573   3.860 -0.0090 -1.1684  0.5090
   45MOL   H24828496   3.637   3.338   4.052  0.3317 -0.3286  0.5408
   45MOL   H24928497   3.825   3.269   4.186  2.0883 -2.6465  0.1958
   45MOL   H25028498   3.940   3.355   4.081 -1.6070  2.6598  0.5866
   45MOL   H25128499   3.786   3.132   3.954 -0.2246  1.1961 -2.1364
   45MOL   H25228500   3.933   3.196   3.917 -1.8229  1.6965  0.1207
   45MOL   H25328501   3.903   3.044   4.185  0.3681  1.2976  1.7914
   45MOL   H25428502   4.041   3.133   4.140  1.3113 -2.4330 -0.3530
   45MOL   H25528503   4.060   2.976   3.935 -1.9219  2.0525 -1.2283
   45MOL   H25628504   3.922   2.881   4.001  2.3881 -3.6792  1.8208
   45MOL   H25728505   4.186   2.896   4.107  0.2188 -0.1808  2.1214
   45MOL   C25828506   4.065   2.738   4.160 -0.6125  0.6540 -0.2576
   45MOL   O25928507   3.956   2.682   4.162 -0.1069  0.2225  0.7101
   45MOL   C26028508   4.191   2.662   4.222 -0.2861  0.0865 -0.1468
   45MOL   C26128509   4.172   2.517   4.273  0.0896 -0.1619 -0.4934
   45MOL   C26228510   4.128   2.406   4.174 -0.1409 -0.3642 -0.1824
   45MOL   C26328511   4.112   2.265   4.240  0.4470  0.7909  0.7780
   45MOL   C26428512   3.989   2.263   4.333  0.1018  0.0154 -0.7755
   45MOL   O26528513   3.881   2.220   4.292 -0.0198 -0.1245  0.3897
   45MOL   N26628514   4.011   2.309   4.454  0.8775  0.9717 -0.1697
   45MOL   C26728515   3.913   2.328   4.560 -0.6037 -0.3005  0.4864
   45MOL   C26828516   3.772   2.380   4.516  0.5870 -0.0841  0.2052
   45MOL   C26928517   3.782   2.512   4.433  0.0251  0.1563 -0.1318
   45MOL   C27028518   3.648   2.545   4.363 -0.0597 -0.6705 -0.4226
   45MOL   N27128519   3.671   2.661   4.273  0.5579 -0.1773  0.0057
   45MOL   H27228520   4.244   2.647   4.128  0.7366 -0.5796  0.5230
   45MOL   H27328521   4.253   2.722   4.289 -0.2960 -0.3748  0.2709
   45MOL   H27428522   4.257   2.466   4.318 -1.3909 -0.4788  2.0299
   45MOL   H27528523   4.095   2.522   4.351  1.4025 -1.7030  0.9357
   45MOL   H27628524   4.200   2.391   4.094  2.4358  0.9375  1.8061
   45MOL   H27728525   4.034   2.433   4.126 -0.0774 -0.0981 -0.1599
   45MOL   H27828526   4.200   2.227   4.291  0.4845  0.3286  0.3697
   45MOL   H27928527   4.095   2.178   4.177 -1.2530  0.5150  1.5696
   45MOL   H28028528   4.091   2.369   4.460  0.8195  1.0746 -0.4200
   45MOL   H28128529   3.964   2.394   4.630 -1.3640 -0.7128  1.4438
   45MOL   H28228530   3.920   2.236   4.617  0.4531  0.4583  1.6065
   45MOL   H28328531   3.716   2.302   4.465  1.0747  1.5369 -2.8769
   45MOL   H28428532   3.721   2.403   4.610 -0.6558 -0.1477 -0.4438
   45MOL   H28528533   3.856   2.500   4.354 -2.0735  1.7420 -2.4195
   45MOL   H28628534   3.810   2.593   4.500 -1.7199 -1.2364  2.3910
   45MOL   H28728535   3.578   2.571   4.443  0.4967  1.0329 -0.4744
   45MOL   H28828536   3.608   2.462   4.304 -2.7848 -0.3718  0.9088
   45MOL   H28928537   3.747   2.656   4.206 -0.8967 -2.2994 -1.5367
   45MOL   C29028538   3.586   2.764   4.256  0.0247 -0.1297 -0.6586
   45MOL   O29128539   3.484   2.773   4.321 -0.4623 -0.3349 -0.5235
   45MOL   C29228540   3.616   2.871   4.153  1.0321 -0.1953 -0.2841
   45MOL   C29328541   3.483   2.942   4.116  0.3776  0.2147  0.2264
   45MOL   C29428542   3.518   3.041   4.003 -0.1894 -0.7238  0.1104
   45MOL   C29528543   3.400   3.125   3.963 -0.7232  0.1128 -0.7409
   45MOL   C29628544   3.349   3.233   4.071 -0.3341  0.0615  0.3034
   45MOL   O29728545   3.427   3.271   4.162  0.0411 -0.2394  0.4776
   45MOL   N29828546   3.222   3.266   4.067  0.1650 -0.1612 -0.8055
   45MOL   C29928547   3.158   3.337   4.169  1.1421  0.0300 -0.3511
   45MOL   C30028548   3.027   3.389   4.113 -0.0589 -0.2043 -0.3138
   45MOL   C30128549   2.923   3.276   4.122 -0.2724 -0.6544 -0.3017
   45MOL   C30228550   2.796   3.299   4.044  0.7228 -0.6017 -0.0802
   45MOL   N30328551   2.825   3.318   3.900  0.5837 -0.0477 -0.5800
   45MOL   H30428552   3.680   2.942   4.204 -0.9451 -0.0003  2.0425
   45MOL   H30528553   3.675   2.836   4.068 -1.0365 -3.6670 -0.4202
   45MOL   H30628554   3.409   2.874   4.075  2.4500 -2.6289  1.0411
   45MOL   H30728555   3.442   2.988   4.206  0.4033 -0.0516  0.3746
   45MOL   H30828556   3.565   2.994   3.916 -1.3379 -2.1230  0.2197
   45MOL   H30928557   3.596   3.108   4.039  1.3770 -2.6661  0.4418
   45MOL   H31028558   3.312   3.070   3.930  0.1970 -1.2787 -0.8819
   45MOL   H31128559   3.425   3.182   3.873  1.0787  1.0202  0.3057
   45MOL   H31228560   3.173   3.237   3.984  0.2275  0.6325 -1.1294
   45MOL   H31328561   3.219   3.427   4.169 -2.3840  2.4947 -0.5441
   45MOL   H31428562   3.166   3.299   4.271 -0.0197 -1.3929 -0.7697
   45MOL   H31528563   2.999   3.468   4.182  1.1345 -0.1934  0.1710
   45MOL   H31628564   3.047   3.425   4.011  2.2162 -0.1078  0.1407
   45MOL   H31728565   2.890   3.275   4.226 -0.9745 -0.2394 -0.5128
   45MOL   H31828566   2.963   3.179   4.091  0.6993 -0.7136  1.1311
   45MOL   H31928567   2.735   3.382   4.079  0.5856  0.3896 -2.5720
   45MOL   H32028568   2.729   3.213   4.045 -0.9366  0.6590 -1.0973
   45MOL   H32128569   2.913   3.287   3.860  1.4840  0.4672  0.9700
   45MOL   C32228570   2.744   3.377   3.817 -0.4557 -0.7067  0.0557
   45MOL   O32328571   2.622   3.398   3.841 -0.3621  0.1248 -0.0150
   45MOL   C32428572   2.788   3.424   3.681  0.1609 -1.1683  0.4921
   45MOL   C32528573   2.705   3.371   3.562 -0.2449  0.3006 -0.2421
   45MOL   C32628574   2.685   3.214   3.555 -0.3428 -0.0944 -0.9921
   45MOL   C32728575   2.827   3.154   3.531  0.5798  0.3903  0.1642
   45MOL   C32828576   2.821   3.024   3.448 -0.2460  0.5967 -0.3497
   45MOL   O32928577   2.778   3.020   3.336  0.1926 -0.4439  0.3307
   45MOL   N33028578   2.876   2.918   3.512 -1.0273 -0.2544 -0.3276
   45MOL   C33128579   2.900   2.793   3.456  0.3421  0.2176 -0.0760
   45MOL   C33228580   2.884   2.683   3.564 -0.1758  0.4655  0.5480
   45MOL   C33328581   2.908   2.540   3.501  0.3769 -0.0188  0.0372
   45MOL   C33428582   2.890   2.424   3.590  0.0996  0.3735 -0.1075
   45MOL   N33528583   2.906   2.299   3.530  0.1241  0.1781  0.4496
   45MOL   H33628584   2.788   3.533   3.679  3.2277 -1.1294 -0.8630
   45MOL   H33728585   2.888   3.387   3.659  0.6157 -0.2758  1.0206
   45MOL   H33828586   2.616   3.432   3.550 -1.1590 -1.3187 -2.0338
   45MOL   H33928587   2.755   3.399   3.470  0.6723 -0.3141  0.0584
   45MOL   H34028588   2.604   3.197   3.485 -1.7814  1.8899  0.1347
   45MOL   H34128589   2.637   3.167   3.641  1.8314  1.2809  1.0229
   45MOL   H34228590   2.878   3.135   3.626 -1.3199 -0.7957  0.9870
   45MOL   H34328591   2.886   3.220   3.468 -0.1207 -1.0222 -2.0005
   45MOL   H34428592   2.893   2.928   3.611 -5.1176  1.1670  0.3243
   45MOL   H34528593   3.000   2.783   3.414  0.5748 -0.2933  0.5849
   45MOL   H34628594   2.832   2.769   3.375  0.2859 -1.0406  0.3285
   45MOL   H34728595   2.959   2.700   3.641 -1.2902  1.1593  1.4973
   45MOL   H34828596   2.794   2.700   3.623 -0.4771  0.7586  0.0082
   45MOL   H34928597   3.008   2.547   3.459  0.9038 -0.0528  1.2654
   45MOL   H35028598   2.838   2.527   3.419 -0.4320  2.8893  0.2126
   45MOL   H35128599   2.792   2.434   3.637 -0.2173  2.3592 -1.1164
   45MOL   H35228600   2.957   2.433   3.675 -0.7268 -0.0890  0.6001
   45MOL   H35328601   2.847   2.281   3.450  1.2036 -1.8594  0.0849
   45MOL   C35428602   2.976   2.202   3.573  0.4879 -0.4085  0.4226
   45MOL   O35528603   3.046   2.209   3.671  0.0025 -0.4964 -0.2373
   45MOL   C35628604   2.964   2.074   3.493 -0.1659 -0.6326 -1.0130
   45MOL   C35728605   3.070   1.969   3.526  0.4600  0.1750  0.4424
   45MOL   C35828606   3.212   1.974   3.467  1.4618  0.4722  0.9429
   45MOL   C35928607   3.308   1.875   3.532 -0.1928 -0.0674  0.0878
   45MOL   C36028608   3.361   1.924   3.668 -1.0078 -1.3689  0.4651
   45MOL   O36128609   3.290   2.005   3.726 -0.0861 -0.6596 -0.0961
   45MOL   N36228610   3.491   1.889   3.695  0.2097  0.0139 -0.0580
   45MOL   C36328611   3.579   1.937   3.799 -0.3790  0.2892 -0.3682
   45MOL   C36428612   3.705   1.858   3.802 -0.2128 -0.2955 -0.2533
   45MOL   C36528613   3.801   1.920   3.911 -0.1032  0.1964  0.2161
   45MOL   C36628614   3.943   1.871   3.915  0.0846 -0.4663  0.1569
   45MOL   N36728615   3.953   1.735   3.878  0.4426 -0.1988 -0.0572
   45MOL   H36828616   2.863   2.035   3.505  0.9689 -3.2667  0.2222
   45MOL   H36928617   2.958   2.089   3.385 -0.0429  0.8510 -0.8186
   45MOL   H37028618   3.058   1.961   3.635 -1.5745  3.3982  0.5305
   45MOL   H37128619   3.031   1.872   3.497 -1.2158  0.8399  0.3724
   45MOL   H37228620   3.250   2.075   3.475 -0.5968  1.5152 -1.7407
   45MOL   H37328621   3.212   1.955   3.360 -2.8108 -0.3634  0.9878
   45MOL   H37428622   3.394   1.860   3.466  0.2907 -2.5966  1.2297
   45MOL   H37528623   3.265   1.782   3.568 -0.6746  0.3973  0.7221
   45MOL   H37628624   3.523   1.808   3.645 -0.6629 -0.0900 -0.4601
   45MOL   H37728625   3.526   1.928   3.894 -1.3914  2.3124 -0.7140
   45MOL   H37828626   3.608   2.040   3.777  1.1091 -0.1998 -0.7021
   45MOL   H37928627   3.674   1.757   3.827 -2.5835  0.1650 -1.1856
   45MOL   H38028628   3.751   1.850   3.703  1.0957 -0.5203  0.3625
   45MOL   H38128629   3.755   1.911   4.009 -0.0289  1.4792  0.3774
   45MOL   H38228630   3.798   2.028   3.899 -4.0615  0.0697 -0.9813
   45MOL   H38328631   3.989   1.890   4.012  0.7647 -0.5698 -0.1408
   45MOL   H38428632   3.997   1.936   3.846  0.7805 -0.5145  0.6515
   45MOL   H38528633   3.887   1.671   3.919 -0.8450 -1.0959 -3.3746
   45MOL   C38628634   4.022   1.679   3.779  0.2703 -0.2141  0.0669
   45MOL   O38728635   4.107   1.745   3.720 -0.3743  0.0431  0.1384
   45MOL   C38828636   4.001   1.532   3.750  0.7094  0.2680  0.3576
   45MOL   C38928637   4.134   1.468   3.693  0.2393  0.2718  0.2764
   45MOL   C39028638   4.241   1.449   3.797  0.5230 -0.2842 -0.1755
   45MOL   C39128639   4.365   1.371   3.753  0.2456 -0.2794  0.3119
   45MOL   C39228640   4.495   1.404   3.831 -0.7121 -0.0212 -0.1629
   45MOL   O39328641   4.489   1.505   3.908 -0.3910  0.6311  0.0867
   45MOL   N39428642   4.596   1.316   3.815 -0.1970  0.2004 -0.0215
   45MOL   C39528643   4.724   1.335   3.870 -0.0495 -0.1861 -0.2494
   45MOL   C39628644   4.760   1.269   4.002 -0.5960 -0.0101  0.6027
   45MOL   C39728645   4.912   1.298   4.044 -0.8892 -0.4394  0.1875
   45MOL   C39828646   4.955   1.263   4.184  0.5636  1.0507  0.4350
   45MOL   N39928647   4.967   1.126   4.213 -0.4669  1.0381  0.3741
   45MOL   H40028648   3.978   1.491   3.848 -0.6830 -1.6644 -0.7562
   45MOL   H40128649   3.915   1.508   3.688  1.4190 -0.6809 -0.2720
   45MOL   H40228650   4.109   1.373   3.645  3.6646 -1.2563  1.3214
   45MOL   H40328651   4.181   1.522   3.611  1.4689 -0.7043  0.3225
   45MOL   H40428652   4.210   1.398   3.888  2.3757  1.4759  1.4960
   45MOL   H40528653   4.272   1.546   3.836  0.6792  0.0878 -1.2296
   45MOL   H40628654   4.388   1.396   3.649  1.9082  1.9793  1.1935
   45MOL   H40728655   4.338   1.265   3.748 -0.1229 -0.1517 -0.5954
   45MOL   H40828656   4.581   1.232   3.761  0.3827  0.6485 -0.8961
   45MOL   H40928657   4.729   1.444   3.871 -0.0578 -0.1688 -1.5232
   45MOL   H41028658   4.791   1.293   3.795 -1.1754  1.5418 -2.2757
   45MOL   H41128659   4.698   1.295   4.088 -1.1585 -1.1341  0.5445
   45MOL   H41228660   4.765   1.161   3.992 -2.2420 -0.1161  0.8252
   45MOL   H41328661   4.938   1.404   4.046  1.3791 -1.0020  1.8123
   45MOL   H41428662   4.988   1.254   3.980 -0.2589 -0.7164  1.1145
   45MOL   H41528663   4.892   1.302   4.264 -0.0685  1.6651 -0.3545
   45MOL   H41628664   5.058   1.297   4.189  0.7446  0.7156 -0.9415
   45MOL   H41728665   4.973   1.061   4.136 -1.0264  2.5433 -0.9641
   45MOL   C41828666   4.976   1.077   4.340  0.0752 -0.3361  0.2766
   45MOL   O41928667   4.973   1.152   4.435 -0.7607 -0.0313 -0.0189
   45MOL   C42028668   5.004   0.929   4.355  0.2966  0.2759 -0.4904
   45MOL   C42128669   5.107   0.896   4.461  0.1288  0.3204 -0.0001
   45MOL   C42228670   5.251   0.927   4.419 -0.2412 -0.4897  0.1384
   45MOL   C42328671   5.342   0.897   4.546  0.1644 -0.4802  0.3699
   45MOL   C42428672   5.485   0.939   4.526 -0.2259 -0.6980 -1.2571
   45MOL   O42528673   5.546   0.927   4.417  0.0246  0.2558  0.1643
   45MOL   N42628674   5.552   0.986   4.632  0.0522  0.6488  0.1524
   45MOL   C42728675   5.693   1.008   4.639  0.4506 -0.8996 -0.3159
   45MOL   C42828676   5.753   1.069   4.768 -1.0662 -0.3297 -0.1430
   45MOL   C42928677   5.683   1.196   4.826  0.5268  0.1449  0.3537
   45MOL   C43028678   5.747   1.264   4.945 -0.1040  0.0663 -0.2566
   45MOL   N43128679   5.724   1.411   4.943 -0.5508  0.0502 -0.9022
   45MOL   H43228680   4.911   0.889   4.394  1.0601  1.5850  2.8674
   45MOL   H43328681   5.022   0.883   4.258 -0.7405 -0.5212 -0.3139
   45MOL   H43428682   5.086   0.943   4.557  1.0106  1.6907 -0.4687
   45MOL   H43528683   5.089   0.789   4.474  0.2695  0.2933 -0.0296
   45MOL   H43628684   5.257   1.027   4.375  0.9129 -1.8464 -2.9317
   45MOL   H43728685   5.283   0.865   4.335  2.7090 -1.4181  1.9175
   45MOL   H43828686   5.343   0.790   4.568  0.3579 -0.3474  1.0030
   45MOL   H43928687   5.302   0.961   4.624 -0.9323 -0.8378  0.1051
   45MOL   H44028688   5.505   0.975   4.720  2.1393  1.5287  1.3955
   45MOL   H44128689   5.706   1.085   4.564  0.8484 -0.5101  0.1513
   45MOL   H44228690   5.738   0.915   4.603 -0.4178 -1.1016 -0.8949
   45MOL   H44328691   5.757   1.004   4.855  2.1539 -0.6378 -0.4845
   45MOL   H44428692   5.857   1.089   4.742 -0.3675 -1.4316  1.6737
   45MOL   H44528693   5.583   1.157   4.843 -0.0389  1.9359  1.2211
   45MOL   H44628694   5.675   1.265   4.742  4.2301 -2.3728 -2.2182
   45MOL   H44728695   5.850   1.230   4.945 -0.4074 -0.9217  1.3132
   45MOL   H44828696   5.701   1.219   5.033  0.7254 -0.1759  0.0565
   45MOL   H44928697   5.753   1.466   4.864 -0.0977  0.2350 -0.6078
   45MOL   C45028698   5.642   1.467   5.034  0.2681 -0.6284 -0.4208
   45MOL   O45128699   5.621   1.421   5.146  0.0231  0.1461 -0.0026
   45MOL   C45228700   5.592   1.606   4.984  0.1005 -0.0026 -0.1333
   45MOL   C45328701   5.546   1.705   5.097  0.0228 -0.1681  0.3664
   45MOL   C45428702   5.415   1.666   5.170  0.0241  0.1953  0.8263
   45MOL   C45528703   5.375   1.750   5.293 -0.9732 -0.0578  0.1992
   45MOL   C45628704   5.344   1.886   5.239  0.6747 -0.0591  0.2109
   45MOL   O45728705   5.257   1.902   5.152 -0.5693 -0.3405  0.0717
   45MOL   N45828706   5.420   1.986   5.290  0.4464 -0.1448  0.1210
   45MOL   C45928707   5.430   2.119   5.226  0.6458 -0.1814 -0.1241
   45MOL   C46028708   5.326   2.214   5.282 -1.1815 -0.3784 -0.1329
   45MOL   C46128709   5.305   2.333   5.194  0.0386  0.3242 -0.6661
   45MOL   C46228710   5.185   2.417   5.241 -0.2413  0.1372 -0.3993
   45MOL   N46328711   5.152   2.524   5.148  0.2551 -0.4327  1.0502
   45MOL   H46428712   5.662   1.651   4.913 -1.5797  1.1911 -1.0552
   45MOL   H46528713   5.509   1.589   4.917  0.2136 -0.1795 -0.2296
   45MOL   H46628714   5.627   1.711   5.170  0.5982  0.8867 -0.3521
   45MOL   H46728715   5.552   1.802   5.047  0.5141 -0.1207  0.5090
   45MOL   H46828716   5.417   1.569   5.219  2.4253  1.0993  2.6213
   45MOL   H46928717   5.337   1.654   5.095 -1.0413  1.7126  1.6435
   45MOL   H47028718   5.460   1.756   5.361 -1.3915 -0.4575  0.7608
   45MOL   H47128719   5.291   1.698   5.338 -0.8679 -1.1560 -0.8303
   45MOL   H47228720   5.470   1.969   5.376  0.4643  0.6188  0.2682
   45MOL   H47328721   5.420   2.115   5.117  2.4194  1.8091 -0.3966
   45MOL   H47428722   5.530   2.160   5.235  0.8672 -0.0439 -2.8167
   45MOL   H47528723   5.232   2.161   5.298 -0.8459 -0.3753  2.1166
   45MOL   H47628724   5.352   2.247   5.383  0.6216 -0.1706 -0.6517
   45MOL   H47728725   5.287   2.295   5.094 -1.2413  0.7222 -0.6018
   45MOL   H47828726   5.390   2.401   5.194  0.6356 -0.4190 -0.5884
   45MOL   H47928727   5.210   2.457   5.339  1.5444  0.2566 -0.8914
   45MOL   H48028728   5.091   2.363   5.251 -1.0179  1.6688  0.8406
   45MOL   H48128729   5.060   2.525   5.107  0.8139 -0.7166 -0.2453
   45MOL   C48228730   5.223   2.633   5.124  0.6726 -0.3126  0.0602
   45MOL   O48328731   5.327   2.658   5.180 -0.3232 -0.4530 -0.2211
   45MOL   C48428732   5.161   2.731   5.026 -0.9146  0.4346  0.4984
   45MOL   C48528733   5.241   2.797   4.918  0.0923 -0.2761  0.5589
   45MOL   C48628734   5.304   2.701   4.818 -0.3929  0.1651 -0.5174
   45MOL   C48728735   5.398   2.767   4.709 -0.5756  0.2708  0.2669
   45MOL   C48828736   5.400   2.688   4.581 -0.1336 -0.1347 -0.2346
   45MOL   O48928737   5.314   2.612   4.551 -0.0173  0.2623 -0.3197
   45MOL   N49028738   5.503   2.706   4.497 -0.1040 -0.1626 -0.3943
   45MOL   C49128739   5.516   2.639   4.370  0.2657  0.4579  0.0003
   45MOL   C49228740   5.572   2.735   4.262  0.3357 -0.1385 -0.6607
   45MOL   C49328741   5.454   2.807   4.199 -0.0166 -0.4656  0.3652
   45MOL   C49428742   5.509   2.918   4.101 -0.9523  0.5757 -0.5920
   45MOL   N49528743   5.406   2.996   4.040 -0.7867 -0.3148 -0.5683
   45MOL   H49628744   5.078   2.675   4.984 -0.6312 -0.2487  0.8258
   45MOL   H49728745   5.126   2.815   5.086 -0.6577  1.5187 -0.8618
   45MOL   H49828746   5.183   2.862   4.853 -1.6434 -0.9913  1.3810
   45MOL   H49928747   5.323   2.857   4.957  0.2929 -2.3009  3.3925
   45MOL   H50028748   5.226   2.635   4.778 -0.2202  0.2664 -1.0173
   45MOL   H50128749   5.369   2.636   4.877 -0.3907  0.4887 -0.1625
   45MOL   H50228750   5.496   2.800   4.745  0.7933 -1.6953 -1.5613
   45MOL   H50328751   5.367   2.868   4.681  1.1499  0.8363  0.3325
   45MOL   H50428752   5.578   2.765   4.531 -1.3662  0.1065  2.0820
   45MOL   H50528753   5.431   2.579   4.339 -2.3718  2.9438  2.0860
   45MOL   H50628754   5.597   2.572   4.398  0.2466 -0.2187 -1.5297
   45MOL   H50728755   5.657   2.797   4.290  0.2479 -0.2172 -0.2142
   45MOL   H50828756   5.632   2.667   4.201 -1.7008 -0.4080 -2.4093
   45MOL   H50928757   5.387   2.854   4.271  0.5642 -0.0598  0.6451
   45MOL   H51028758   5.404   2.735   4.133 -2.3775 -1.6319  3.3254
   45MOL   H51128759   5.573   2.870   4.027  0.0465  0.4312  0.3492
   45MOL   H51228760   5.571   2.997   4.145 -0.3693  0.1721 -0.6834
   45MOL   H51328761   5.318   2.997   4.088 -0.6465  0.1987 -0.3144
   45MOL   C51428762   5.417   3.045   3.919  0.2712 -0.1227  0.1259
   45MOL   O51528763   5.517   3.037   3.848 -0.1667  0.7618  0.3930
   45MOL   C51628764   5.290   3.104   3.857  0.2539 -0.0000 -0.3998
   45MOL   C51728765   5.273   3.075   3.712 -0.0720  0.6267 -0.2137
   45MOL   C51828766   5.196   3.175   3.630  0.6259  0.3713  1.3222
   45MOL   C51928767   5.186   3.158   3.483 -0.3048  0.3586  0.0790
   45MOL   C52028768   5.073   3.240   3.427  0.4201  0.7069 -0.2172
   45MOL   O52128769   4.956   3.215   3.453 -0.3651 -0.2735  0.1031
   45MOL   N52228770   5.104   3.350   3.345 -0.0871  0.1930 -0.1806
   45MOL   C52328771   5.006   3.451   3.307  0.5148  0.0947 -0.4942
   45MOL   C52428772   5.041   3.502   3.161  0.9083 -0.0988 -0.6788
   45MOL   C52528773   4.934   3.605   3.116 -0.5359 -0.2810 -0.5432
   45MOL   C52628774   4.960   3.658   2.973 -0.1470  0.4290 -1.0365
   45MOL   N52728775   4.849   3.728   2.916  0.2172  0.6977 -0.1608
   45MOL   H52828776   5.197   3.074   3.905 -0.0482  1.0280 -0.3198
   45MOL   H52928777   5.303   3.211   3.874  1.5152  0.0789 -1.7513
   45MOL   H53028778   5.365   3.063   3.654 -0.5978  1.9851 -1.3591
   45MOL   H53128779   5.228   2.977   3.695  0.6256  0.1238  0.7877
   45MOL   H53228780   5.244   3.272   3.642  1.5958  0.2120 -1.1691
   45MOL   H53328781   5.092   3.180   3.664  0.5841 -1.4053  1.5320
   45MOL   H53428782   5.172   3.052   3.463 -1.4417  0.7815 -1.4394
   45MOL   H53528783   5.283   3.179   3.439 -0.6294  0.9153 -0.3700
   45MOL   H53628784   5.199   3.348   3.312 -0.1093 -1.8842 -0.1824
   45MOL   H53728785   5.010   3.545   3.363 -1.1609  1.7230 -3.0120
   45MOL   H53828786   4.903   3.416   3.302  0.3659  0.4308  0.1172
   45MOL   H53928787   5.138   3.549   3.150  0.2776  1.5576  0.5965
   45MOL   H54028788   5.049   3.412   3.100  0.9430 -0.0374 -0.7643
   45MOL   H54128789   4.930   3.694   3.179  2.4303 -0.8491  0.5765
   45MOL   H54228790   4.835   3.560   3.115 -0.1309 -1.2937  1.5540
   45MOL   H54328791   4.986   3.574   2.909  0.2425 -0.2368 -0.0255
   45MOL   H54428792   5.029   3.742   2.976 -0.9741  1.0788  0.0404
   45MOL   H54528793   4.756   3.714   2.954  0.2030 -0.8244 -0.7036
   45MOL   C54628794   4.870   3.830   2.826 -0.3237 -0.2911 -0.2257
   45MOL   O54728795   4.980   3.851   2.768  0.0146  0.8573 -0.0324
   45MOL   C54828796   4.754   3.923   2.808  0.2555  0.3247 -0.8578
   45MOL   C54928797   4.734   3.958   2.655 -0.7084  0.2393 -0.1779
   45MOL   C55028798   4.707   3.834   2.563  0.1112 -0.0561  0.4567
   45MOL   C55128799   4.819   3.745   2.497 -0.4370  0.2873 -0.5446
   45MOL   C55228800   4.898   3.802   2.380 -0.6788  0.1243  0.6606
   45MOL   O55328801   4.894   3.921   2.351  0.0822  0.4424  0.6273
   45MOL   N55428802   4.968   3.711   2.307 -0.3461  0.4330  0.4765
   45MOL   C55528803   5.023   3.758   2.182  0.3903 -0.1354  0.4797
   45MOL   C55628804   5.064   3.642   2.087 -0.1347 -0.0367 -0.3327
   45MOL   C55728805   5.180   3.560   2.146  0.0727  0.3227 -1.0310
   45MOL   C55828806   5.224   3.442   2.056  0.1185  0.2740 -0.2744
   45MOL   N55928807   5.324   3.370   2.127  0.5607 -0.8408  0.3598
   45MOL   H56028808   4.661   3.880   2.845  0.4398  0.2541 -0.4727
   45MOL   H56128809   4.785   4.015   2.859  0.4633 -0.4946  0.5370
   45MOL   H56228810   4.649   4.026   2.660  0.1539  1.4034 -1.1090
   45MOL   H56328811   4.815   4.014   2.609 -0.1435 -0.3725  0.0521
   45MOL   H56428812   4.646   3.871   2.481 -0.2922 -1.5560  0.0509
   45MOL   H56528813   4.633   3.770   2.612 -0.3892  0.1602 -0.0137
   45MOL   H56628814   4.771   3.662   2.447 -1.4808  0.2252  0.5243
   45MOL   H56728815   4.880   3.697   2.573 -0.7443 -2.4815 -2.0222
   45MOL   H56828816   4.980   3.615   2.336 -0.4954  0.3538  0.2758
   45MOL   H56928817   5.110   3.822   2.198 -1.1431  2.5091 -1.3035
   45MOL   H57028818   4.958   3.826   2.128 -0.6510 -0.5062  1.2529
   45MOL   H57128819   4.975   3.580   2.075  1.1235 -2.1387  0.8028
   45MOL   H57228820   5.088   3.677   1.986  1.2353 -3.5652 -1.3098
   45MOL   H57328821   5.147   3.522   2.243 -1.3141  1.9702 -0.8211
   45MOL   H57428822   5.260   3.630   2.170  2.3876 -2.2705 -0.9071
   45MOL   H57528823   5.264   3.489   1.967 -0.2929 -3.3341 -2.4602
   45MOL   H57628824   5.141   3.381   2.020  0.5095 -1.7846  2.1658
   45MOL   H57728825   5.379   3.423   2.193  0.5362  0.2634 -0.4933
   45MOL   C57828826   5.360   3.245   2.100 -0.1926 -0.7071  0.8094
   45MOL   O57928827   5.295   3.174   2.011  0.7394 -0.5769 -0.3793
   45MOL   C58028828   5.485   3.190   2.171  0.4677 -1.0648  0.4553
   45MOL   C58128829   5.500   3.042   2.110 -0.5930  0.4793 -0.6087
   45MOL   C58228830   5.621   2.948   2.168 -1.1167 -0.3041 -0.7184
   45MOL   C58328831   5.759   3.014   2.150 -0.7531  0.3507 -0.4839
   45MOL   C58428832   5.873   2.919   2.175  0.0356 -0.1594  0.1226
   45MOL   O58528833   5.853   2.806   2.215 -0.3845 -0.0604  0.1608
   45MOL   N58628834   5.999   2.954   2.146  0.2022 -0.1004 -0.5107
   45MOL   C58728835   6.112   2.867   2.154  0.0161  0.3631 -0.6195
   45MOL   C58828836   6.210   2.903   2.263 -0.7918  0.0162  0.2792
   45MOL   C58928837   6.155   2.934   2.406  0.3135  0.3717  1.1159
   45MOL   C59028838   6.267   2.942   2.509 -0.1221 -0.9025 -0.1094
   45MOL   N59128839   6.226   2.967   2.650 -0.0598 -0.0671 -0.6500
   45MOL   H59228840   5.567   3.255   2.140 -0.0786 -1.8252 -2.8228
   45MOL   H59328841   5.473   3.184   2.279 -0.0840 -0.6652  0.4166
   45MOL   H59428842   5.412   2.978   2.110 -0.3821  0.1150  2.6138
   45MOL   H59528843   5.522   3.049   2.004  0.1125 -1.9485 -0.6479
   45MOL   H59628844   5.617   2.856   2.110  2.0710 -0.9602  0.0321
   45MOL   H59728845   5.602   2.924   2.272  0.1817  1.7732  0.0296
   45MOL   H59828846   5.762   3.099   2.218 -0.6645 -0.4890  0.5725
   45MOL   H59928847   5.770   3.056   2.050  0.6134 -0.5689 -0.7397
   45MOL   H60028848   6.016   3.052   2.128  3.3303 -0.2364  1.4057
   45MOL   H60128849   6.176   2.863   2.066 -1.6557  0.7305 -1.8556
   45MOL   H60228850   6.084   2.763   2.172 -0.2402  0.7023  1.0733
   45MOL   H60328851   6.282   2.823   2.273 -0.5874 -0.0309 -1.4255
   45MOL   H60428852   6.265   2.984   2.215  0.0923 -1.2567 -0.8853
   45MOL   H60528853   6.080   2.866   2.446 -0.6077  0.6042 -0.1906
   45MOL   H60628854   6.111   3.033   2.394  0.6342  0.2588 -1.2374
   45MOL   H60728855   6.325   3.032   2.489 -0.3656 -0.6193  0.4521
   45MOL   H60828856   6.328   2.853   2.499  0.0498 -0.8494  0.4656
   45MOL   H60928857   6.233   3.065   2.677  1.3275 -0.0154 -1.1903
   45MOL   C61028858   6.211   2.892   2.758  0.1187 -0.1663  0.4478
   45MOL   O61128859   6.212   2.937   2.871  0.2176  0.5049  0.0467
   45MOL   C61228860   6.182   2.741   2.737  0.4964  0.3628 -0.2052
   45MOL   C61328861   6.200   2.655   2.875  0.4701 -0.3301  0.2544
   45MOL   C61428862   6.164   2.510   2.853  0.5024 -0.5130 -0.3570
   45MOL   C61528863   6.019   2.487   2.801 -0.2214  0.8303  0.4772
   45MOL   C61628864   5.977   2.336   2.819 -0.5180 -0.1022 -0.1307
   45MOL   O61728865   6.054   2.248   2.795  0.2043  0.2936 -0.0213
   45MOL   N61828866   5.852   2.317   2.868 -0.1684 -0.2070 -0.5779
   45MOL   C61928867   5.798   2.188   2.913 -0.4332 -0.5662 -0.0240
   45MOL   C62028868   5.863   2.163   3.050  0.3778 -0.0877  0.1630
   45MOL   C62128869   5.819   2.032   3.117 -0.0355 -0.1789 -0.2374
   45MOL   C62228870   5.887   1.980   3.246 -0.1089  0.3905  0.7453
   45MOL   N62328871   5.809   1.867   3.292  0.1741 -0.3622 -0.2174
   45MOL   H62428872   6.078   2.736   2.704  1.2422  0.5709 -2.6600
   45MOL   H62528873   6.254   2.694   2.670 -2.6153 -0.9061 -2.7919
   45MOL   H62628874   6.305   2.656   2.907  0.8015  0.9026 -0.8208
   45MOL   H62728875   6.145   2.702   2.956  1.0870  2.7644 -1.0329
   45MOL   H62828876   6.173   2.468   2.953  3.2308 -0.9389 -0.7559
   45MOL   H62928877   6.235   2.444   2.804 -0.5079 -3.0168  1.4644
   45MOL   H63028878   6.008   2.511   2.695 -2.4917  1.6616  0.8645
   45MOL   H63128879   5.951   2.548   2.860 -1.1680 -0.8451  1.1270
   45MOL   H63228880   5.793   2.398   2.868 -0.8378 -0.6843  0.7943
   45MOL   H63328881   5.826   2.108   2.844 -1.0692 -0.6416 -0.1974
   45MOL   H63428882   5.690   2.177   2.919 -0.2673 -2.6780 -0.7840
   45MOL   H63528883   5.971   2.157   3.040  0.3869  0.5153 -0.1504
   45MOL   H63628884   5.848   2.249   3.116  1.5440 -0.0012  0.3347
   45MOL   H63728885   5.830   1.959   3.036  1.4523 -0.9419  0.6421
   45MOL   H63828886   5.710   2.022   3.121 -0.1243  0.2016 -1.4044
   45MOL   H63928887   5.894   2.054   3.325 -1.5877 -1.1286  2.3222
   45MOL   H64028888   5.994   1.959   3.236 -0.4087 -0.5280 -0.7022
   45MOL   H64128889   5.850   1.834   3.378 -0.0998  1.1633  0.5309
   45MOL   H64228890   5.825   1.793   3.226  0.6514 -1.4925  1.1537
   46MOL     C128891   3.885   3.757   4.642  0.1326 -0.0329  0.0497
   46MOL     O228892   3.943   3.654   4.646 -0.1126  0.0446  0.1525
   46MOL     C328893   3.799   3.793   4.517 -0.0895  0.3148 -0.2947
   46MOL     C428894   3.708   3.684   4.459 -0.3932 -1.3459 -0.0714
   46MOL     C528895   3.638   3.734   4.333 -0.3280 -0.3198  0.1274
   46MOL     C628896   3.575   3.623   4.254  0.7561  0.4639 -0.6252
   46MOL     C728897   3.476   3.686   4.152 -0.7540  0.8433 -0.4782
   46MOL     O828898   3.519   3.739   4.048  0.6098  0.2565  0.2187
   46MOL     N928899   3.341   3.687   4.172  0.5362  0.1862 -0.1531
   46MOL    C1028900   3.241   3.741   4.079  0.2655 -0.0035  0.2324
   46MOL    C1128901   3.130   3.813   4.152  0.0610 -0.1767 -0.0041
   46MOL    C1228902   3.014   3.857   4.061  0.1796 -0.1107  0.4619
   46MOL    C1328903   2.919   3.745   4.042  0.8307  0.1328 -0.8578
   46MOL    N1428904   2.800   3.779   3.966  0.2151 -0.3753 -0.2924
   46MOL    H1528905   3.738   3.879   4.545  2.2803  1.5574  1.1775
   46MOL    H1628906   3.867   3.821   4.437 -1.4254  0.0733 -1.5276
   46MOL    H1728907   3.771   3.597   4.438 -1.3733 -2.3778  1.1087
   46MOL    H1828908   3.649   3.653   4.546  0.8388 -0.7816  0.9920
   46MOL    H1928909   3.710   3.789   4.272 -1.1894 -2.3476 -2.8394
   46MOL    H2028910   3.558   3.804   4.359  0.5158  0.4381  0.7282
   46MOL    H2128911   3.513   3.554   4.312 -0.8076  0.5659 -2.1640
   46MOL    H2228912   3.657   3.577   4.198  2.1579  0.5162  1.2935
   46MOL    H2328913   3.311   3.654   4.262  1.1590  1.1836  0.4357
   46MOL    H2428914   3.206   3.650   4.030 -1.2928  1.8700 -2.2377
   46MOL    H2528915   3.292   3.804   4.006  0.6374 -1.9334 -1.2132
   46MOL    H2628916   3.103   3.744   4.232  1.2735  1.0549  1.5083
   46MOL    H2728917   3.161   3.899   4.213 -1.3779 -0.0336  0.5646
   46MOL    H2828918   3.052   3.893   3.965 -0.9639  1.9876  0.7626
   46MOL    H2928919   2.975   3.949   4.104 -0.7441 -0.4251  0.3112
   46MOL    H3028920   2.896   3.699   4.138 -0.0432  0.8730 -0.7014
   46MOL    H3128921   2.975   3.670   3.986  0.8070 -0.8545  0.4099
   46MOL    H3228922   2.726   3.824   4.019 -0.4851 -1.0067 -0.7226
   46MOL    H3328923   3.890   3.826   4.727 -2.0596  0.5991 -0.2928
   46MOL    C3428924   2.780   3.788   3.832  0.9107  0.0423 -0.3155
   46MOL    O3528925   2.869   3.766   3.749  0.2795 -0.1917  0.5603
   46MOL    C3628926   2.650   3.845   3.789 -0.0705  0.8730 -0.2687
   46MOL    C3728927   2.596   3.799   3.655 -0.5637 -0.1208 -0.2129
   46MOL    C3828928   2.468   3.854   3.596 -0.0861  0.0333  0.8239
   46MOL    C3928929   2.438   3.805   3.457  0.2513  0.3823  0.1747
   46MOL    C4028930   2.483   3.898   3.348 -0.1891 -0.5253 -0.4434
   46MOL    O4128931   2.603   3.930   3.343  0.2155 -0.1358  0.2903
   46MOL    N4228932   2.393   3.943   3.262 -0.2357 -0.0212  0.8974
   46MOL    C4328933   2.430   4.008   3.142  0.2998  0.0738  0.3408
   46MOL    C4428934   2.391   3.932   3.013  0.4346 -0.0794  0.0807
   46MOL    C4528935   2.442   3.782   3.019  0.5706 -0.2577 -0.6828
   46MOL    C4628936   2.595   3.758   3.005 -0.4189  0.4853  0.9811
   46MOL    N4728937   2.647   3.814   2.874  1.0690 -0.4550  0.2599
   46MOL    H4828938   2.578   3.824   3.868  0.5442 -1.0914 -0.1892
   46MOL    H4928939   2.657   3.953   3.799  1.6191  0.8272 -0.7809
   46MOL    H5028940   2.671   3.832   3.582  0.8942 -2.5531  0.1262
   46MOL    H5128941   2.605   3.691   3.650  3.5478  0.1407 -0.7297
   46MOL    H5228942   2.484   3.962   3.599 -0.8723  0.3861 -3.5452
   46MOL    H5328943   2.385   3.830   3.662 -0.7262  0.4882  0.1927
   46MOL    H5428944   2.330   3.793   3.445  0.1778  0.5585  0.6472
   46MOL    H5528945   2.482   3.706   3.446  1.7876  0.7418  2.7063
   46MOL    H5628946   2.298   3.908   3.262 -0.6898  1.1902  0.5426
   46MOL    H5728947   2.538   4.008   3.133  0.2557 -1.8154 -0.3885
   46MOL    H5828948   2.390   4.108   3.126 -1.8772 -0.8834 -0.3614
   46MOL    H5928949   2.284   3.935   2.991  0.5034 -1.3157 -0.4758
   46MOL    H6028950   2.433   3.981   2.925  0.5445 -0.5896 -0.1550
   46MOL    H6128951   2.396   3.736   2.932  0.2319  0.0270 -0.6560
   46MOL    H6228952   2.402   3.720   3.101 -1.0815  1.4724 -0.1446
   46MOL    H6328953   2.606   3.650   3.001 -0.9343  0.4478  0.4764
   46MOL    H6428954   2.655   3.797   3.087  0.7687  0.0617  0.3214
   46MOL    H6528955   2.656   3.914   2.878  0.5500 -0.4527  2.5177
   46MOL    C6628956   2.673   3.752   2.761 -0.2180 -0.7645 -0.0515
   46MOL    O6728957   2.679   3.629   2.755 -0.2162 -0.1317 -0.5705
   46MOL    C6828958   2.706   3.840   2.640  0.1075  0.2989 -0.5075
   46MOL    C6928959   2.754   3.749   2.524  0.4290 -0.4059  0.6783
   46MOL    C7028960   2.752   3.808   2.379  0.3418 -0.3750 -0.1658
   46MOL    C7128961   2.835   3.932   2.349 -0.3211  0.0505 -0.4926
   46MOL    C7228962   2.762   4.059   2.393 -0.2926 -0.1413 -0.2397
   46MOL    O7328963   2.656   4.094   2.333 -0.1262  0.0505 -0.3167
   46MOL    N7428964   2.805   4.129   2.493  0.1025  0.1931 -0.7196
   46MOL    C7528965   2.735   4.241   2.546  0.1658  0.0072  0.6867
   46MOL    C7628966   2.618   4.210   2.634 -0.0022  0.2441 -0.8227
   46MOL    C7728967   2.523   4.326   2.653 -0.3304 -0.1542  0.4344
   46MOL    C7828968   2.406   4.341   2.549 -0.7503 -0.4502  0.0868
   46MOL    N7928969   2.440   4.312   2.412  0.2703  0.2201 -0.1993
   46MOL    H8028970   2.610   3.875   2.603  0.3334  1.2297 -0.2046
   46MOL    H8128971   2.775   3.919   2.669  0.9225 -0.3697 -0.6072
   46MOL    H8228972   2.856   3.713   2.541  0.8520 -1.6453 -3.8770
   46MOL    H8328973   2.708   3.651   2.512  0.5150 -0.2610 -0.9303
   46MOL    H8428974   2.647   3.814   2.351  0.1987 -1.1563  0.1835
   46MOL    H8528975   2.781   3.720   2.322  0.7774  0.8653 -1.9083
   46MOL    H8628976   2.846   3.936   2.240  2.2094  2.1551 -0.2004
   46MOL    H8728977   2.941   3.927   2.373  0.5717  3.0937 -3.3642
   46MOL    H8828978   2.902   4.107   2.513  0.5514  0.9857 -1.9891
   46MOL    H8928979   2.714   4.309   2.463 -0.4065 -0.2135  0.6501
   46MOL    H9028980   2.810   4.292   2.607  2.1687 -1.0725 -0.7966
   46MOL    H9128981   2.562   4.124   2.597 -0.8448  0.0773  0.7820
   46MOL    H9228982   2.645   4.166   2.730 -3.5301  0.1612  0.2102
   46MOL    H9328983   2.579   4.419   2.653 -1.5855  0.6176 -0.2306
   46MOL    H9428984   2.474   4.330   2.751 -1.1743  2.3962 -0.0724
   46MOL    H9528985   2.352   4.434   2.567 -1.6217 -0.4883 -2.2599
   46MOL    H9628986   2.331   4.263   2.564 -2.0480  0.4550 -1.5702
   46MOL    H9728987   2.487   4.225   2.393  0.0730 -0.5103  2.4549
   46MOL    C9828988   2.436   4.402   2.314 -0.4679 -0.6158  0.5781
   46MOL    O9928989   2.399   4.516   2.334  0.2662  0.3044  0.2508
   46MOL   C10028990   2.498   4.360   2.181 -0.6499 -0.4110  0.0345
   46MOL   C10128991   2.604   4.465   2.139  0.0771 -1.0950  0.3195
   46MOL   C10228992   2.683   4.414   2.018  0.3570  0.6370 -0.2703
   46MOL   C10328993   2.783   4.511   1.951  0.5981 -0.7735 -0.3992
   46MOL   C10428994   2.731   4.647   1.903  1.1350  0.3406  0.3122
   46MOL   O10528995   2.618   4.693   1.926  0.3181 -0.3064  0.0282
   46MOL   N10628996   2.822   4.703   1.823  0.5149 -0.3696 -0.5425
   46MOL   C10728997   2.806   4.836   1.786 -0.5637 -0.1527  0.2130
   46MOL   C10828998   2.870   4.933   1.888  0.0947  0.8193 -0.3337
   46MOL   C10928999   3.024   4.938   1.880  0.2142  0.3253 -0.4447
   46MOL   C11029000   3.090   5.018   2.001 -0.4667  0.6749  0.0686
   46MOL   N11129001   3.228   5.049   1.968  0.5126  0.3073  0.0524
   46MOL   H11229002   2.528   4.255   2.191 -1.6348 -0.5944  1.2785
   46MOL   H11329003   2.422   4.367   2.103  0.0797 -0.1709 -0.6496
   46MOL   H11429004   2.555   4.560   2.116  0.3665 -1.4482 -1.8804
   46MOL   H11529005   2.682   4.490   2.212  0.7212  0.5635 -0.8851
   46MOL   H11629006   2.621   4.364   1.943 -1.0310  0.9151  0.6841
   46MOL   H11729007   2.741   4.332   2.060  0.9287  1.8986  1.4364
   46MOL   H11829008   2.842   4.454   1.879 -0.4470  0.7565 -2.5180
   46MOL   H11929009   2.856   4.532   2.029  1.3220 -2.0884 -0.7105
   46MOL   H12029010   2.902   4.648   1.796  1.4879  1.4048 -1.3583
   46MOL   H12129011   2.702   4.863   1.774  0.0037  2.0448  0.0899
   46MOL   H12229012   2.861   4.829   1.692 -0.0337 -0.4861  0.5452
   46MOL   H12329013   2.830   5.034   1.873 -1.8022 -0.0003 -0.8775
   46MOL   H12429014   2.847   4.897   1.988  2.2500  2.1163  0.6787
   46MOL   H12529015   3.048   4.994   1.790  4.6549  0.6258  0.7893
   46MOL   H12629016   3.071   4.840   1.870 -0.3348  0.0191 -0.0195
   46MOL   H12729017   3.085   4.951   2.087 -0.3469  1.5600  0.7629
   46MOL   H12829018   3.040   5.109   2.031  1.0908  1.0659  1.5821
   46MOL   H12929019   3.290   4.981   2.008  1.0842  0.0204 -1.2775
   46MOL   C13029020   3.275   5.134   1.875 -0.6438 -0.3676 -0.6084
   46MOL   O13129021   3.203   5.211   1.808 -0.7327 -0.2205  0.6685
   46MOL   C13229022   3.421   5.123   1.847  0.1970 -0.1038 -0.3573
   46MOL   C13329023   3.471   5.246   1.769  0.2181  0.8005  0.0968
   46MOL   C13429024   3.625   5.252   1.765  0.3363  0.0603 -0.2225
   46MOL   C13529025   3.662   5.367   1.664 -0.1377  0.2985 -0.3402
   46MOL   C13629026   3.810   5.376   1.634 -0.2318 -0.6833  0.2010
   46MOL   O13729027   3.864   5.287   1.568  0.7529  0.8693 -0.5137
   46MOL   N13829028   3.877   5.477   1.690 -0.3420 -0.4432 -0.3633
   46MOL   C13929029   4.022   5.513   1.663  0.7535 -0.2620 -0.0979
   46MOL   C14029030   4.103   5.504   1.793  1.1767 -0.0501 -0.0402
   46MOL   C14129031   4.100   5.374   1.864  0.0672  0.3191  0.6985
   46MOL   C14229032   4.000   5.365   1.981 -0.0455 -0.7158  0.0905
   46MOL   N14329033   3.996   5.228   2.038 -0.3995  0.2193 -0.3841
   46MOL   H14429034   3.484   5.130   1.936  1.8471 -1.3902 -1.4074
   46MOL   H14529035   3.442   5.026   1.802  1.8300 -0.5780  1.3471
   46MOL   H14629036   3.422   5.231   1.672  0.1343 -2.3678  0.5817
   46MOL   H14729037   3.435   5.338   1.814  0.7897  1.4617 -0.7770
   46MOL   H14829038   3.672   5.166   1.718 -0.2120  0.8681 -2.3056
   46MOL   H14929039   3.662   5.269   1.866 -0.9432  1.5222  0.0186
   46MOL   H15029040   3.621   5.461   1.701 -1.4428 -1.8829  4.0503
   46MOL   H15129041   3.609   5.351   1.570 -1.0194  0.5136  0.1241
   46MOL   H15229042   3.826   5.546   1.744  0.6909  1.1106 -1.3374
   46MOL   H15329043   4.030   5.613   1.619 -3.2612 -1.3282 -3.6108
   46MOL   H15429044   4.072   5.443   1.596  1.7943 -0.0047  0.3934
   46MOL   H15529045   4.207   5.514   1.761  1.4840  0.9225  1.2043
   46MOL   H15629046   4.085   5.585   1.864 -0.2699 -1.1401  0.8692
   46MOL   H15729047   4.201   5.346   1.894  0.6826  0.7971 -0.8316
   46MOL   H15829048   4.080   5.297   1.789  2.1115  0.9329 -0.5121
   46MOL   H15929049   3.902   5.390   1.940 -0.1548 -0.1910  0.6608
   46MOL   H16029050   4.036   5.435   2.057 -1.3188  0.1779 -0.1113
   46MOL   H16129051   4.075   5.168   2.020  1.4391  2.5342 -0.3188
   46MOL   C16229052   3.889   5.168   2.100 -0.5246 -0.6066 -0.7644
   46MOL   O16329053   3.778   5.221   2.118 -0.2593  0.0444  0.0396
   46MOL   C16429054   3.917   5.020   2.142 -0.0645  0.3138  0.0627
   46MOL   C16529055   3.805   4.943   2.214  0.8155 -0.5325 -0.0189
   46MOL   C16629056   3.685   4.893   2.131 -0.7616  0.3264 -0.1989
   46MOL   C16729057   3.581   4.818   2.217  0.2657  0.5741 -0.5049
   46MOL   C16829058   3.456   4.773   2.138 -0.4665 -0.6708 -0.2060
   46MOL   O16929059   3.391   4.853   2.065  0.0920 -0.2726 -0.2557
   46MOL   N17029060   3.424   4.644   2.152 -0.1250  0.5174 -0.5235
   46MOL   C17129061   3.298   4.576   2.115 -0.1709 -0.3454  0.1075
   46MOL   C17229062   3.208   4.562   2.238 -0.1702  0.6165  0.6211
   46MOL   C17329063   3.095   4.458   2.209 -0.5316 -0.1117  0.1028
   46MOL   C17429064   2.998   4.458   2.326  0.0651 -0.1333 -0.1553
   46MOL   N17529065   3.068   4.438   2.455 -0.2183  0.6695  0.3022
   46MOL   H17629066   3.960   4.959   2.062 -0.3168  1.5202 -1.0107
   46MOL   H17729067   3.987   5.030   2.225 -1.9213 -0.8169  1.8103
   46MOL   H17829068   3.846   4.851   2.256 -1.4866 -1.8618 -0.6258
   46MOL   H17929069   3.778   4.996   2.305 -0.2284  0.9690 -1.1745
   46MOL   H18029070   3.717   4.828   2.049 -5.6218  0.5790 -2.4261
   46MOL   H18129071   3.632   4.976   2.085 -1.0264  0.4298  0.2909
   46MOL   H18229072   3.554   4.895   2.288 -2.3220  0.2247 -1.0756
   46MOL   H18329073   3.623   4.736   2.276 -2.6773  1.1420  2.5147
   46MOL   H18429074   3.489   4.576   2.191 -0.4264 -0.0534 -1.0120
   46MOL   H18529075   3.329   4.478   2.081  1.9963 -0.3830  2.0783
   46MOL   H18629076   3.258   4.624   2.026 -0.9472 -0.9438  0.1238
   46MOL   H18729077   3.272   4.538   2.323  1.5512 -0.0131 -0.8321
   46MOL   H18829078   3.163   4.658   2.263 -0.0887  1.2090 -1.4338
   46MOL   H18929079   3.137   4.357   2.203 -0.4902 -0.1438  0.7874
   46MOL   H19029080   3.042   4.476   2.116  0.1153 -1.1609 -0.4810
   46MOL   H19129081   2.919   4.383   2.319 -0.7183  0.4446  2.3167
   46MOL   H19229082   2.943   4.552   2.326  0.2525 -0.0200  1.0429
   46MOL   H19329083   3.044   4.506   2.525 -0.9250 -1.6876  2.3962
   46MOL   C19429084   3.092   4.315   2.502  0.0739 -0.1256 -0.4511
   46MOL   O19529085   3.070   4.204   2.445 -0.4353  0.2531  0.3781
   46MOL   C19629086   3.166   4.322   2.635 -0.3645 -0.3872  0.5584
   46MOL   C19729087   3.104   4.237   2.739 -0.1506 -0.0129 -0.2211
   46MOL   C19829088   3.201   4.209   2.855  0.0574  1.2579  0.3805
   46MOL   C19929089   3.336   4.138   2.827  0.0545  0.7839 -0.1063
   46MOL   C20029090   3.461   4.223   2.830 -0.3124 -0.2040 -0.4746
   46MOL   O20129091   3.514   4.271   2.731 -0.1427  0.4459  0.3349
   46MOL   N20229092   3.519   4.241   2.948  0.6151  0.2451 -0.2021
   46MOL   C20329093   3.653   4.285   2.983  0.5379 -0.4262 -0.5361
   46MOL   C20429094   3.644   4.408   3.073  0.0317 -0.1885  0.0901
   46MOL   C20529095   3.744   4.402   3.189  0.4209 -0.5996  0.1573
   46MOL   C20629096   3.696   4.312   3.303 -0.6390 -0.7232 -0.0306
   46MOL   N20729097   3.803   4.300   3.399  0.2684 -0.1634  0.1834
   46MOL   H20829098   3.261   4.274   2.611 -0.1573 -1.0646  2.6004
   46MOL   H20929099   3.175   4.422   2.676 -1.1371  0.4362 -1.2173
   46MOL   H21029100   3.008   4.272   2.777  0.4014 -0.2397  1.4421
   46MOL   H21129101   3.064   4.146   2.694  1.6372 -1.2825  0.6914
   46MOL   H21229102   3.149   4.161   2.938 -1.7647  2.0019 -0.3084
   46MOL   H21329103   3.224   4.302   2.906  1.4407  2.0990 -1.6978
   46MOL   H21429104   3.330   4.092   2.728  0.4434  1.4610 -0.4483
   46MOL   H21529105   3.354   4.060   2.901 -0.7183  0.3574 -0.3704
   46MOL   H21629106   3.473   4.190   3.022 -1.0603 -0.3456 -1.6026
   46MOL   H21729107   3.711   4.304   2.893 -0.9223 -0.9700 -1.6174
   46MOL   H21829108   3.699   4.203   3.038  0.4296 -1.4923 -1.9786
   46MOL   H21929109   3.670   4.492   3.009 -1.9635  0.6810  0.3674
   46MOL   H22029110   3.540   4.435   3.093 -0.0951 -0.9092  0.4373
   46MOL   H22129111   3.780   4.499   3.224  0.5677 -0.2817 -0.8523
   46MOL   H22229112   3.839   4.363   3.152  1.8214  0.5583  2.4457
   46MOL   H22329113   3.668   4.210   3.277  0.1067 -1.5292  2.2021
   46MOL   H22429114   3.607   4.348   3.355 -0.6767 -0.3282 -0.3623
   46MOL   H22529115   3.864   4.225   3.371 -1.5679 -1.2160 -1.1806
   46MOL   C22629116   3.829   4.364   3.502  0.2257  0.0561 -0.2757
   46MOL   O22729117   3.755   4.447   3.552  0.0550  0.0721  0.2180
   46MOL   C22829118   3.963   4.328   3.564  0.0904  0.3499 -0.4600
   46MOL   C22929119   3.967   4.321   3.717  0.1074 -0.0070  0.8320
   46MOL   C23029120   4.001   4.452   3.789  0.1071  0.1577  0.0341
   46MOL   C23129121   4.012   4.430   3.941  0.1708 -0.2532  0.4155
   46MOL   C23229122   4.114   4.326   3.977 -0.4481 -0.3196 -0.7848
   46MOL   O23329123   4.226   4.340   3.934 -0.1336  0.5681 -0.1605
   46MOL   N23429124   4.075   4.224   4.052  0.6089  0.5975 -0.3816
   46MOL   C23529125   4.163   4.108   4.080 -0.1440  0.3805 -0.0632
   46MOL   C23629126   4.214   4.033   3.952  0.0096  0.3118 -0.2908
   46MOL   C23729127   4.313   3.923   3.988  0.4247  0.4664  0.1795
   46MOL   C23829128   4.340   3.810   3.896  0.4587 -0.0348  0.1434
   46MOL   N23929129   4.400   3.691   3.953 -0.6336  0.0592  0.5446
   46MOL   H24029130   3.994   4.231   3.524  1.5393 -0.0094  1.4880
   46MOL   H24129131   4.029   4.404   3.523  0.0900 -0.7028 -2.5207
   46MOL   H24229132   3.875   4.280   3.760 -0.6391 -1.1908 -1.7355
   46MOL   H24329133   4.041   4.244   3.736 -0.5314 -0.3772  1.8785
   46MOL   H24429134   3.929   4.531   3.768 -1.5856 -1.7831 -1.7333
   46MOL   H24529135   4.098   4.485   3.749  0.3994 -1.5764 -0.7361
   46MOL   H24629136   3.921   4.397   3.990 -1.0879 -1.4596 -2.5871
   46MOL   H24729137   4.056   4.518   3.986  0.1637 -0.4069  0.7264
   46MOL   H24829138   3.979   4.230   4.083  0.9865  0.4194  0.8294
   46MOL   H24929139   4.110   4.049   4.155 -0.3055  0.3973 -0.1635
   46MOL   H25029140   4.253   4.139   4.132 -1.5473  0.5364  2.3859
   46MOL   H25129141   4.130   3.985   3.901  0.5749 -0.9137 -0.0890
   46MOL   H25229142   4.263   4.103   3.886 -0.4004  1.5043  0.6451
   46MOL   H25329143   4.290   3.878   4.084  2.1918  0.7150  0.7239
   46MOL   H25429144   4.404   3.981   4.004 -0.0374  1.5717 -1.0801
   46MOL   H25529145   4.391   3.849   3.809  0.4648 -3.6093 -1.5268
   46MOL   H25629146   4.247   3.774   3.851  1.0803  2.3318 -3.2057
   46MOL   H25729147   4.423   3.695   4.051 -1.6159 -0.1085  0.7831
   46MOL   C25829148   4.427   3.578   3.886 -0.1189  0.2705 -1.2756
   46MOL   O25929149   4.421   3.567   3.767  0.6414 -0.7501  0.1627
   46MOL   C26029150   4.457   3.457   3.975 -0.0714  0.3155  0.1862
   46MOL   C26129151   4.356   3.339   3.960  0.4397  0.4653 -0.2533
   46MOL   C26229152   4.402   3.223   4.040  0.7354 -0.2157 -0.1411
   46MOL   C26329153   4.346   3.088   3.983 -0.0140 -0.1283  0.0465
   46MOL   C26429154   4.402   2.960   4.040  0.4692  1.3258 -0.1604
   46MOL   O26529155   4.419   2.958   4.160  0.2535 -0.6555  0.4421
   46MOL   N26629156   4.440   2.868   3.952  0.1874  0.1698 -0.1084
   46MOL   C26729157   4.512   2.747   3.982  1.0509  0.3964  0.4176
   46MOL   C26829158   4.584   2.697   3.859 -0.6621  0.1075 -0.2785
   46MOL   C26929159   4.638   2.559   3.861 -0.1414 -0.4449  0.3637
   46MOL   C27029160   4.520   2.460   3.856  0.1027  0.1555  0.5724
   46MOL   N27129161   4.565   2.322   3.867 -0.2349 -0.5210  0.2107
   46MOL   H27229162   4.553   3.417   3.941 -0.8207 -2.4710  1.2429
   46MOL   H27329163   4.459   3.481   4.081 -2.1100  1.3205  0.0211
   46MOL   H27429164   4.253   3.371   3.970  0.1062 -0.2458 -1.3465
   46MOL   H27529165   4.368   3.315   3.854  0.0174 -0.8712 -0.0096
   46MOL   H27629166   4.368   3.235   4.143  0.1961  0.8768 -0.4362
   46MOL   H27729167   4.510   3.231   4.045  0.5399  1.9886  1.1264
   46MOL   H27829168   4.359   3.092   3.875 -0.7458 -0.5703 -0.0634
   46MOL   H27929169   4.238   3.104   3.979  0.5651  4.1499 -1.7631
   46MOL   H28029170   4.428   2.875   3.852 -0.7720 -1.4471 -0.1238
   46MOL   H28129171   4.433   2.673   3.994  0.2073  1.5585  2.3105
   46MOL   H28229172   4.574   2.750   4.072 -1.1322 -0.2736  1.9890
   46MOL   H28329173   4.509   2.703   3.781  0.0981 -1.2432 -1.1480
   46MOL   H28429174   4.673   2.757   3.838 -0.0980 -1.1107 -1.4741
   46MOL   H28529175   4.698   2.541   3.950 -2.5723  2.3070  2.6474
   46MOL   H28629176   4.709   2.536   3.781  0.0065 -0.4629  0.5000
   46MOL   H28729177   4.473   2.461   3.757 -0.4921 -0.3211  0.8442
   46MOL   H28829178   4.444   2.480   3.932  1.5745  1.8605  1.6017
   46MOL   H28929179   4.661   2.298   3.892  0.0901  0.1358 -0.4064
   46MOL   C29029180   4.481   2.217   3.867 -0.2296 -0.2828 -1.4489
   46MOL   O29129181   4.357   2.241   3.870 -0.4509  0.0395  0.2768
   46MOL   C29229182   4.538   2.075   3.874 -0.6406  0.2705  0.0433
   46MOL   C29329183   4.470   1.977   3.775 -0.1082 -0.3236 -0.2041
   46MOL   C29429184   4.527   1.835   3.781  0.0192 -0.0993  0.4367
   46MOL   C29529185   4.448   1.731   3.703  0.4205  0.2044 -0.8069
   46MOL   C29629186   4.416   1.756   3.558  0.2547 -0.0948 -0.5449
   46MOL   O29729187   4.507   1.797   3.487 -0.5790  0.2645 -0.5583
   46MOL   N29829188   4.288   1.747   3.520  0.0984  0.4532  0.4563
   46MOL   C29929189   4.220   1.803   3.403 -0.1725  0.2715  1.0572
   46MOL   C30029190   4.226   1.957   3.401  0.0450 -0.2083 -0.6699
   46MOL   C30129191   4.153   2.032   3.513  0.3234  0.7655  0.2130
   46MOL   C30229192   4.206   2.173   3.551  1.0033  0.4272 -0.3300
   46MOL   N30329193   4.145   2.214   3.675  0.3939  0.5074  0.2380
   46MOL   H30429194   4.641   2.079   3.840 -0.5327  0.5239  0.3972
   46MOL   H30529195   4.547   2.042   3.977 -0.0728  0.7538  0.1439
   46MOL   H30629196   4.362   1.972   3.777 -0.1230 -0.0305 -0.1964
   46MOL   H30729197   4.496   2.016   3.676  0.0752  1.6900  0.6026
   46MOL   H30829198   4.526   1.808   3.887  0.8324  1.1874  0.7801
   46MOL   H30929199   4.632   1.827   3.753  0.5518 -1.1726  2.5641
   46MOL   H31029200   4.352   1.722   3.754  1.2902  1.7923  1.2067
   46MOL   H31129201   4.495   1.633   3.714 -0.6473 -0.2533 -0.2359
   46MOL   H31229202   4.226   1.703   3.587  1.8829 -0.9473  1.2494
   46MOL   H31329203   4.118   1.766   3.392 -0.1443 -0.3265  2.5979
   46MOL   H31429204   4.263   1.760   3.312 -0.0861 -1.7291  2.0025
   46MOL   H31529205   4.329   1.992   3.395 -0.2190  0.5041 -1.0648
   46MOL   H31629206   4.191   2.002   3.308  0.4052 -0.3685 -0.8857
   46MOL   H31729207   4.158   1.970   3.602  0.3562  1.1459  0.4760
   46MOL   H31829208   4.048   2.036   3.485  0.4909  2.0244 -0.2722
   46MOL   H31929209   4.184   2.247   3.475  1.2443  0.3890 -0.4397
   46MOL   H32029210   4.315   2.173   3.550  0.9998  0.4720 -0.9411
   46MOL   H32129211   4.206   2.252   3.747  0.5939  2.4854 -0.9390
   46MOL   C32229212   4.011   2.227   3.698  0.5751 -0.2259  0.1021
   46MOL   O32329213   3.922   2.200   3.612  0.1654 -0.2895  0.1351
   46MOL   C32429214   3.988   2.301   3.826 -0.1873  0.0975 -0.6817
   46MOL   C32529215   3.866   2.402   3.810 -0.8090  0.3545  0.2478
   46MOL   C32629216   3.837   2.488   3.929  0.1821  0.0567 -0.8515
   46MOL   C32729217   3.705   2.557   3.927 -0.0814 -0.5769  0.3802
   46MOL   C32829218   3.698   2.679   3.836 -0.0552  0.0650  0.3378
   46MOL   O32929219   3.789   2.751   3.819  0.0402 -0.8168 -0.2825
   46MOL   N33029220   3.582   2.692   3.772  0.4585  0.4173  0.2135
   46MOL   C33129221   3.543   2.818   3.695  0.2966  0.5687 -0.1963
   46MOL   C33229222   3.393   2.844   3.701 -0.2915  0.9751  0.9514
   46MOL   C33329223   3.347   2.982   3.649 -0.0120 -0.5656  0.0725
   46MOL   C33429224   3.203   2.996   3.644  0.4626 -0.3294 -0.1921
   46MOL   N33529225   3.180   3.137   3.612 -0.1286  0.5095 -0.3016
   46MOL   H33629226   3.976   2.237   3.913  2.2840  0.5003 -0.0038
   46MOL   H33729227   4.064   2.367   3.868 -1.0398  0.0769  0.9604
   46MOL   H33829228   3.876   2.465   3.722  0.7295  0.8446  0.7519
   46MOL   H33929229   3.779   2.343   3.780 -2.4428  2.6348  0.3628
   46MOL   H34029230   3.926   2.547   3.947  0.7639 -1.2106  0.5071
   46MOL   H34129231   3.837   2.427   4.019  1.3989  0.4715 -0.5656
   46MOL   H34229232   3.675   2.587   4.028  0.3278 -0.5210  0.4861
   46MOL   H34329233   3.634   2.479   3.899 -1.1893 -1.5121  5.2010
   46MOL   H34429234   3.516   2.620   3.798  1.7937 -0.4429  1.2733
   46MOL   H34529235   3.575   2.806   3.592  2.0682 -1.1892  0.5406
   46MOL   H34629236   3.609   2.901   3.724 -0.5200  1.2389 -0.2488
   46MOL   H34729237   3.355   2.764   3.638 -0.5044  1.9862 -0.2170
   46MOL   H34829238   3.351   2.841   3.802 -1.7770  0.4153  0.3302
   46MOL   H34929239   3.393   3.004   3.553 -0.7341  0.5436 -0.0290
   46MOL   H35029240   3.385   3.061   3.714 -0.5129 -0.5534  0.3542
   46MOL   H35129241   3.159   2.977   3.742  0.7504  1.0258  0.2046
   46MOL   H35229242   3.165   2.925   3.571  0.1683  0.7312 -1.0895
   46MOL   H35329243   3.221   3.163   3.524 -0.4242  0.1734 -0.5388
   46MOL   C35429244   3.149   3.246   3.691  1.0209  0.3182 -0.9196
   46MOL   O35529245   3.102   3.227   3.808 -0.4538  0.3320 -0.0146
   46MOL   C35629246   3.175   3.383   3.640  0.4035 -0.1873 -0.0481
   46MOL   C35729247   3.175   3.495   3.747  0.1722 -0.1925 -0.1893
   46MOL   C35829248   3.268   3.618   3.714  0.5302  0.1772 -0.1540
   46MOL   C35929249   3.192   3.750   3.687  0.2420 -0.3184  0.1518
   46MOL   C36029250   3.140   3.738   3.541  0.1064  0.0976 -0.5346
   46MOL   O36129251   3.225   3.712   3.452  0.7630 -0.3289 -0.0609
   46MOL   N36229252   3.005   3.752   3.520  0.1416 -0.4619  0.2248
   46MOL   C36329253   2.934   3.767   3.390  0.7654  0.2822  0.1342
   46MOL   C36429254   2.968   3.895   3.314 -0.4303  0.3202  0.3359
   46MOL   C36529255   2.932   3.892   3.167 -0.5849 -0.2069  0.1415
   46MOL   C36629256   2.983   4.010   3.084  0.7852  1.2158  0.0346
   46MOL   N36729257   2.898   4.125   3.089 -0.2628  0.3700 -0.9845
   46MOL   H36829258   3.266   3.379   3.582  0.8898 -0.5139  0.7321
   46MOL   H36929259   3.094   3.393   3.567  1.4587  0.9092 -1.0890
   46MOL   H37029260   3.075   3.536   3.762 -0.4135 -1.3779 -0.8089
   46MOL   H37129261   3.206   3.456   3.843  1.2573  1.3390  0.1050
   46MOL   H37229262   3.352   3.590   3.651  1.6150  0.4411  1.1437
   46MOL   H37329263   3.325   3.623   3.807 -1.2375  0.0043  0.9779
   46MOL   H37429264   3.263   3.833   3.695  0.1801 -0.4845  2.9138
   46MOL   H37529265   3.120   3.762   3.767  0.8514  0.2036  0.6286
   46MOL   H37629266   2.953   3.764   3.605 -0.3630  0.3195 -0.1843
   46MOL   H37729267   2.829   3.770   3.417  0.5766 -0.9354 -0.4263
   46MOL   H37829268   2.943   3.678   3.328 -1.0064  1.0997 -1.3149
   46MOL   H37929269   2.932   3.979   3.373 -1.0029 -0.0914  0.5813
   46MOL   H38029270   3.076   3.905   3.322 -0.5901  2.2412  0.2675
   46MOL   H38129271   2.825   3.881   3.152 -0.6186  0.3080 -0.0220
   46MOL   H38229272   2.972   3.796   3.134  3.6550  1.9408 -1.4116
   46MOL   H38329273   2.982   3.977   2.980 -0.2886  1.1678  0.0482
   46MOL   H38429274   3.079   4.038   3.126  0.2043  0.6417  1.8021
   46MOL   H38529275   2.933   4.192   3.156 -0.8758  0.0368 -0.3258
   46MOL   C38629276   2.790   4.153   3.016 -0.1839  0.0808 -0.1244
   46MOL   O38729277   2.749   4.079   2.924 -0.2409  0.1812  0.2686
   46MOL   C38829278   2.722   4.290   3.053  0.6191 -0.3921 -0.0949
   46MOL   C38929279   2.708   4.396   2.943  0.3552  0.1006  0.7323
   46MOL   C39029280   2.829   4.480   2.933  0.1610 -1.3443 -0.1675
   46MOL   C39129281   2.798   4.617   2.863  0.3594 -0.1048 -0.1573
   46MOL   C39229282   2.811   4.610   2.712  0.0841 -0.4626 -0.1341
   46MOL   O39329283   2.918   4.577   2.659 -0.0428 -0.3250  0.1989
   46MOL   N39429284   2.702   4.660   2.652  0.3343 -0.1277  0.5271
   46MOL   C39529285   2.690   4.668   2.510  0.3471 -0.0553 -0.6682
   46MOL   C39629286   2.746   4.794   2.449 -0.0146  0.1290  0.0912
   46MOL   C39729287   2.709   4.813   2.301 -0.0355  0.2303 -0.3143
   46MOL   C39829288   2.569   4.855   2.291  0.2470 -0.5151 -0.1292
   46MOL   N39929289   2.538   4.867   2.152 -0.2438  0.3105 -0.2390
   46MOL   H40029290   2.624   4.264   3.092 -0.1764 -0.7434 -2.2717
   46MOL   H40129291   2.773   4.334   3.139  1.0834 -2.7903  0.9065
   46MOL   H40229292   2.672   4.336   2.859 -0.5073  1.1554  0.3467
   46MOL   H40329293   2.623   4.456   2.973 -1.3285 -0.8335 -2.0130
   46MOL   H40429294   2.912   4.430   2.883  2.2406  1.2202  0.6121
   46MOL   H40529295   2.869   4.510   3.030  0.8920 -2.3163 -0.1738
   46MOL   H40629296   2.878   4.686   2.892  1.5194 -0.6276 -2.0295
   46MOL   H40729297   2.705   4.661   2.899  0.8793  2.6947 -2.0386
   46MOL   H40829298   2.628   4.695   2.711  2.0924  3.2055  0.8704
   46MOL   H40929299   2.592   4.657   2.465 -0.2442  1.3107  0.2804
   46MOL   H41029300   2.745   4.581   2.473  1.4588  0.7561 -0.9400
   46MOL   H41129301   2.703   4.878   2.505 -0.2674 -1.0781  1.7362
   46MOL   H41229302   2.853   4.788   2.473  0.5491 -2.1930 -2.8140
   46MOL   H41329303   2.720   4.728   2.233 -1.1036  0.3872 -0.6921
   46MOL   H41429304   2.764   4.893   2.252  0.8994  0.7208  1.4952
   46MOL   H41529305   2.556   4.957   2.327  1.6723 -0.8459  1.3334
   46MOL   H41629306   2.489   4.786   2.318 -0.2988  0.5226  0.9348
   46MOL   H41729307   2.549   4.789   2.089  0.5680 -0.1544  0.4746
   46MOL   C41829308   2.494   4.983   2.096  0.4864  0.4931 -0.0413
   46MOL   O41929309   2.482   5.087   2.155  0.2926  0.0305  0.0845
   46MOL   C42029310   2.455   4.982   1.948 -0.2752  0.1486  0.7971
   46MOL   C42129311   2.454   5.126   1.896  0.0800  0.1760  0.0345
   46MOL   C42229312   2.417   5.139   1.750 -0.2187  0.8087  0.5211
   46MOL   C42329313   2.464   5.282   1.695 -0.3779  0.0902  0.7854
   46MOL   C42429314   2.391   5.399   1.747  0.7967  0.4525 -0.0339
   46MOL   O42529315   2.271   5.414   1.722  0.0649  0.4104 -0.1220
   46MOL   N42629316   2.449   5.483   1.831 -0.4877  0.3809  0.2628
   46MOL   C42729317   2.391   5.580   1.922  0.0037 -0.2660 -0.4343
   46MOL   C42829318   2.472   5.581   2.052 -1.1123 -0.2568 -1.1508
   46MOL   C42929319   2.506   5.445   2.115  1.2018 -0.3437  0.0220
   46MOL   C43029320   2.590   5.466   2.246 -0.3582 -0.0815 -0.2934
   46MOL   N43129321   2.598   5.344   2.328  0.2544 -0.9219  0.4048
   46MOL   H43229322   2.532   4.932   1.889 -0.8977 -1.4145  1.2740
   46MOL   H43329323   2.361   4.926   1.950  1.1469 -2.4380 -1.1116
   46MOL   H43429324   2.381   5.192   1.944 -0.4475 -0.3966  0.0279
   46MOL   H43529325   2.555   5.163   1.910  1.5830 -3.5049 -0.5996
   46MOL   H43629326   2.309   5.127   1.743  0.2637 -3.0599 -1.5880
   46MOL   H43729327   2.477   5.064   1.698 -1.5051 -0.2110  0.4798
   46MOL   H43829328   2.438   5.279   1.589  0.7122 -0.7332  0.5343
   46MOL   H43929329   2.572   5.295   1.690 -0.6698  2.8992  0.7925
   46MOL   H44029330   2.550   5.474   1.836 -0.3658  1.7026  0.3255
   46MOL   H44129331   2.293   5.540   1.946 -0.0078  0.5842  1.0034
   46MOL   H44229332   2.382   5.680   1.881 -2.8451 -0.4009 -0.1804
   46MOL   H44329333   2.568   5.634   2.045 -0.9969 -0.1998  0.7890
   46MOL   H44429334   2.407   5.640   2.116  1.4616  0.2691  1.0579
   46MOL   H44529335   2.551   5.376   2.043 -1.0821 -0.3896 -1.4009
   46MOL   H44629336   2.411   5.402   2.147 -0.3369  1.9355 -1.3802
   46MOL   H44729337   2.540   5.535   2.313  0.1168 -0.2200  0.2018
   46MOL   H44829338   2.684   5.517   2.223  1.6745 -3.4147  0.3380
   46MOL   H44929339   2.576   5.257   2.282 -0.5843 -1.1865  1.2748
   46MOL   C45029340   2.629   5.351   2.458 -0.2179 -0.4426 -0.5152
   46MOL   O45129341   2.647   5.457   2.518  0.0704  0.4631 -1.0314
   46MOL   C45229342   2.634   5.210   2.524 -0.0785  0.5542 -0.2331
   46MOL   C45329343   2.763   5.178   2.605  0.5994  0.2910 -0.4843
   46MOL   C45429344   2.888   5.171   2.522 -0.9567 -0.3535  0.0596
   46MOL   C45529345   2.963   5.304   2.483 -0.2523 -0.1429  0.1362
   46MOL   C45629346   3.055   5.371   2.585 -0.0294 -0.2271  0.1162
   46MOL   O45729347   3.041   5.349   2.704  0.3579 -0.3470  0.0843
   46MOL   N45829348   3.145   5.450   2.530  0.3584 -1.1939  0.0499
   46MOL   C45929349   3.224   5.548   2.599 -0.2616 -0.0977  0.0239
   46MOL   C46029350   3.363   5.496   2.615  0.5943  0.8058  0.5707
   46MOL   C46129351   3.453   5.582   2.697 -0.4138 -0.2530 -0.2786
   46MOL   C46229352   3.494   5.715   2.641 -0.1491  0.8779  0.8513
   46MOL   N46329353   3.395   5.809   2.664  0.9851 -0.1873 -0.0934
   46MOL   H46429354   2.544   5.207   2.585  0.9511 -1.0539  1.2684
   46MOL   H46529355   2.621   5.129   2.452 -1.2862  1.2872 -0.8421
   46MOL   H46629356   2.778   5.252   2.683 -2.8299  0.5598 -0.0267
   46MOL   H46729357   2.758   5.077   2.646  1.6640  1.5013  2.7935
   46MOL   H46829358   2.870   5.116   2.429  0.0188 -0.6013  0.0107
   46MOL   H46929359   2.959   5.110   2.576 -2.9096 -0.6664  2.3378
   46MOL   H47029360   2.897   5.384   2.449 -0.1314  0.9122  2.3275
   46MOL   H47129361   3.021   5.285   2.392  0.2921 -2.6429  0.9673
   46MOL   H47229362   3.150   5.448   2.429  2.0709  1.3171  0.0480
   46MOL   H47329363   3.191   5.592   2.693  1.3892  0.1975  0.4805
   46MOL   H47429364   3.216   5.631   2.529 -2.2468  1.1547  1.6611
   46MOL   H47529365   3.353   5.401   2.667 -0.0974 -0.8645 -2.5327
   46MOL   H47629366   3.407   5.473   2.518 -3.5587 -1.4966 -0.8873
   46MOL   H47729367   3.547   5.528   2.710 -1.0914 -1.5765 -0.8210
   46MOL   H47829368   3.407   5.592   2.795 -0.9609  3.2643 -0.8424
   46MOL   H47929369   3.527   5.705   2.538 -2.0503  2.5887  0.0518
   46MOL   H48029370   3.588   5.753   2.682  0.8340 -1.6816  1.0623
   46MOL   H48129371   3.331   5.830   2.589 -1.5245 -2.7222  1.2605
   46MOL   C48229372   3.380   5.881   2.774 -0.8279  0.0569 -0.7585
   46MOL   O48329373   3.434   5.841   2.879  0.3308 -0.8753  0.9830
   46MOL   C48429374   3.298   6.006   2.758  0.4666  0.6215  0.3237
   46MOL   C48529375   3.256   6.081   2.890  0.3399  0.1382 -0.4045
   46MOL   C48629376   3.362   6.171   2.955  0.2635 -0.2177 -0.6660
   46MOL   C48729377   3.329   6.220   3.100 -0.1461 -0.1765  0.3555
   46MOL   C48829378   3.448   6.296   3.158 -0.3224 -0.3563  0.1911
   46MOL   O48929379   3.537   6.342   3.089  0.4976 -0.2383  0.4708
   46MOL   N49029380   3.450   6.305   3.294  0.8289  0.9487 -0.4639
   46MOL   C49129381   3.550   6.362   3.373 -0.2172  0.9632  0.3314
   46MOL   C49229382   3.679   6.283   3.378  0.0390 -0.3235 -1.2827
   46MOL   C49329383   3.785   6.358   3.447 -0.5246  0.5133 -0.4361
   46MOL   C49429384   3.932   6.301   3.436  0.1460  0.0494 -0.2569
   46MOL   N49529385   3.981   6.256   3.310  0.0881  0.5434 -0.5392
   46MOL   H49629386   3.362   6.079   2.708  1.2697 -1.2585 -1.4853
   46MOL   H49729387   3.206   5.982   2.705  0.3320  1.6826  0.0716
   46MOL   H49829388   3.176   6.151   2.864  0.5991 -0.3632 -2.6464
   46MOL   H49929389   3.202   6.028   2.968 -0.5113  1.6688  0.0784
   46MOL   H50029390   3.378   6.251   2.883 -0.5596  0.3382 -0.2396
   46MOL   H50129391   3.455   6.114   2.958  1.0620  1.1025 -0.0762
   46MOL   H50229392   3.315   6.134   3.165  0.7629  0.2717  1.1669
   46MOL   H50329393   3.240   6.283   3.095 -0.9689 -1.4747 -2.3730
   46MOL   H50429394   3.387   6.244   3.343  3.8552 -2.1695 -0.2222
   46MOL   H50529395   3.511   6.364   3.475  2.1005  0.4754  1.2378
   46MOL   H50629396   3.562   6.467   3.344 -1.4300  0.3261 -2.6845
   46MOL   H50729397   3.670   6.187   3.428  2.6036 -0.6041 -1.3098
   46MOL   H50829398   3.713   6.250   3.280  0.1666 -0.9126 -1.0399
   46MOL   H50929399   3.771   6.385   3.552  0.1808 -0.0076 -0.1998
   46MOL   H51029400   3.794   6.450   3.390 -0.0461  1.7412  1.5546
   46MOL   H51129401   3.953   6.228   3.515  0.3808  0.3267 -0.0635
   46MOL   H51229402   3.994   6.387   3.461  0.7171 -0.0735 -1.2191
   46MOL   H51329403   4.022   6.329   3.253 -0.8403  0.1338 -1.7586
   46MOL   C51429404   3.971   6.132   3.256  0.4127 -0.7863 -0.4203
   46MOL   O51529405   3.928   6.041   3.318  0.1578  0.1987 -0.2377
   46MOL   C51629406   4.017   6.115   3.109  0.1096  0.4351 -0.2023
   46MOL   C51729407   3.916   6.020   3.042 -0.0469 -0.6319  0.2698
   46MOL   C51829408   3.780   6.087   3.010 -0.0329 -0.4998 -0.8536
   46MOL   C51929409   3.765   6.156   2.868  0.0453  0.3334  0.3165
   46MOL   C52029410   3.740   6.068   2.746 -0.3666 -0.0298  0.6720
   46MOL   O52129411   3.764   5.945   2.746  0.1819  0.0000 -0.5976
   46MOL   N52229412   3.674   6.124   2.644  0.1590 -0.2556  0.9572
   46MOL   C52329413   3.610   6.053   2.533  0.5145 -0.1961  0.2513
   46MOL   C52429414   3.601   6.133   2.403 -0.1830  0.8980 -0.5071
   46MOL   C52529415   3.486   6.090   2.314  0.9258  0.6518 -0.4640
   46MOL   C52629416   3.511   5.972   2.223 -0.1102 -0.2888 -0.8758
   46MOL   N52729417   3.391   5.929   2.143  0.1762  0.2682  0.0645
   46MOL   H52829418   4.028   6.211   3.059  0.6275 -1.2049 -3.3602
   46MOL   H52929419   4.115   6.066   3.109  0.7250  1.5959  1.4456
   46MOL   H53029420   3.956   5.972   2.953 -0.2855 -1.8988  0.8430
   46MOL   H53129421   3.889   5.935   3.104 -0.4300  1.0593  2.4987
   46MOL   H53229422   3.733   6.142   3.091  1.7214  1.1773 -0.9336
   46MOL   H53329423   3.706   6.007   3.004  0.0111 -0.7098  1.2599
   46MOL   H53429424   3.841   6.227   2.837  1.1551 -0.4626  1.1743
   46MOL   H53529425   3.676   6.217   2.882 -0.6205  0.0212 -2.3286
   46MOL   H53629426   3.645   6.220   2.659 -0.1134  0.4274 -3.3296
   46MOL   H53729427   3.504   6.029   2.547  0.4633 -0.5920 -0.7718
   46MOL   H53829428   3.661   5.959   2.515  0.8323  0.0331 -0.0600
   46MOL   H53929429   3.601   6.240   2.424  4.9353  1.0028 -0.2993
   46MOL   H54029430   3.694   6.119   2.348 -1.0039  2.9020 -2.4934
   46MOL   H54129431   3.468   6.169   2.241 -1.8535 -0.3776 -0.9497
   46MOL   H54229432   3.398   6.071   2.375  1.7137  0.4737  0.6188
   46MOL   H54329433   3.568   5.891   2.271  0.4461  1.2962  1.1960
   46MOL   H54429434   3.583   6.003   2.147  2.1320  1.1038  1.7137
   46MOL   H54529435   3.358   5.988   2.069  0.7938  2.3186  1.3754
   46MOL   C54629436   3.318   5.819   2.182 -0.0608 -0.8750 -0.3094
   46MOL   O54729437   3.332   5.768   2.294 -0.7546 -0.2794  0.0691
   46MOL   C54829438   3.218   5.775   2.077  0.0834  0.4295  0.3273
   46MOL   C54929439   3.163   5.636   2.102  0.2560  0.2169  0.2928
   46MOL   C55029440   3.046   5.592   2.003 -0.2129 -0.3900  0.2977
   46MOL   C55129441   2.973   5.458   2.038  0.0319 -0.3248 -0.0320
   46MOL   C55229442   2.890   5.418   1.915 -0.5983 -0.2856 -0.0880
   46MOL   O55329443   2.767   5.446   1.915 -0.4486 -0.1688 -0.4089
   46MOL   N55429444   2.950   5.353   1.817  0.0347 -0.4556  1.2182
   46MOL   C55529445   2.876   5.307   1.698 -0.5965 -0.6280  0.3887
   46MOL   C55629446   2.876   5.416   1.591  0.1111 -0.0957  0.3817
   46MOL   C55729447   2.793   5.389   1.463 -0.6699  0.1695  0.4934
   46MOL   C55829448   2.794   5.500   1.358 -0.2300 -0.0657 -0.3556
   46MOL   N55929449   2.714   5.464   1.242  0.2491  0.3176 -0.4094
   46MOL   H56029450   3.134   5.845   2.084 -0.0483 -0.0231  4.0910
   46MOL   H56129451   3.251   5.789   1.974 -1.4236 -0.7142 -0.3472
   46MOL   H56229452   3.248   5.570   2.082 -1.4657 -2.0929  0.3540
   46MOL   H56329453   3.132   5.617   2.205 -1.4244 -2.1899 -0.6041
   46MOL   H56429454   3.098   5.589   1.907 -0.7023  0.2587  0.0080
   46MOL   H56529455   2.978   5.676   1.992  1.9732  1.4708  0.4426
   46MOL   H56629456   2.908   5.469   2.125 -1.5062  0.6464 -1.2704
   46MOL   H56729457   3.036   5.374   2.066 -0.7095 -0.9981 -0.3604
   46MOL   H56829458   3.049   5.339   1.832  0.0579 -0.2525  1.2484
   46MOL   H56929459   2.776   5.280   1.729 -1.0115  1.6916  1.2168
   46MOL   H57029460   2.915   5.213   1.659  1.9698  0.5107  0.0965
   46MOL   H57129461   2.848   5.516   1.623 -0.1945 -0.2629  0.6376
   46MOL   H57229462   2.971   5.427   1.539 -1.5768 -0.4833 -2.8978
   46MOL   H57329463   2.691   5.381   1.502  0.0409 -0.4332  2.2701
   46MOL   H57429464   2.826   5.293   1.423 -1.5091  0.6404 -1.3602
   46MOL   H57529465   2.890   5.531   1.317  0.6512  1.0622  2.4330
   46MOL   H57629466   2.762   5.597   1.396 -0.3107 -0.8442  1.5876
   46MOL   H57729467   2.657   5.381   1.237 -0.1815  0.7572 -3.8971
   46MOL   C57829468   2.692   5.550   1.139 -0.4437 -1.2626  0.4570
   46MOL   O57929469   2.743   5.664   1.139 -0.0661 -0.3737 -1.0477
   46MOL   C58029470   2.616   5.500   1.013 -0.1843 -0.5605 -0.3089
   46MOL   C58129471   2.484   5.434   1.038  0.1597  0.3552 -0.2438
   46MOL   C58229472   2.393   5.425   0.911  0.1673 -0.6869  0.2030
   46MOL   C58329473   2.425   5.303   0.817  0.4639  0.3675  0.4428
   46MOL   C58429474   2.342   5.174   0.853 -0.4251 -0.2397  0.9096
   46MOL   O58529475   2.234   5.185   0.909 -0.4507  0.4538 -0.4897
   46MOL   N58629476   2.406   5.053   0.846  0.1380  0.3367  0.1456
   46MOL   C58729477   2.354   4.919   0.904  0.0346  0.2929  0.7731
   46MOL   C58829478   2.334   4.819   0.796 -0.3913  0.2468  0.3254
   46MOL   C58929479   2.202   4.859   0.733 -0.0815  0.2356  0.0286
   46MOL   C59029480   2.144   4.772   0.624  0.6754  0.0010  0.1948
   46MOL   N59129481   2.214   4.797   0.492  0.4568 -0.2926  0.7566
   46MOL   H59229482   2.602   5.581   0.941  0.9515  0.1743  0.2838
   46MOL   H59329483   2.689   5.431   0.969  0.9527 -0.0335  0.7126
   46MOL   H59429484   2.502   5.330   1.066  1.2216  0.2269 -1.3397
   46MOL   H59529485   2.415   5.475   1.111 -0.2852 -0.6216 -0.1158
   46MOL   H59629486   2.386   5.518   0.855  1.1193 -0.1539  0.9541
   46MOL   H59729487   2.289   5.414   0.940  0.3805 -2.0283  0.4935
   46MOL   H59829488   2.531   5.281   0.826  0.8467  1.3662 -1.3380
   46MOL   H59929489   2.392   5.337   0.718 -0.3672  1.2167  0.9969
   46MOL   H60029490   2.501   5.048   0.812  0.6168 -0.6714  1.5880
   46MOL   H60129491   2.276   4.920   0.980 -1.0257 -0.4546 -0.2944
   46MOL   H60229492   2.434   4.898   0.974 -0.9414  0.3230  1.9207
   46MOL   H60329493   2.419   4.826   0.728 -2.3115  0.2363 -2.1244
   46MOL   H60429494   2.317   4.717   0.831  1.3432  0.7791  2.8414
   46MOL   H60529495   2.216   4.957   0.688 -0.1554 -0.0538 -0.6280
   46MOL   H60629496   2.126   4.883   0.809  1.7025  0.3655  1.8124
   46MOL   H60729497   2.043   4.808   0.607  0.1159 -1.3649  0.5246
   46MOL   H60829498   2.140   4.666   0.651  0.3479  0.2858  1.2944
   46MOL   H60929499   2.167   4.872   0.443 -1.9401 -0.4161  2.7570
   46MOL   C61029500   2.317   4.740   0.444 -1.1619 -0.2115 -0.3187
   46MOL   O61129501   2.356   4.638   0.496  0.1753  0.5274 -0.7271
   46MOL   C61229502   2.387   4.800   0.318 -0.1961  0.4354 -0.9614
   46MOL   C61329503   2.511   4.722   0.270 -0.3489 -0.1282 -0.8382
   46MOL   C61429504   2.474   4.601   0.181  0.2779  0.3142 -0.5873
   46MOL   C61529505   2.591   4.523   0.126 -0.0979  0.1170 -0.1002
   46MOL   C61629506   2.652   4.419   0.226  0.4567  0.2828 -0.5181
   46MOL   O61729507   2.765   4.440   0.265  0.1408  0.4519  0.6578
   46MOL   N61829508   2.586   4.304   0.240 -0.1616 -0.0753  0.0046
   46MOL   C61929509   2.611   4.206   0.350  0.1662 -0.2314 -0.8151
   46MOL   C62029510   2.476   4.184   0.416 -0.6007 -0.4720  0.3553
   46MOL   C62129511   2.418   4.305   0.501  0.1974 -0.5551  0.3118
   46MOL   C62229512   2.290   4.272   0.574 -0.0641 -0.3846  0.5062
   46MOL   N62329513   2.271   4.385   0.661 -0.2981 -0.5426  0.5239
   46MOL   H62429514   2.323   4.819   0.232  2.8153  2.0480 -2.9415
   46MOL   H62529515   2.420   4.902   0.341 -0.9124  0.7961 -1.5063
   46MOL   H62629516   2.583   4.780   0.213  1.1864 -0.4520  0.7261
   46MOL   H62729517   2.566   4.690   0.359 -0.0718  1.7457 -0.3157
   46MOL   H62829518   2.426   4.645   0.094  2.9003  2.1826 -1.1382
   46MOL   H62929519   2.410   4.528   0.231 -0.6672  1.4125 -0.1603
   46MOL   H63029520   2.676   4.582   0.092 -0.0434  0.5314  0.7568
   46MOL   H63129521   2.557   4.467   0.039 -0.1162 -0.3063  0.1785
   46MOL   H63229522   2.501   4.294   0.188 -0.3484 -2.4247  0.6986
   46MOL   H63329523   2.684   4.241   0.423  0.1887  0.4238 -1.1477
   46MOL   H63429524   2.660   4.122   0.303  0.7378 -0.6760  0.5543
   46MOL   H63529525   2.401   4.140   0.350 -4.0967  4.8497  0.4908
   46MOL   H63629526   2.498   4.097   0.478  2.8293 -2.1726 -3.0105
   46MOL   H63729527   2.410   4.396   0.442 -0.3219  0.0390  1.2831
   46MOL   H63829528   2.492   4.326   0.578 -1.6175  2.0222  1.4227
   46MOL   H63929529   2.285   4.175   0.624 -1.6659 -0.6226 -0.0840
   46MOL   H64029530   2.212   4.268   0.497  1.8114 -1.2890 -1.4128
   46MOL   H64129531   2.296   4.467   0.609  1.4147 -0.8242  0.8768
   46MOL   H64229532   2.173   4.404   0.677 -0.5604 -0.8385 -0.7078
   47MOL     C129533   5.696   1.226   0.418  0.3348 -0.0677 -0.4707
   47MOL     O229534   5.658   1.150   0.328 -0.4451 -0.2959 -0.3217
   47MOL     C329535   5.758   1.177   0.553 -0.3510  0.1278  0.0153
   47MOL     C429536   5.882   1.084   0.535 -0.3987 -0.1183 -0.0204
   47MOL     C529537   5.935   1.001   0.654 -0.0282  0.4182  0.5629
   47MOL     C629538   5.831   0.908   0.713 -0.1044  0.4191  0.4738
   47MOL     C729539   5.747   0.985   0.816 -0.3837  1.0233 -0.3181
   47MOL     O829540   5.802   1.054   0.901  0.1436 -0.2146  0.1105
   47MOL     N929541   5.616   0.965   0.815 -0.3125  0.7883 -0.4012
   47MOL    C1029542   5.520   1.047   0.889  1.1119 -0.0476  0.3319
   47MOL    C1129543   5.459   1.137   0.781  0.3439 -0.3116  0.7107
   47MOL    C1229544   5.326   1.204   0.811  0.1764 -0.3345  0.2021
   47MOL    C1329545   5.332   1.280   0.946 -0.0689  0.1752 -0.6160
   47MOL    N1429546   5.202   1.306   1.002 -0.1199  0.6896  0.3186
   47MOL    H1529547   5.783   1.262   0.615 -0.1811  0.8496 -1.0266
   47MOL    H1629548   5.679   1.113   0.593 -0.4083 -1.8169 -3.0424
   47MOL    H1729549   5.876   1.012   0.453  0.9733  0.5701 -0.7440
   47MOL    H1829550   5.957   1.156   0.500 -2.9227  2.6270  0.0314
   47MOL    H1929551   5.985   1.056   0.733  0.5192 -2.0148  1.9472
   47MOL    H2029552   6.014   0.940   0.610 -1.4575  0.1369 -1.7328
   47MOL    H2129553   5.879   0.834   0.776  0.9646  1.9639  1.5319
   47MOL    H2229554   5.769   0.864   0.635  0.2123  0.1341  0.3855
   47MOL    H2329555   5.575   0.889   0.763  1.6384 -0.9098  0.4441
   47MOL    H2429556   5.578   1.102   0.963 -2.0972  2.9609  0.7332
   47MOL    H2529557   5.444   0.984   0.935  0.3202  0.7025  0.0704
   47MOL    H2629558   5.530   1.216   0.758 -0.5136  0.8019  1.7989
   47MOL    H2729559   5.453   1.085   0.685  2.0931  1.1256 -0.2000
   47MOL    H2829560   5.255   1.121   0.809 -1.7220  1.2600  0.2379
   47MOL    H2929561   5.299   1.272   0.731 -1.1065 -0.3041  0.6538
   47MOL    H3029562   5.377   1.378   0.927  0.6499 -0.0652 -0.1730
   47MOL    H3129563   5.387   1.219   1.017 -0.7065 -0.2648 -0.4942
   47MOL    H3229564   5.146   1.359   0.937  2.7764  0.0699 -2.7522
   47MOL    H3329565   5.691   1.334   0.408  0.7081  0.0794  0.8621
   47MOL    C3429566   5.153   1.266   1.121  0.1157  0.4212  0.9699
   47MOL    O3529567   5.205   1.183   1.192  0.1815 -0.1907 -0.0671
   47MOL    C3629568   5.012   1.322   1.167 -0.0310 -0.0905 -0.5588
   47MOL    C3729569   4.990   1.307   1.318  0.4497  0.4895 -0.2967
   47MOL    C3829570   5.076   1.400   1.406  0.1269 -0.4354 -0.4811
   47MOL    C3929571   5.093   1.357   1.559  0.1802  0.0833  0.8593
   47MOL    C4029572   4.983   1.398   1.653 -0.0787 -0.2274  0.3948
   47MOL    O4129573   4.927   1.503   1.637  0.9244  0.0089  0.4418
   47MOL    N4229574   4.944   1.304   1.740 -0.1581 -0.2892 -0.4256
   47MOL    C4329575   4.824   1.304   1.812  0.3244 -0.2093  0.6242
   47MOL    C4429576   4.727   1.217   1.724  0.4900 -0.7227 -0.0477
   47MOL    C4529577   4.585   1.224   1.767  0.4263 -0.1470  0.1314
   47MOL    C4629578   4.518   1.360   1.727  0.0205 -0.0946  0.3791
   47MOL    N4729579   4.374   1.366   1.765 -0.1876  0.3960 -0.0936
   47MOL    H4829580   4.989   1.421   1.128  0.8962 -0.5810 -2.4379
   47MOL    H4929581   4.938   1.256   1.122 -0.4280 -0.5933  0.8143
   47MOL    H5029582   4.887   1.332   1.343  0.3635 -0.8678  0.7963
   47MOL    H5129583   5.013   1.206   1.351  2.5676  0.9976 -0.1554
   47MOL    H5229584   5.050   1.504   1.384 -3.3610 -0.8465  1.4161
   47MOL    H5329585   5.176   1.381   1.368  0.4178 -0.9845  0.5594
   47MOL    H5429586   5.185   1.403   1.596 -0.5920 -0.7072  3.8780
   47MOL    H5529587   5.113   1.252   1.580 -2.3771 -0.8041 -0.9918
   47MOL    H5629588   4.990   1.214   1.741 -1.1168 -0.7917  1.1243
   47MOL    H5729589   4.795   1.409   1.822  0.3520 -0.5085  4.2921
   47MOL    H5829590   4.834   1.268   1.914 -0.3394  0.7781  1.0503
   47MOL    H5929591   4.738   1.256   1.623  1.4795  0.6544  0.5805
   47MOL    H6029592   4.752   1.111   1.724  0.2650 -0.7798  0.5860
   47MOL    H6129593   4.583   1.232   1.875  2.6314 -1.4525  0.3009
   47MOL    H6229594   4.513   1.149   1.734 -0.8139  1.0001  0.1694
   47MOL    H6329595   4.531   1.386   1.622 -0.7430 -1.0916  0.0262
   47MOL    H6429596   4.567   1.434   1.791  2.7562 -0.6279 -1.0182
   47MOL    H6529597   4.333   1.286   1.809  0.2079  0.6913  0.8176
   47MOL    C6629598   4.306   1.484   1.761 -0.3532  0.3861 -0.2334
   47MOL    O6729599   4.351   1.589   1.715 -0.5166  0.3027 -0.3664
   47MOL    C6829600   4.163   1.486   1.801 -0.0949  0.2143  0.2809
   47MOL    C6929601   4.086   1.596   1.724 -0.1590  0.0131  0.2127
   47MOL    C7029602   3.936   1.591   1.754  0.0018  0.1162 -0.6250
   47MOL    C7129603   3.849   1.655   1.650  0.2898 -1.2135 -0.1859
   47MOL    C7229604   3.841   1.576   1.518  1.0677  0.3367  0.0983
   47MOL    O7329605   3.821   1.452   1.524 -0.3392  0.9080  0.1576
   47MOL    N7429606   3.849   1.646   1.400 -0.5767 -0.6305 -0.8626
   47MOL    C7529607   3.838   1.588   1.266  0.0997 -0.0681  0.0556
   47MOL    C7629608   3.688   1.572   1.222  0.3318  0.4926 -1.1094
   47MOL    C7729609   3.674   1.521   1.075 -0.1114 -0.2221  0.5595
   47MOL    C7829610   3.690   1.640   0.980  0.8213  0.3178  0.3592
   47MOL    N7929611   3.714   1.613   0.839 -0.3227 -0.7379 -0.6255
   47MOL    H8029612   4.117   1.391   1.774 -0.6482  0.7555 -0.7167
   47MOL    H8129613   4.165   1.493   1.910  0.2682 -1.7240  0.4026
   47MOL    H8229614   4.125   1.697   1.733  0.5982 -0.4274  2.1264
   47MOL    H8329615   4.096   1.577   1.617  0.8549 -2.7048  0.7332
   47MOL    H8429616   3.914   1.645   1.846  2.3220 -1.0724  0.6614
   47MOL    H8529617   3.909   1.485   1.762  0.7615 -0.2167 -2.2206
   47MOL    H8629618   3.889   1.756   1.640 -1.9172 -0.4356 -1.5302
   47MOL    H8729619   3.744   1.661   1.678  0.0153 -0.1160 -1.4309
   47MOL    H8829620   3.871   1.744   1.405  1.1084 -0.9679 -1.1542
   47MOL    H8929621   3.885   1.489   1.267 -1.0815 -0.6318  0.8516
   47MOL    H9029622   3.896   1.652   1.200 -1.2913  2.8246  1.5295
   47MOL    H9129623   3.636   1.508   1.293  0.9782  0.5855 -0.5457
   47MOL    H9229624   3.657   1.675   1.235 -3.6938 -0.6915 -0.5597
   47MOL    H9329625   3.577   1.472   1.069  0.0127 -0.3712 -0.2311
   47MOL    H9429626   3.756   1.452   1.055 -0.5578 -0.6497  0.2019
   47MOL    H9529627   3.771   1.710   1.004  0.4550  1.2747 -1.1862
   47MOL    H9629628   3.605   1.707   0.985  0.9810  0.5334  0.2011
   47MOL    H9729629   3.773   1.533   0.821 -0.4867 -1.1195  0.4502
   47MOL    C9829630   3.700   1.701   0.740  0.3350 -0.2313 -0.1910
   47MOL    O9929631   3.641   1.808   0.768  0.2360 -0.4740  0.5810
   47MOL   C10029632   3.765   1.691   0.606  0.2994  0.6471  0.5067
   47MOL   C10129633   3.664   1.636   0.497 -0.2672  0.4836 -0.4409
   47MOL   C10229634   3.630   1.484   0.523 -0.3064 -0.4870  0.3275
   47MOL   C10329635   3.536   1.430   0.405 -0.1048 -0.0083  0.1081
   47MOL   C10429636   3.549   1.280   0.384  0.7093  0.4181 -0.2865
   47MOL   O10529637   3.654   1.227   0.401  0.1565  0.7319 -0.0773
   47MOL   N10629638   3.432   1.217   0.353  0.3425 -0.0455 -0.1659
   47MOL   C10729639   3.418   1.069   0.337  0.0816 -0.2806 -0.7481
   47MOL   C10829640   3.484   1.007   0.214 -0.5714  0.0563  0.6209
   47MOL   C10929641   3.458   0.854   0.216  0.7229 -0.1441  0.2079
   47MOL   C11029642   3.555   0.789   0.115 -0.2996  0.4423  0.5342
   47MOL   N11129643   3.510   0.655   0.089  0.0681  0.5613  0.0025
   47MOL   H11229644   3.804   1.788   0.576 -1.5853  1.1911 -0.2424
   47MOL   H11329645   3.844   1.616   0.615 -0.3570  0.1819  2.5659
   47MOL   H11429646   3.576   1.701   0.495 -0.0525  0.7848 -3.9280
   47MOL   H11529647   3.719   1.663   0.407  2.8897 -1.5507  0.7856
   47MOL   H11629648   3.579   1.476   0.619 -1.1957  1.7440  0.0890
   47MOL   H11729649   3.725   1.431   0.522 -0.5073 -0.8465 -1.1475
   47MOL   H11829650   3.541   1.493   0.316  0.8777 -1.0283 -0.5692
   47MOL   H11929651   3.432   1.446   0.436 -0.0355  2.3949 -0.7642
   47MOL   H12029652   3.344   1.266   0.341  2.0781  3.3485  0.6421
   47MOL   H12129653   3.311   1.051   0.330 -0.1980  1.1553 -0.3332
   47MOL   H12229654   3.449   1.020   0.430 -1.7043  0.9708  0.5372
   47MOL   H12329655   3.447   1.052   0.122  0.0398 -0.2891  0.2038
   47MOL   H12429656   3.590   1.029   0.210 -1.0326  2.3121  0.0946
   47MOL   H12529657   3.359   0.826   0.177  1.7346 -2.0705 -1.1011
   47MOL   H12629658   3.462   0.813   0.317 -2.2450 -1.2512 -0.0652
   47MOL   H12729659   3.654   0.775   0.158  0.1225 -0.4891 -0.7129
   47MOL   H12829660   3.583   0.849   0.028  2.4633  0.0224  1.0796
   47MOL   H12929661   3.415   0.629   0.112 -0.0698  0.7877 -0.3053
   47MOL   C13029662   3.592   0.564   0.031 -0.5810 -1.1998  0.4469
   47MOL   O13129663   3.700   0.587   7.685 -0.0932 -0.5072 -0.1753
   47MOL   C13229664   3.540   0.422   0.024 -0.2878 -0.1632  0.3987
   47MOL   C13329665   3.581   0.353   7.591 -0.6585 -0.2643 -0.6869
   47MOL   C13429666   3.542   0.421   7.458  0.3156  0.3183 -0.6490
   47MOL   C13529667   3.535   0.325   7.331 -0.0027 -0.5378 -0.5069
   47MOL   C13629668   3.409   0.240   7.310  0.0286 -0.8446  0.5139
   47MOL   O13729669   3.332   0.232   7.405  0.2099  0.3889 -0.1113
   47MOL   N13829670   3.389   0.191   7.191  0.0201  0.0681 -0.4727
   47MOL   C13929671   3.280   0.092   7.154  0.5211 -0.7842 -0.3119
   47MOL   C14029672   3.301   7.652   7.221  0.0604 -0.0129  0.0475
   47MOL   C14129673   3.233   7.535   7.142  0.6804 -0.6288  0.1813
   47MOL   C14229674   3.269   7.395   7.197  0.7870 -0.2824  0.9565
   47MOL   N14329675   3.198   7.290   7.140 -0.3522  0.4161  0.5884
   47MOL   H14429676   3.579   0.362   0.107 -2.1520 -0.2595  1.2289
   47MOL   H14529677   3.432   0.433   0.025 -0.3641 -0.9194  1.7983
   47MOL   H14629678   3.689   0.335   7.583 -0.8719 -2.2292  0.5654
   47MOL   H14729679   3.539   0.253   7.591  1.7163 -1.2982 -0.1670
   47MOL   H14829680   3.621   0.495   7.445 -0.7446  1.9298  1.7008
   47MOL   H14929681   3.452   0.483   7.461  0.4238  0.3667  2.3800
   47MOL   H15029682   3.618   0.255   7.332  0.6957  0.2812 -0.3454
   47MOL   H15129683   3.549   0.387   7.242 -1.1211  0.7440  0.1937
   47MOL   H15229684   3.470   0.210   7.134 -1.4860  2.6590 -1.8611
   47MOL   H15329685   3.294   0.099   7.046 -0.2269  2.6609 -0.2330
   47MOL   H15429686   3.183   0.129   7.186  0.0005 -1.8163 -0.6985
   47MOL   H15529687   3.410   7.642   7.223  0.2033  1.5740  0.3994
   47MOL   H15629688   3.251   7.654   7.317 -2.4466 -1.9767 -1.1512
   47MOL   H15729689   3.271   7.544   7.040 -1.6168  0.5618 -0.5919
   47MOL   H15829690   3.125   7.548   7.142  0.6494 -0.8908 -0.0529
   47MOL   H15929691   3.250   7.396   7.304  0.1732 -0.7347  0.8549
   47MOL   H16029692   3.373   7.376   7.169  0.1325 -0.8532 -1.2355
   47MOL   H16129693   3.129   7.319   7.072 -0.1073  0.2354  0.2657
   47MOL   C16229694   3.184   7.160   7.188  0.8561  0.0909  0.0547
   47MOL   O16329695   3.248   7.118   7.281 -0.8637 -0.1403  0.3742
   47MOL   C16429696   3.081   7.067   7.113 -0.1853 -0.7486 -0.1406
   47MOL   C16529697   3.031   6.949   7.189 -0.0559 -0.2241  0.2702
   47MOL   C16629698   2.909   6.883   7.128 -0.0392  0.7638  0.1796
   47MOL   C16729699   2.884   6.735   7.161  0.4451 -0.6570  0.6815
   47MOL   C16829700   2.873   6.711   7.309 -0.3492 -0.2750  0.1642
   47MOL   O16929701   2.829   6.796   7.389  0.0010 -0.0867  0.1901
   47MOL   N17029702   2.920   6.597   7.345  0.0867 -0.1212 -0.8780
   47MOL   C17129703   2.914   6.544   7.480  0.3468 -0.1980 -0.5852
   47MOL   C17229704   2.786   6.471   7.508 -0.2628 -0.2346  0.2184
   47MOL   C17329705   2.800   6.400   7.642 -0.0830  0.1478  0.2935
   47MOL   C17429706   2.838   6.486   0.057  0.3083  0.1703  0.3419
   47MOL   N17529707   2.826   6.426   0.188  0.3698 -0.0231  0.0945
   47MOL   H17629708   2.999   7.128   7.074  2.0779  1.4164 -1.7190
   47MOL   H17729709   3.135   7.025   7.028 -0.5274  0.1413 -0.8058
   47MOL   H17829710   3.108   6.873   7.201  0.6049 -0.0795 -2.5646
   47MOL   H17929711   3.003   6.967   7.292 -1.1845 -1.4038  0.1785
   47MOL   H18029712   2.903   6.891   7.019 -1.9170 -1.3779  0.0892
   47MOL   H18129713   2.823   6.936   7.168  1.5557  2.5344  1.3521
   47MOL   H18229714   2.973   6.681   7.128 -0.2239 -2.0135  1.0787
   47MOL   H18329715   2.807   6.674   7.115  1.7522 -0.5183 -1.7892
   47MOL   H18429716   2.958   6.529   7.280  1.7600  0.0838 -0.1269
   47MOL   H18529717   2.923   6.628   7.549 -0.2018 -1.4532  1.0227
   47MOL   H18629718   3.004   6.485   7.499  0.3615 -0.2872 -0.9230
   47MOL   H18729719   2.700   6.538   7.517  1.2234  1.6616  0.4150
   47MOL   H18829720   2.756   6.407   7.425 -0.3428 -0.2304  0.2435
   47MOL   H18929721   2.871   6.317   7.642  0.3290  0.5055 -0.4520
   47MOL   H19029722   2.706   6.352   7.672 -0.0217 -0.6837 -0.8245
   47MOL   H19129723   2.773   6.573   0.054  0.3392  0.1514 -3.1393
   47MOL   H19229724   2.941   6.518   0.042  0.8164 -0.8139  1.5384
   47MOL   H19329725   2.760   6.357   0.220  0.5121 -0.9372 -1.5139
   47MOL   C19429726   2.883   6.484   0.298  0.1999 -0.0801  0.5201
   47MOL   O19529727   2.955   6.581   0.289 -0.5280 -0.4508 -0.3805
   47MOL   C19629728   2.851   6.423   0.432 -0.6867 -0.2523  0.5521
   47MOL   C19729729   2.975   6.414   0.520  0.1631 -0.1043 -0.8237
   47MOL   C19829730   2.927   6.406   0.662 -0.0575  0.6829  0.7826
   47MOL   C19929731   3.049   6.406   0.760 -0.0186 -0.0470  0.0070
   47MOL   C20029732   3.115   6.546   0.787 -0.3291  0.5421 -0.4787
   47MOL   O20129733   3.206   6.559   0.872  0.5072 -0.7215  0.5863
   47MOL   N20229734   3.056   6.652   0.729  0.5656  0.3115 -0.7352
   47MOL   C20329735   3.103   6.788   0.760  0.1964  0.0771 -0.0406
   47MOL   C20429736   3.203   6.834   0.653 -0.6289 -0.2224  0.1064
   47MOL   C20529737   3.159   6.821   0.514 -0.5793  0.0669  0.5496
   47MOL   C20629738   3.259   6.889   0.416 -0.2428  0.0209  0.6760
   47MOL   N20729739   3.228   7.028   0.385  0.1885  0.3013  0.0354
   47MOL   H20829740   2.774   6.485   0.477  0.9744  2.7818 -0.6024
   47MOL   H20929741   2.794   6.331   0.421 -2.1120  0.2948  2.9930
   47MOL   H21029742   3.035   6.324   0.509  0.0510 -0.4643  1.2837
   47MOL   H21129743   3.034   6.504   0.503  2.3770 -1.2104  0.6438
   47MOL   H21229744   2.875   6.313   0.682 -0.1283  0.1961 -1.5180
   47MOL   H21329745   2.852   6.483   0.680 -0.1992  0.9312 -0.8046
   47MOL   H21429746   3.130   6.345   0.720  0.5793  0.7881 -0.0632
   47MOL   H21529747   3.013   6.362   0.852  1.2949  0.3788  0.7356
   47MOL   H21629748   2.974   6.629   0.675 -0.3776  0.6907  0.5145
   47MOL   H21729749   3.144   6.797   0.860  1.2999  1.5857 -0.6001
   47MOL   H21829750   3.026   6.863   0.738  0.6439  0.4151 -0.4641
   47MOL   H21929751   3.225   6.939   0.672 -0.2576 -0.2607 -0.0994
   47MOL   H22029752   3.294   6.777   0.673 -0.6988 -0.8754 -1.3865
   47MOL   H22129753   3.056   6.855   0.497 -0.0578  1.1881 -0.4728
   47MOL   H22229754   3.174   6.714   0.499 -2.3084 -0.3554  1.6593
   47MOL   H22329755   3.251   6.832   0.324 -0.8953  3.5085 -1.5487
   47MOL   H22429756   3.363   6.882   0.448 -0.0615 -0.8510 -0.0722
   47MOL   H22529757   3.130   7.050   0.380 -1.0300 -4.2421  1.3257
   47MOL   C22629758   3.319   7.118   0.351 -0.4552 -0.0054  0.2860
   47MOL   O22729759   3.438   7.090   0.325  0.1821  0.3605  0.9666
   47MOL   C22829760   3.266   7.261   0.331  0.3649  0.1119  0.7345
   47MOL   C22929761   3.364   7.367   0.387 -0.4435 -0.1772  0.1479
   47MOL   C23029762   3.360   7.385   0.540  0.0663 -1.1716  0.0490
   47MOL   C23129763   3.226   7.430   0.596 -0.2339  0.0743 -0.2693
   47MOL   C23229764   3.176   7.570   0.575  0.0711  0.1979  0.5433
   47MOL   O23329765   3.249   7.665   0.569 -0.6813 -0.3386  0.0104
   47MOL   N23429766   3.045   7.579   0.564 -0.0314 -0.2895 -0.0367
   47MOL   C23529767   2.968   7.696   0.529  0.0467 -0.1258  0.6738
   47MOL   C23629768   2.818   7.663   0.552 -0.1525  1.0789  0.2615
   47MOL   C23729769   2.724   0.085   0.556 -0.4734  1.0602  0.1705
   47MOL   C23829770   2.574   0.045   0.554  0.0349  0.7391 -0.0766
   47MOL   N23929771   2.489   0.165   0.537  0.3999  0.6710  0.0617
   47MOL   H24029772   3.252   7.273   0.224  0.1350  1.9897  0.9540
   47MOL   H24129773   3.162   7.261   0.364  0.3111  0.6037  0.5683
   47MOL   H24229774   3.467   7.342   0.364 -0.2871  0.9630 -0.4500
   47MOL   H24329775   3.348   7.469   0.351  1.0251 -0.1019 -0.3241
   47MOL   H24429776   3.447   7.447   0.561 -0.1890 -0.6393 -0.4452
   47MOL   H24529777   3.394   7.291   0.583 -1.0000 -1.7305 -0.3033
   47MOL   H24629778   3.231   7.417   0.704  0.2767 -1.7881 -0.5085
   47MOL   H24729779   3.148   7.367   0.554 -0.3638 -0.1626  0.3103
   47MOL   H24829780   2.998   7.490   0.578  0.0687 -0.4891 -0.9005
   47MOL   H24929781   2.991   0.042   0.433  0.5751  2.2193  1.9284
   47MOL   H25029782   3.000   0.067   0.603  1.3483 -1.1999  1.1896
   47MOL   H25129783   2.787   7.589   0.478  1.1359  1.5342 -0.7483
   47MOL   H25229784   2.813   7.599   0.641  2.4571 -0.6236 -0.7438
   47MOL   H25329785   2.745   0.131   0.460  1.1307  0.3020  0.1411
   47MOL   H25429786   2.746   0.163   0.629 -1.3156  2.2941 -0.8674
   47MOL   H25529787   2.548   7.685   0.640 -2.0247  1.4132 -0.1775
   47MOL   H25629788   2.553   7.684   0.467 -0.3186  0.9606 -0.1518
   47MOL   H25729789   2.468   0.172   0.438  0.4088 -2.1922 -0.1916
   47MOL   C25829790   2.416   0.229   0.635  0.2510  0.2423  0.1089
   47MOL   O25929791   2.426   0.205   0.756 -0.1243 -0.1824 -0.5192
   47MOL   C26029792   2.323   0.343   0.593 -0.4638 -0.5834 -0.0019
   47MOL   C26129793   2.354   0.469   0.680  0.1314 -0.2789  0.0082
   47MOL   C26229794   2.501   0.512   0.696  0.0642 -0.8518  0.9591
   47MOL   C26329795   2.510   0.640   0.783  1.0878 -0.0437  0.4656
   47MOL   C26429796   2.629   0.728   0.747 -0.0775  1.3845  0.1333
   47MOL   O26529797   2.717   0.678   0.675 -0.1093 -0.1700 -0.0584
   47MOL   N26629798   2.635   0.848   0.798 -0.0042  0.1236 -0.0395
   47MOL   C26729799   2.732   0.952   0.769 -0.3656  0.1745 -0.6475
   47MOL   C26829800   2.834   0.981   0.879 -0.1016 -0.2470 -0.5459
   47MOL   C26929801   2.939   0.869   0.882  0.6154  0.0902  0.5806
   47MOL   C27029802   3.058   0.899   0.972 -0.0565 -0.0151  0.2500
   47MOL   N27129803   3.149   0.787   0.969  0.2300 -0.1144  0.1816
   47MOL   H27229804   2.338   0.371   0.489 -1.3714  1.2619  0.3495
   47MOL   H27329805   2.224   0.313   0.627 -0.8031  1.0402  0.4901
   47MOL   H27429806   2.314   0.556   0.629  2.3102  1.2281  0.7889
   47MOL   H27529807   2.308   0.454   0.778  0.4206  0.5609  0.2797
   47MOL   H27629808   2.537   0.527   0.594  0.6465 -2.1253  0.9634
   47MOL   H27729809   2.572   0.445   0.744  0.9319  0.4774  1.5304
   47MOL   H27829810   2.503   0.623   0.890  0.7008 -0.1088  0.4316
   47MOL   H27929811   2.415   0.692   0.768 -0.2452 -2.4201  0.5043
   47MOL   H28029812   2.561   0.872   0.863 -1.5028  0.9966 -2.0381
   47MOL   H28129813   2.662   1.032   0.746 -1.8274 -0.4998  1.2401
   47MOL   H28229814   2.796   0.931   0.683 -0.3834 -1.2376 -0.3340
   47MOL   H28329815   2.888   1.075   0.871 -0.7356  0.3717  1.8775
   47MOL   H28429816   2.787   0.981   0.977 -0.8535 -1.7088 -0.8997
   47MOL   H28529817   2.971   0.848   0.779 -3.0440 -1.3921 -0.3375
   47MOL   H28629818   2.886   0.777   0.908 -0.3244  0.1137 -1.1766
   47MOL   H28729819   3.022   0.908   1.075  0.5796 -1.5068  0.6171
   47MOL   H28829820   3.102   0.997   0.953 -0.2659 -0.3573 -2.1008
   47MOL   H28929821   3.119   0.699   1.007 -0.1668 -0.5665 -1.1569
   47MOL   C29029822   3.266   0.794   0.908  0.0582 -0.1310  0.1609
   47MOL   O29129823   3.300   0.896   0.852 -0.6912 -0.1760  0.3647
   47MOL   C29229824   3.349   0.668   0.931  0.1011 -0.2027  0.2402
   47MOL   C29329825   3.478   0.661   0.843 -0.1173 -0.0167  0.0751
   47MOL   C29429826   3.449   0.657   0.690  0.2046 -0.7917 -0.8121
   47MOL   C29529827   3.573   0.643   0.601  0.0569  0.4575 -0.7216
   47MOL   C29629828   3.666   0.762   0.605 -0.6383  0.1968 -0.1059
   47MOL   O29729829   3.629   0.876   0.636  0.1435 -0.4041 -0.4567
   47MOL   N29829830   3.790   0.733   0.575 -0.6139  0.1078  0.6995
   47MOL   C29929831   3.899   0.833   0.564 -0.3322 -0.2127 -0.2405
   47MOL   C30029832   4.027   0.799   0.640 -0.0596 -0.0344  0.1845
   47MOL   C30129833   4.009   0.840   0.786  0.5035 -0.2286  0.3158
   47MOL   C30229834   4.127   0.803   0.879 -0.9504 -0.1988 -0.4232
   47MOL   N30329835   4.096   0.817   1.022 -0.0891 -0.2403  0.0009
   47MOL   H30429836   3.376   0.657   1.036  0.5673 -0.1262  0.1279
   47MOL   H30529837   3.276   0.591   0.906 -1.1287  1.4740 -1.5064
   47MOL   H30629838   3.543   0.742   0.876  1.4124 -1.2374  0.1129
   47MOL   H30729839   3.528   0.565   0.855  1.2227  0.6439 -0.1914
   47MOL   H30829840   3.401   0.748   0.653 -0.3066 -0.4899  0.5634
   47MOL   H30929841   3.381   0.573   0.676  2.2075 -2.3361 -1.5641
   47MOL   H31029842   3.537   0.631   0.499  1.4003 -1.0360 -1.0406
   47MOL   H31129843   3.628   0.552   0.626 -2.6603 -0.5880  1.6867
   47MOL   H31229844   3.819   0.638   0.558 -0.9996  0.2841 -1.0420
   47MOL   H31329845   3.868   0.935   0.584 -1.7258 -0.6961  0.1342
   47MOL   H31429846   3.916   0.833   0.457 -0.8082  1.7533 -0.3272
   47MOL   H31529847   4.037   0.691   0.636  0.7443  0.0965 -1.8115
   47MOL   H31629848   4.109   0.840   0.580 -2.6669  0.5831 -3.0811
   47MOL   H31729849   3.921   0.793   0.829 -1.1370  2.2906 -0.2257
   47MOL   H31829850   3.993   0.948   0.786 -0.5784 -0.3797 -0.0719
   47MOL   H31929851   4.221   0.840   0.839 -0.3277  0.7792  1.9094
   47MOL   H32029852   4.141   0.695   0.865 -1.5501 -0.3077 -0.1978
   47MOL   H32129853   4.025   0.755   1.058  0.4778 -0.1575  1.2934
   47MOL   C32229854   4.165   0.891   1.111  0.1391 -0.2153 -0.0011
   47MOL   O32329855   4.252   0.966   1.064  0.0649  0.7670 -0.2180
   47MOL   C32429856   4.135   0.876   1.256 -0.8871 -0.5498 -0.5383
   47MOL   C32529857   4.207   0.760   1.325 -0.3528 -0.2770 -0.1648
   47MOL   C32629858   4.355   0.763   1.346  0.7276 -0.0635 -0.4919
   47MOL   C32729859   4.406   0.863   1.446 -0.3625 -0.3004 -0.2052
   47MOL   C32829860   4.543   0.928   1.411  0.2299  0.0810  0.1619
   47MOL   O32929861   4.646   0.862   1.384 -0.3350 -0.4591 -0.0961
   47MOL   N33029862   4.537   1.061   1.399 -0.0948  0.4423  0.2859
   47MOL   C33129863   4.650   1.144   1.358 -0.9116  0.2204 -0.2033
   47MOL   C33229864   4.684   1.138   1.205  0.0181  0.1846 -0.8860
   47MOL   C33329865   4.557   1.133   1.125 -0.0027  0.1865  0.1724
   47MOL   C33429866   4.588   1.120   0.974  0.2294 -0.5382 -0.3007
   47MOL   N33529867   4.468   1.080   0.907 -0.2564  0.1234  0.4461
   47MOL   H33629868   4.155   0.971   1.306  1.0355 -0.6657 -1.0466
   47MOL   H33729869   4.028   0.857   1.265 -1.4810  2.5239 -0.4538
   47MOL   H33829870   4.155   0.735   1.418 -1.5964  1.2155 -0.4421
   47MOL   H33929871   4.194   0.664   1.274  0.3816 -1.2312  1.4087
   47MOL   H34029872   4.395   0.793   1.249 -2.5594  2.8966 -1.0415
   47MOL   H34129873   4.390   0.665   1.378  1.8894  0.2755 -0.6961
   47MOL   H34229874   4.402   0.806   1.539  0.0427  0.2818  0.1742
   47MOL   H34329875   4.329   0.938   1.463  0.6408  0.7693 -0.3533
   47MOL   H34429876   4.453   1.114   1.413  0.8326  2.5103 -1.5783
   47MOL   H34529877   4.737   1.126   1.421 -0.0780  0.1437 -1.3619
   47MOL   H34629878   4.616   1.242   1.391  2.3589  0.4479  2.8002
   47MOL   H34729879   4.736   1.221   1.157  1.0955  0.9795  1.5666
   47MOL   H34829880   4.730   1.040   1.199  0.2326 -0.1580  4.2451
   47MOL   H34929881   4.489   1.217   1.143 -1.8507 -1.6953  2.3668
   47MOL   H35029882   4.505   1.042   1.155  1.2192 -0.7190 -0.4524
   47MOL   H35129883   4.658   1.038   0.963  0.9824  0.1680 -0.8769
   47MOL   H35229884   4.637   1.209   0.933  0.7531 -0.8979 -0.4549
   47MOL   H35329885   4.406   1.019   0.958  0.7967 -1.1366  0.2619
   47MOL   C35429886   4.420   1.145   0.801  0.0459 -0.2612 -1.3082
   47MOL   O35529887   4.484   1.228   0.741 -0.0210  0.1176 -0.1699
   47MOL   C35629888   4.277   1.097   0.756 -0.5438 -0.3888 -0.9270
   47MOL   C35729889   4.213   1.198   0.659 -0.3995 -0.0626 -0.7042
   47MOL   C35829890   4.065   1.175   0.635  0.1272  0.3403  0.0788
   47MOL   C35929891   3.991   1.285   0.547 -0.2318 -1.2905 -0.4816
   47MOL   C36029892   4.029   1.283   0.392 -0.6472 -0.0269 -0.7877
   47MOL   O36129893   4.143   1.308   0.357 -0.5630  0.8170 -0.0690
   47MOL   N36229894   3.929   1.257   0.304 -0.4784  0.2309 -0.1108
   47MOL   C36329895   3.929   1.302   0.170  0.0436  1.1086  0.1015
   47MOL   C36429896   3.790   1.280   0.097 -0.4636 -0.3939 -0.2655
   47MOL   C36529897   3.776   1.311   7.651  0.1222 -0.0644 -0.3150
   47MOL   C36629898   3.623   1.299   7.611  0.6084  0.1128 -0.4626
   47MOL   N36729899   3.542   1.422   7.637 -0.6701  0.6356 -0.0206
   47MOL   H36829900   4.282   1.000   0.708 -1.0024 -0.0788 -1.6166
   47MOL   H36929901   4.207   1.086   0.840  0.4643 -0.3304 -0.0717
   47MOL   H37029902   4.226   1.298   0.701 -0.2465 -0.4381  0.1407
   47MOL   H37129903   4.264   1.206   0.563 -0.1756  2.1832 -0.4353
   47MOL   H37229904   4.022   1.183   0.735  0.9974 -0.2855  0.5102
   47MOL   H37329905   4.051   1.076   0.591 -1.0428  1.1485 -1.4023
   47MOL   H37429906   4.008   1.386   0.583 -1.7079 -0.8958 -0.8618
   47MOL   H37529907   3.886   1.261   0.567 -0.6362  0.1371 -0.8235
   47MOL   H37629908   3.838   1.232   0.340 -0.5576 -0.3707 -0.7044
   47MOL   H37729909   4.008   1.255   0.111  0.9089  2.1258  0.4342
   47MOL   H37829910   3.953   1.407   0.155  0.5623  0.8403 -1.0323
   47MOL   H37929911   3.762   1.176   0.111  1.7944 -0.8895  0.8127
   47MOL   H38029912   3.711   1.328   0.154  0.0670  1.1633 -0.8148
   47MOL   H38129913   3.841   1.252   7.586  1.2911  0.1775  0.6111
   47MOL   H38229914   3.810   1.414   7.638  1.6625 -0.4741  0.2722
   47MOL   H38329915   3.575   1.207   7.646  0.0105  0.4858 -0.2916
   47MOL   H38429916   3.608   1.267   7.508 -0.7580 -0.4736 -0.0972
   47MOL   H38529917   3.591   1.509   7.621  0.5103  0.0952  0.5881
   47MOL   C38629918   3.419   1.428   7.696 -0.2202 -0.2159 -0.5021
   47MOL   O38729919   3.350   1.330   0.024  0.1603 -0.3708 -0.1555
   47MOL   C38829920   3.376   1.566   0.021  0.5839 -1.0888 -0.0363
   47MOL   C38929921   3.279   1.585   0.132  0.2841  0.2037 -0.0792
   47MOL   C39029922   3.229   1.728   0.153 -0.3374 -0.2479 -0.2803
   47MOL   C39129923   3.160   1.762   0.280 -0.4032  0.4482 -0.0167
   47MOL   C39229924   3.260   1.773   0.391 -0.6222 -0.1417 -0.4279
   47MOL   O39329925   3.373   1.820   0.379 -0.0773  0.6518  0.1340
   47MOL   N39429926   3.223   1.717   0.508 -0.1867 -0.0504 -0.0734
   47MOL   C39529927   3.319   1.694   0.617 -0.3143 -0.2985  0.3846
   47MOL   C39629928   3.257   1.684   0.758  0.2514 -0.1354  0.5721
   47MOL   C39729929   3.356   1.676   0.878 -0.4977  0.7635 -0.1045
   47MOL   C39829930   3.288   1.651   1.015 -0.6985  0.2306  0.0103
   47MOL   N39929931   3.196   1.535   1.003  0.1755  0.0428  0.9089
   47MOL   H40029932   3.470   1.621   0.030  0.1556 -0.2799 -0.4460
   47MOL   H40129933   3.333   1.613   7.633 -1.6562  1.5754  2.3573
   47MOL   H40229934   3.193   1.519   0.131  1.0998 -1.0162  2.8002
   47MOL   H40329935   3.330   1.547   0.221 -1.0169  1.8889  1.4296
   47MOL   H40429936   3.153   1.741   0.075 -1.3668  2.7323  1.1263
   47MOL   H40529937   3.312   1.797   0.136 -0.2475 -0.7239 -1.8989
   47MOL   H40629938   3.092   1.681   0.306  2.4419 -2.3984 -1.0374
   47MOL   H40729939   3.111   1.859   0.274  1.6278  1.7384  3.1257
   47MOL   H40829940   3.129   1.682   0.505 -0.3856  0.5893 -1.3449
   47MOL   H40929941   3.388   1.778   0.611  0.3332 -0.9153 -1.0580
   47MOL   H41029942   3.378   1.607   0.588  3.0567  1.3686  1.8888
   47MOL   H41129943   3.198   1.772   0.782 -0.5989 -1.3695  3.1371
   47MOL   H41229944   3.205   1.589   0.751  1.1889 -0.5918 -0.4701
   47MOL   H41329945   3.424   1.759   0.894 -0.1165  0.3685  0.3472
   47MOL   H41429946   3.425   1.594   0.859 -1.1795 -1.0432  4.6394
   47MOL   H41529947   3.241   1.740   1.057 -0.0010  0.6321 -0.0496
   47MOL   H41629948   3.362   1.629   1.092  1.7115  2.4215 -1.5753
   47MOL   H41729949   3.233   1.456   0.953 -1.8089  0.2656 -0.9813
   47MOL   C41829950   3.074   1.534   1.053  0.0756  0.5023 -0.6954
   47MOL   O41929951   3.027   1.631   1.120 -0.5341 -0.2174  0.2804
   47MOL   C42029952   2.991   1.409   1.028  0.1738 -0.6417  0.1147
   47MOL   C42129953   2.914   1.365   1.155  0.4943  0.5432 -0.1892
   47MOL   C42229954   2.854   1.222   1.137  0.4973  0.3079  0.7010
   47MOL   C42329955   2.786   1.159   1.268  0.2307  0.1293  0.0625
   47MOL   C42429956   2.891   1.093   1.364  0.7314 -0.0750  0.6346
   47MOL   O42529957   3.007   1.067   1.331 -0.1118  0.0602 -0.1025
   47MOL   N42629958   2.860   1.088   1.496  0.4250 -0.6794  0.5238
   47MOL   C42729959   2.943   1.034   1.602  0.6998  0.4422  0.0370
   47MOL   C42829960   2.898   0.891   1.622  0.3389  0.4871 -0.1980
   47MOL   C42929961   2.959   0.828   1.751 -0.3016 -0.1532 -0.4880
   47MOL   C43029962   2.914   0.690   1.793  0.5178  0.1260 -0.4851
   47MOL   N43129963   2.778   0.705   1.839  0.5364  0.6950  0.3899
   47MOL   H43229964   2.918   1.424   0.948  0.5419  3.8684  0.4917
   47MOL   H43329965   3.055   1.322   1.012 -1.7139 -2.0572  0.0477
   47MOL   H43429966   2.974   1.372   1.246 -0.2445  1.9730  0.1930
   47MOL   H43529967   2.835   1.435   1.179  0.0070 -0.3683  0.9310
   47MOL   H43629968   2.933   1.157   1.098 -0.2552  0.2740 -0.7935
   47MOL   H43729969   2.783   1.228   1.055 -1.2745  0.8894  2.2390
   47MOL   H43829970   2.711   1.082   1.252 -1.7747  2.0851 -0.3308
   47MOL   H43929971   2.723   1.233   1.318 -0.5750 -0.2576 -0.3735
   47MOL   H44029972   2.767   1.120   1.522  0.9540  1.1475  0.2474
   47MOL   H44129973   2.922   1.091   1.693  0.1410 -0.4986  0.5031
   47MOL   H44229974   3.051   1.030   1.584  0.6804 -0.7041  0.1799
   47MOL   H44329975   2.789   0.890   1.628  0.3453 -0.5623 -0.2361
   47MOL   H44429976   2.925   0.825   1.539 -1.4481  0.0600 -0.4605
   47MOL   H44529977   2.932   0.893   1.835 -2.0675 -3.3318  1.5088
   47MOL   H44629978   3.068   0.826   1.746 -0.2037 -2.3775  1.8216
   47MOL   H44729979   2.983   0.636   1.859  2.1681  1.2763 -1.2315
   47MOL   H44829980   2.919   0.614   1.714  0.6737  0.1706 -0.5182
   47MOL   H44929981   2.702   0.676   1.780 -0.5340  2.7887  0.7096
   47MOL   C45029982   2.744   0.732   1.966  0.3534  0.4994 -0.4861
   47MOL   O45129983   2.827   0.756   2.052  0.2404  0.4876  0.0329
   47MOL   C45229984   2.598   0.739   1.999 -0.1173 -0.0935  0.0504
   47MOL   C45329985   2.547   0.595   2.027  0.0749  0.6968 -0.3712
   47MOL   C45429986   2.396   0.575   2.041 -0.6906  0.3887  0.4538
   47MOL   C45529987   2.345   0.430   2.073 -0.3653 -0.8152 -0.7511
   47MOL   C45629988   2.398   0.377   2.206  1.0555  0.2972  0.8404
   47MOL   O45729989   2.363   0.421   2.314 -0.2384  0.1192 -0.1834
   47MOL   N45829990   2.468   0.270   2.184 -0.5578  0.4466 -0.0725
   47MOL   C45929991   2.527   0.179   2.286 -0.2291 -0.5519  0.1374
   47MOL   C46029992   2.420   0.081   2.339 -0.0185 -0.0067  1.0119
   47MOL   C46129993   2.485   7.664   2.411 -0.0551  0.1890 -0.1135
   47MOL   C46229994   2.537   7.556   2.311 -0.2269  0.2637 -0.4818
   47MOL   N46329995   2.423   7.484   2.253 -0.0522 -0.0896 -0.1677
   47MOL   H46429996   2.577   0.805   2.083 -0.9363 -0.1135 -0.1412
   47MOL   H46529997   2.543   0.780   1.915  0.0338 -0.3015 -0.1495
   47MOL   H46629998   2.573   0.533   1.941 -1.4717 -0.6477  0.1051
   47MOL   H46729999   2.607   0.553   2.108 -0.2526  0.2776 -0.3454
   47MOL   H46830000   2.352   0.601   1.945  2.7726  1.2673 -0.9676
   47MOL   H46930001   2.370   0.649   2.116  1.5880  0.0906  1.5945
   47MOL   H47030002   2.367   0.368   1.986  1.1045 -3.2737  1.3089
   47MOL   H47130003   2.238   0.438   2.092  0.0031 -2.1548  2.1252
   47MOL   H47230004   2.466   0.239   2.088  1.0800  0.4555 -0.1253
   47MOL   H47330005   2.571   0.233   2.369  0.3061 -0.2154 -0.3638
   47MOL   H47430006   2.605   0.125   2.231 -0.1302 -0.2174 -0.0469
   47MOL   H47530007   2.344   0.120   2.408 -2.0710  0.7781 -1.5747
   47MOL   H47630008   2.363   0.049   2.251  0.0541  0.3583  0.8280
   47MOL   H47730009   2.403   7.621   2.469 -0.1186 -0.2367 -0.5173
   47MOL   H47830010   2.557   7.692   2.488  0.0493 -3.8582  1.3670
   47MOL   H47930011   2.584   7.474   2.365 -1.8519  0.3508  1.1077
   47MOL   H48030012   2.607   7.585   2.232  2.5302 -3.7066  0.3397
   47MOL   H48130013   2.343   7.477   2.315 -0.4245  1.4126 -0.4534
   47MOL   C48230014   2.426   7.387   2.160  0.4198  0.5966  0.4563
   47MOL   O48330015   2.533   7.359   2.108  0.3409  0.8138 -0.3276
   47MOL   C48430016   2.299   7.304   2.121 -0.7087 -1.5040 -0.3760
   47MOL   C48530017   2.320   7.158   2.092  0.4698  0.5674 -0.8099
   47MOL   C48630018   2.394   7.081   2.192  0.7570  0.0200 -0.1150
   47MOL   C48730019   2.384   6.934   2.157  0.4642  0.3562 -0.3523
   47MOL   C48830020   2.468   6.844   2.241 -0.1180 -1.1064 -0.1816
   47MOL   O48930021   2.524   6.884   2.341 -0.3716 -0.7492 -0.8339
   47MOL   N49030022   2.475   6.713   2.210 -0.2669 -0.6078  0.1821
   47MOL   C49130023   2.551   6.613   2.290 -0.3929  1.0368  0.6728
   47MOL   C49230024   2.503   6.468   2.258 -0.1294 -0.1262 -0.2267
   47MOL   C49330025   2.552   6.353   2.343 -0.0752 -0.2519 -0.1412
   47MOL   C49430026   2.469   6.222   2.307 -0.2033  0.2664 -0.4898
   47MOL   N49530027   2.545   6.107   2.340  0.3914  0.7917 -0.4498
   47MOL   H49630028   2.228   7.306   2.204 -0.7549 -3.1733 -0.3566
   47MOL   H49730029   2.254   7.358   2.038  1.0380 -0.3681 -0.6235
   47MOL   H49830030   2.219   7.119   2.100  0.6225  0.2486 -0.3703
   47MOL   H49930031   2.353   7.145   1.988  0.8577  0.0538 -0.6282
   47MOL   H50030032   2.364   7.088   2.297 -0.4753 -0.5699 -0.4275
   47MOL   H50130033   2.494   7.122   2.180  0.9137 -0.3881 -0.2116
   47MOL   H50230034   2.419   6.928   2.055  3.0706  1.1178  0.4657
   47MOL   H50330035   2.278   6.907   2.157  0.2712  0.8960 -4.2536
   47MOL   H50430036   2.410   6.680   2.140  0.9078 -2.5339 -0.0359
   47MOL   H50530037   2.542   6.630   2.397 -2.5956  0.6768  0.5574
   47MOL   H50630038   2.655   6.631   2.263 -0.5485  2.9939  1.3814
   47MOL   H50730039   2.394   6.475   2.264 -0.0933  0.0168  0.2791
   47MOL   H50830040   2.519   6.432   2.156 -3.6670 -1.1101 -0.4907
   47MOL   H50930041   2.546   6.365   2.451 -2.1764 -1.8180 -0.0477
   47MOL   H51030042   2.659   6.339   2.330 -0.1188 -1.2804  0.5308
   47MOL   H51130043   2.443   6.224   2.201 -4.0100 -5.5860  0.0939
   47MOL   H51230044   2.378   6.225   2.367  2.3761 -0.8412  3.5859
   47MOL   H51330045   2.532   6.070   2.434 -1.0739 -0.8878 -1.2822
   47MOL   C51430046   2.614   6.032   2.247 -0.7313 -0.1048  0.3865
   47MOL   O51530047   2.629   6.065   2.133 -0.4365 -0.0551  0.5247
   47MOL   C51630048   2.679   5.907   2.297 -0.2405 -0.1630 -0.1532
   47MOL   C51730049   2.833   5.929   2.330  0.3393  0.0668  0.3729
   47MOL   C51830050   2.918   5.799   2.335  0.1304 -0.4375  0.0303
   47MOL   C51930051   2.875   5.698   2.441  0.1442 -0.0043 -0.5339
   47MOL   C52030052   2.886   5.736   2.592  0.4456 -0.0032 -0.2160
   47MOL   O52130053   2.985   5.798   2.630 -0.3908  0.4827  0.1021
   47MOL   N52230054   2.783   5.697   2.672  0.4714 -0.5869  0.2471
   47MOL   C52330055   2.765   5.713   2.816  0.3648 -0.2426  0.1968
   47MOL   C52430056   2.635   5.645   2.865  0.2909 -0.0211 -0.0537
   47MOL   C52530057   2.605   5.682   3.015  0.0119  0.6256 -0.4195
   47MOL   C52630058   2.467   5.640   3.056  0.3667  0.6050  0.6364
   47MOL   N52730059   2.358   5.712   2.993 -0.6242  0.3485  0.2596
   47MOL   H52830060   2.619   5.869   2.380  1.6799  1.2060  1.9185
   47MOL   H52930061   2.658   5.830   2.223  3.3143 -0.1374 -1.2645
   47MOL   H53030062   2.879   5.999   2.259 -0.7039  1.1656  0.7592
   47MOL   H53130063   2.845   5.993   2.417  0.3066  1.8000 -0.8573
   47MOL   H53230064   3.019   5.822   2.370 -0.4446  1.8730  0.2509
   47MOL   H53330065   2.926   5.746   2.240  3.6072 -2.0722  1.1489
   47MOL   H53430066   2.920   5.601   2.418 -2.4669 -1.1766 -0.9831
   47MOL   H53530067   2.772   5.670   2.416  0.1246  1.1145 -1.7448
   47MOL   H53630068   2.722   5.629   2.629  2.3032 -3.7718  2.4662
   47MOL   H53730069   2.760   5.819   2.841 -1.3675 -0.3663  0.3723
   47MOL   H53830070   2.849   5.668   2.869  0.2199  0.0676  0.6922
   47MOL   H53930071   2.547   5.665   2.803  1.1624  1.1630 -0.9385
   47MOL   H54030072   2.648   5.537   2.873 -1.3467 -0.2126  0.2160
   47MOL   H54130073   2.611   5.791   3.019 -0.3184  0.5894  1.9273
   47MOL   H54230074   2.672   5.650   3.094  0.4470 -0.7339 -1.3235
   47MOL   H54330075   2.459   5.647   3.165 -1.1176 -2.0383  0.7506
   47MOL   H54430076   2.451   5.536   3.027  3.0114  0.7141 -1.4175
   47MOL   H54530077   2.328   5.675   2.904 -0.0385 -0.0093  0.2060
   47MOL   C54630078   2.283   5.808   3.040  0.4145 -0.6751 -0.1613
   47MOL   O54730079   2.183   5.839   2.979 -0.0281  0.2254 -0.2619
   47MOL   C54830080   2.322   5.871   3.178 -0.3181  0.2510  0.0288
   47MOL   C54930081   2.231   5.975   3.240  0.7684 -0.0762 -0.2004
   47MOL   C55030082   2.235   6.111   3.178 -0.1153 -0.1628  0.3966
   47MOL   C55130083   2.319   6.208   3.265  0.4304  0.4906  0.0327
   47MOL   C55230084   2.340   6.344   3.193  0.2993 -0.3464 -0.2651
   47MOL   O55330085   2.372   6.353   3.074  0.1498 -0.4216 -0.3508
   47MOL   N55430086   2.338   6.451   3.281 -0.1489 -0.8045 -0.2745
   47MOL   C55530087   2.363   6.588   3.242 -0.4286  0.2593  0.9172
   47MOL   C55630088   2.242   6.671   3.190  0.1657 -0.3484 -0.1287
   47MOL   C55730089   2.277   6.812   3.151  0.7111  0.7509 -0.3525
   47MOL   C55830090   2.146   6.896   3.151 -0.5692  0.4144 -0.2170
   47MOL   N55930091   2.170   7.036   3.109  0.6313  0.1720  0.0970
   47MOL   H56030092   2.334   5.790   3.249  1.6458  1.7433  1.4835
   47MOL   H56130093   2.424   5.910   3.182  0.2674 -1.4210  1.9059
   47MOL   H56230094   2.128   5.946   3.216  0.5795  1.0226 -0.7226
   47MOL   H56330095   2.239   5.973   3.348  2.9803  0.1613 -0.3530
   47MOL   H56430096   2.130   6.136   3.162 -0.1391  0.1198  1.0156
   47MOL   H56530097   2.288   6.095   3.084 -0.7330 -3.8411  0.5760
   47MOL   H56630098   2.412   6.164   3.301  0.5077 -1.3977 -2.3218
   47MOL   H56730099   2.257   6.230   3.352  0.4005 -1.3667  0.4890
   47MOL   H56830100   2.309   6.429   3.375  2.1806  0.1557  0.7177
   47MOL   H56930101   2.436   6.607   3.165  1.8935 -0.3852  2.8995
   47MOL   H57030102   2.397   6.644   3.329  0.9946  0.4669  0.2293
   47MOL   H57130103   2.194   6.635   3.100  0.2927  2.2432 -1.2675
   47MOL   H57230104   2.175   6.666   3.276 -0.2473  2.8043 -0.1928
   47MOL   H57330105   2.303   6.813   3.045 -0.7281  1.6383 -0.7043
   47MOL   H57430106   2.366   6.853   3.199  0.8035  0.9090 -0.6535
   47MOL   H57530107   2.097   6.891   3.248 -0.8935 -0.9144 -0.4338
   47MOL   H57630108   2.076   6.849   3.082 -0.4411  1.5811 -1.1466
   47MOL   H57730109   2.245   7.049   3.043 -0.3640 -3.3569 -1.8832
   47MOL   C57830110   2.086   7.138   3.119 -0.5110  1.0064  0.1358
   47MOL   O57930111   1.979   7.123   3.163  0.1960  0.0680  0.3072
   47MOL   C58030112   2.141   7.281   3.082  0.0923  0.0369  0.1114
   47MOL   C58130113   2.025   7.364   3.002  1.1644  0.1111 -0.0378
   47MOL   C58230114   1.920   7.426   3.096  0.4335  0.6833 -0.3818
   47MOL   C58330115   1.830   7.539   3.038 -0.9975  0.1730  0.6904
   47MOL   C58430116   1.701   7.582   3.113 -0.5769  0.1709  0.2927
   47MOL   O58530117   1.613   7.500   3.144 -0.0250 -0.0912  0.1718
   47MOL   N58630118   1.689   0.017   3.136 -0.1625 -0.4900 -0.4369
   47MOL   C58730119   1.567   0.085   3.182  0.6944 -0.3080 -0.5050
   47MOL   C58830120   1.581   0.235   3.161  0.3313 -0.1075  0.1008
   47MOL   C58930121   1.682   0.309   3.247  0.2689 -0.3148 -0.1069
   47MOL   C59030122   1.626   0.456   3.276  0.1698 -0.4597  0.4897
   47MOL   N59130123   1.715   0.532   3.357  0.5605  0.1895  0.5738
   47MOL   H59230124   2.182   7.333   3.168 -2.9018 -0.4827  1.9330
   47MOL   H59330125   2.220   7.267   3.009  0.7794 -0.9169  1.0294
   47MOL   H59430126   2.059   7.445   2.938 -1.1640  0.4026 -0.9399
   47MOL   H59530127   1.974   7.312   2.921 -3.3030 -0.9657  3.2957
   47MOL   H59630128   1.981   7.472   3.174 -0.3261  2.8755 -1.0539
   47MOL   H59730129   1.860   7.345   3.138 -2.0104  2.3276 -0.6312
   47MOL   H59830130   1.787   7.499   2.946 -0.0789  3.9324 -1.4850
   47MOL   H59930131   1.887   7.628   3.011  2.1706 -2.4737 -1.7923
   47MOL   H60030132   1.768   0.077   3.121 -1.2362  1.2935  0.8601
   47MOL   H60130133   1.542   0.068   3.287  0.7312  1.8829 -0.0981
   47MOL   H60230134   1.478   0.040   3.139  1.4009 -0.2415 -2.0606
   47MOL   H60330135   1.595   0.264   3.056  1.2930  4.0990  1.2965
   47MOL   H60430136   1.483   0.281   3.174 -0.2529 -0.7461 -1.8999
   47MOL   H60530137   1.779   0.318   3.199 -0.0650 -1.0270 -0.9446
   47MOL   H60630138   1.692   0.254   3.341  1.3127  0.5619  0.3068
   47MOL   H60730139   1.533   0.439   3.330  2.0636 -1.5438  3.5072
   47MOL   H60830140   1.602   0.513   3.186 -1.0120  0.8948  1.6401
   47MOL   H60930141   1.780   0.586   3.302 -0.0025  0.2014 -0.0862
   47MOL   C61030142   1.698   0.560   3.489  0.6224 -0.2787  0.2219
   47MOL   O61130143   1.613   0.515   3.562 -0.0151 -0.3911 -0.3309
   47MOL   C61230144   1.804   0.670   3.536 -0.5307  0.8438 -0.1697
   47MOL   C61330145   1.746   0.805   3.546  0.3511 -0.4723 -0.6539
   47MOL   C61430146   1.649   0.819   3.665  0.3154  0.7250 -0.3550
   47MOL   C61530147   1.584   0.961   3.667  0.1977  0.2033  0.2725
   47MOL   C61630148   1.589   1.024   3.810  0.6612  0.0952 -0.1997
   47MOL   O61730149   1.545   0.950   3.898 -0.0680 -0.0875 -0.3372
   47MOL   N61830150   1.642   1.144   3.830 -0.0010  0.3969 -0.0633
   47MOL   C61930151   1.633   1.220   3.957  0.5680 -0.9171  0.2085
   47MOL   C62030152   1.537   1.339   3.950  0.4739 -0.3537  0.1140
   47MOL   C62130153   1.505   1.401   4.088  0.4531  0.3056 -0.1168
   47MOL   C62230154   1.427   1.538   4.085  0.7345  0.0262 -0.7672
   47MOL   N62330155   1.392   1.585   4.217 -0.8164 -0.0657 -0.5313
   47MOL   H62430156   1.843   0.625   3.627 -1.3651  1.3972  0.4692
   47MOL   H62530157   1.893   0.672   3.472 -0.7009 -1.4390 -0.5348
   47MOL   H62630158   1.826   0.878   3.560  1.9546 -2.9124  4.2467
   47MOL   H62730159   1.695   0.827   3.452 -1.0962  0.0877  0.2583
   47MOL   H62830160   1.697   0.796   3.760  1.0627  0.4457 -0.7906
   47MOL   H62930161   1.569   0.748   3.647  0.0426  1.1826 -0.9928
   47MOL   H63030162   1.477   0.965   3.647  0.2781  0.1152 -0.1643
   47MOL   H63130163   1.636   1.030   3.601 -3.6154  0.2156 -2.9398
   47MOL   H63230164   1.683   1.185   3.747 -0.2492 -1.0257 -0.9095
   47MOL   H63330165   1.733   1.249   3.989  1.2400 -0.0805 -2.5784
   47MOL   H63430166   1.594   1.159   4.039 -1.1912 -1.7835 -1.2402
   47MOL   H63530167   1.581   1.410   3.880 -1.0900 -1.3696 -1.9513
   47MOL   H63630168   1.447   1.300   3.903  0.6234  0.3248 -0.7422
   47MOL   H63730169   1.602   1.414   4.136  0.9941 -0.9055 -0.8639
   47MOL   H63830170   1.448   1.339   4.157  2.3446 -2.5018 -0.9747
   47MOL   H63930171   1.329   1.535   4.039  0.2410 -0.3615  0.3039
   47MOL   H64030172   1.471   1.624   4.034  1.4657  0.6156  0.7908
   47MOL   H64130173   1.298   1.618   4.201 -0.4046  0.3729 -2.1220
   47MOL   H64230174   1.386   1.503   4.276 -0.6564  0.7710  0.6751
   48MOL     C130175   4.529   1.634   3.142  0.2221 -0.5328 -0.3497
   48MOL     O230176   4.439   1.604   3.067  0.3449 -0.3219  0.1537
   48MOL     C330177   4.640   1.732   3.105  0.1794  0.0602 -0.1655
   48MOL     C430178   4.590   1.843   3.026  0.4104  0.1396 -0.2970
   48MOL     C530179   4.508   1.945   3.099 -0.2490  0.8901 -0.1249
   48MOL     C630180   4.466   2.073   3.026 -0.6457 -0.2000  0.0002
   48MOL     C730181   4.391   2.172   3.116  0.0325  0.3402  0.5843
   48MOL     O830182   4.424   2.191   3.236 -0.0639  0.0718  0.5422
   48MOL     N930183   4.287   2.236   3.060  0.0431 -0.2063  0.0936
   48MOL    C1030184   4.199   2.329   3.128 -0.3715  0.1861 -0.0249
   48MOL    C1130185   4.080   2.269   3.187 -0.0277 -0.0392  0.1994
   48MOL    C1230186   4.003   2.375   3.272 -0.0801 -0.4227  0.2046
   48MOL    C1330187   3.874   2.318   3.319 -0.3011 -0.5887 -0.1430
   48MOL    N1430188   3.777   2.290   3.215  0.0173 -0.0162  0.3060
   48MOL    H1530189   4.688   1.756   3.199  0.9864 -3.7738  0.5097
   48MOL    H1630190   4.716   1.680   3.046  0.3309 -0.4804  0.5046
   48MOL    H1730191   4.678   1.897   2.992  1.2691 -0.8361  0.3247
   48MOL    H1830192   4.537   1.805   2.939 -0.8789 -3.7370  2.0736
   48MOL    H1930193   4.568   1.972   3.186 -2.2880  0.6539  1.3870
   48MOL    H2030194   4.418   1.900   3.141  1.5757 -2.0410  0.7587
   48MOL    H2130195   4.409   2.037   2.940  0.5744  3.7200 -2.5807
   48MOL    H2230196   4.548   2.129   2.981 -1.0803  1.8047  1.6408
   48MOL    H2330197   4.271   2.220   2.962 -0.7604  1.7721 -0.1220
   48MOL    H2430198   4.175   2.400   3.049  0.1992 -1.5344 -1.7642
   48MOL    H2530199   4.259   2.387   3.199  0.1846  0.3061 -0.5921
   48MOL    H2630200   4.008   2.221   3.120  1.4226  1.0953 -2.2641
   48MOL    H2730201   4.108   2.188   3.254 -0.8079 -0.3030  0.2189
   48MOL    H2830202   3.980   2.455   3.202  0.4490 -0.5867 -0.1614
   48MOL    H2930203   4.062   2.418   3.354 -0.3650 -0.5382  0.4689
   48MOL    H3030204   3.825   2.371   3.401  0.3517  0.6370 -0.5240
   48MOL    H3130205   3.878   2.213   3.346 -1.2610 -0.6958 -0.4152
   48MOL    H3230206   3.779   2.198   3.174 -4.0904  0.6411 -1.6751
   48MOL    H3330207   4.551   1.590   3.239 -0.1566 -0.9884 -0.4677
   48MOL    C3430208   3.686   2.368   3.157 -0.0764  0.2243 -0.1592
   48MOL    O3530209   3.661   2.479   3.199  0.4268  0.2485  0.3120
   48MOL    C3630210   3.614   2.314   3.042  0.1708 -0.1803  0.1536
   48MOL    C3730211   3.517   2.423   2.973  0.3546  0.5556 -0.3601
   48MOL    C3830212   3.431   2.363   2.863 -0.1337  0.3555 -0.7131
   48MOL    C3930213   3.506   2.339   2.738 -0.1670 -0.1224  1.3337
   48MOL    C4030214   3.580   2.211   2.724  1.0645  0.4537 -0.5506
   48MOL    O4130215   3.703   2.202   2.741 -0.1870  0.5682  0.5293
   48MOL    N4230216   3.503   2.105   2.680 -0.0479 -0.1030 -0.0434
   48MOL    C4330217   3.527   1.961   2.679  0.3850 -0.2036  0.3747
   48MOL    C4430218   3.616   1.908   2.791  0.5260 -0.5329  0.0399
   48MOL    C4530219   3.628   1.750   2.788 -0.2982 -0.3982  0.0584
   48MOL    C4630220   3.721   1.699   2.902 -0.6278  0.6491 -0.6395
   48MOL    N4730221   3.733   1.556   2.884 -0.0055 -0.1598  0.1712
   48MOL    H4830222   3.697   2.290   2.976 -0.7136 -1.1621 -0.6184
   48MOL    H4930223   3.551   2.230   3.071  1.9640 -0.7360  2.5730
   48MOL    H5030224   3.456   2.477   3.045 -0.7058 -0.3441 -0.5682
   48MOL    H5130225   3.590   2.496   2.937  3.5732 -1.6687  1.3688
   48MOL    H5230226   3.372   2.451   2.839  0.0239  0.4705 -0.6761
   48MOL    H5330227   3.359   2.286   2.890  1.8892 -0.6630  2.0260
   48MOL    H5430228   3.572   2.424   2.718  1.9457 -1.9410  0.3641
   48MOL    H5530229   3.440   2.336   2.652  0.8022  1.4919  0.5196
   48MOL    H5630230   3.412   2.127   2.643  1.3713  3.9874 -1.4456
   48MOL    H5730231   3.581   1.940   2.586  1.9297  0.2279  1.1564
   48MOL    H5830232   3.432   1.908   2.672  0.2662  0.1215 -0.7168
   48MOL    H5930233   3.720   1.942   2.790  0.3120  0.1281 -0.4407
   48MOL    H6030234   3.568   1.946   2.881  0.0026 -0.6927 -0.1693
   48MOL    H6130235   3.659   1.722   2.688 -0.6936  2.1292 -0.7809
   48MOL    H6230236   3.529   1.706   2.802 -0.5426  0.1959  0.1700
   48MOL    H6330237   3.673   1.728   2.995 -1.7140  0.0288 -0.9914
   48MOL    H6430238   3.814   1.753   2.885  1.6273 -3.1237 -0.7782
   48MOL    H6530239   3.759   1.533   2.790 -1.4450  0.4400 -0.3828
   48MOL    C6630240   3.657   1.463   2.946 -0.4989 -0.0107  0.2266
   48MOL    O6730241   3.600   1.494   3.053  0.0790  0.3982  0.7080
   48MOL    C6830242   3.653   1.326   2.879 -0.1721 -0.0706  0.3299
   48MOL    C6930243   3.513   1.256   2.902 -0.9683  0.0498 -0.2568
   48MOL    C7030244   3.489   1.131   2.817 -0.5281 -0.5037  0.0047
   48MOL    C7130245   3.565   1.010   2.859 -0.5098  0.4182  0.8017
   48MOL    C7230246   3.539   0.967   3.003  0.1855  0.3111  0.7017
   48MOL    O7330247   3.438   0.996   3.067  0.1938 -0.8606 -0.3795
   48MOL    N7430248   3.635   0.896   3.060 -0.5699 -0.0071 -0.2770
   48MOL    C7530249   3.645   0.864   3.203 -0.2066 -0.9111  0.0565
   48MOL    C7630250   3.787   0.873   3.273  0.4925  0.2582  0.3912
   48MOL    C7730251   3.870   0.989   3.224  0.4608  0.0210  0.0984
   48MOL    C7830252   3.801   1.122   3.226 -0.7280 -0.6945 -0.6930
   48MOL    N7930253   3.896   1.222   3.167  0.5981 -0.1146  0.2662
   48MOL    H8030254   3.668   1.339   2.772 -0.1718  0.2801  0.3722
   48MOL    H8130255   3.733   1.259   2.909 -0.3234 -0.6350 -0.5102
   48MOL    H8230256   3.504   1.240   3.009  0.8031  1.1360  0.0856
   48MOL    H8330257   3.431   1.324   2.878  0.9377  2.5632  0.0376
   48MOL    H8430258   3.501   1.157   2.712  0.8333 -0.7328  0.0980
   48MOL    H8530259   3.382   1.108   2.817 -0.7280  0.4008  0.8541
   48MOL    H8630260   3.671   1.034   2.847 -0.5233  1.7407  3.0651
   48MOL    H8730261   3.545   0.931   2.787 -0.5197  1.9124 -0.8867
   48MOL    H8830262   3.699   0.845   3.001 -0.4437  0.2667 -0.3771
   48MOL    H8930263   3.594   0.769   3.219 -1.1153 -0.6673 -1.3285
   48MOL    H9030264   3.581   0.934   3.257  0.3763 -0.7545  0.5560
   48MOL    H9130265   3.767   0.884   3.379 -1.8640  0.5730 -0.0660
   48MOL    H9230266   3.852   0.786   3.262  0.0334  0.3244 -3.6958
   48MOL    H9330267   3.911   0.977   3.123 -1.8443  2.5648 -1.1882
   48MOL    H9430268   3.954   1.002   3.293 -0.1019 -0.8486  0.9609
   48MOL    H9530269   3.786   1.158   3.327  2.9594 -2.6810  0.6275
   48MOL    H9630270   3.702   1.135   3.182 -0.0104  0.9776 -1.8814
   48MOL    H9730271   3.922   1.210   3.070 -0.2424  0.5931 -0.0551
   48MOL    C9830272   3.915   1.344   3.218  0.3653 -0.2538 -0.1895
   48MOL    O9930273   3.872   1.390   3.326 -0.4038  0.1731 -0.4211
   48MOL   C10030274   3.992   1.432   3.122 -0.1326 -0.1053 -0.7904
   48MOL   C10130275   4.109   1.512   3.195  0.2517 -0.2705  1.0621
   48MOL   C10230276   4.185   1.439   3.307 -0.2180 -0.8375  0.4863
   48MOL   C10330277   4.259   1.322   3.256 -0.3136 -0.0005  0.2830
   48MOL   C10430278   4.305   1.216   3.354  0.1580 -0.0207  0.5516
   48MOL   O10530279   4.243   1.173   3.451  0.1795 -0.4311 -0.0164
   48MOL   N10630280   4.425   1.167   3.323 -0.6521 -1.0739 -0.1406
   48MOL   C10730281   4.501   1.070   3.398 -0.1070 -0.3137 -0.5122
   48MOL   C10830282   4.565   0.973   3.293 -0.7117  0.1924 -0.7810
   48MOL   C10930283   4.637   0.850   3.356  0.4013 -0.0119  0.6551
   48MOL   C11030284   4.680   0.750   3.252 -0.5793 -0.0611 -0.7767
   48MOL   N11130285   4.768   0.808   3.153  0.1049  0.3440  0.0410
   48MOL   H11230286   4.023   1.377   3.034  0.9265  0.1690 -0.5957
   48MOL   H11330287   3.916   1.496   3.078  0.9012  1.2607 -0.6397
   48MOL   H11430288   4.182   1.534   3.117  2.0755 -0.3794  2.7085
   48MOL   H11530289   4.068   1.611   3.219  1.1114  0.2736  0.3205
   48MOL   H11630290   4.128   1.424   3.399 -3.3002  0.5115 -1.1278
   48MOL   H11730291   4.266   1.502   3.343  0.5087 -2.5339  1.8998
   48MOL   H11830292   4.341   1.355   3.192  0.9681  0.3686  2.0975
   48MOL   H11930293   4.193   1.272   3.185  0.2937 -0.2881 -0.0875
   48MOL   H12030294   4.464   1.202   3.237  0.6957 -0.1773  0.8172
   48MOL   H12130295   4.433   1.013   3.462  1.2511 -0.5212  0.7921
   48MOL   H12230296   4.570   1.117   3.468  1.9189 -1.9923 -1.3474
   48MOL   H12330297   4.493   0.937   3.219 -2.7747 -1.6027  1.9948
   48MOL   H12430298   4.640   1.027   3.235 -0.0221  0.6048  0.4966
   48MOL   H12530299   4.578   0.797   3.430  1.2247 -0.3615  1.0668
   48MOL   H12630300   4.724   0.888   3.409  0.7443 -1.1729  0.9439
   48MOL   H12730301   4.586   0.717   3.206 -0.9535  1.2601 -1.0018
   48MOL   H12830302   4.728   0.665   3.300 -0.9159 -0.2041 -0.6867
   48MOL   H12930303   4.712   0.859   3.086  0.3688  0.7689  0.1424
   48MOL   C13030304   4.903   0.834   3.159  0.1661 -0.2449  0.1838
   48MOL   O13130305   4.973   0.797   3.247  0.3411  0.1040 -0.4413
   48MOL   C13230306   4.955   0.931   3.057 -0.7525 -0.0191 -0.6011
   48MOL   C13330307   5.091   0.905   3.005  0.4301 -0.0752 -0.0063
   48MOL   C13430308   5.136   0.773   2.928 -0.7144  0.6772 -0.4142
   48MOL   C13530309   5.297   0.762   2.908  0.4744 -0.1293 -0.1611
   48MOL   C13630310   5.333   0.664   2.793  0.4815  0.1119  0.2445
   48MOL   O13730311   5.253   0.620   2.707  0.1316 -0.2460 -0.1969
   48MOL   N13830312   5.459   0.628   2.793  0.0626  0.8300  0.0540
   48MOL   C13930313   5.507   0.522   2.704  0.6064  0.1210  0.1976
   48MOL   C14030314   5.664   0.528   2.719  0.2881 -0.0191 -0.6074
   48MOL   C14130315   5.752   0.431   2.635 -0.5295 -0.4204 -0.4132
   48MOL   C14230316   5.759   0.472   2.489 -0.5618  0.3511  0.0911
   48MOL   N14330317   5.855   0.379   2.417 -0.2260  0.2675 -0.1134
   48MOL   H14430318   4.888   0.935   2.971 -0.8498  0.6837 -0.4918
   48MOL   H14530319   4.941   1.032   3.095 -0.6136 -0.6920  1.3055
   48MOL   H14630320   5.106   0.977   2.925 -0.7506 -1.7280 -1.7537
   48MOL   H14730321   5.162   0.922   3.086 -0.8250  2.4046  0.6178
   48MOL   H14830322   5.081   0.755   2.836  0.7621 -0.7349 -1.0523
   48MOL   H14930323   5.116   0.688   2.993 -2.4612 -0.7957 -2.7840
   48MOL   H15030324   5.348   0.748   3.004  0.4401  0.3129 -0.0758
   48MOL   H15130325   5.327   0.863   2.881  1.9090  0.0636  1.9957
   48MOL   H15230326   5.523   0.681   2.850 -0.7331  2.3402 -0.4464
   48MOL   H15330327   5.489   0.550   2.600 -3.4934  1.7946  1.2479
   48MOL   H15430328   5.462   0.428   2.734 -1.3771  0.9273 -0.1423
   48MOL   H15530329   5.720   0.621   2.706 -2.4398  1.8354  0.4800
   48MOL   H15630330   5.692   0.494   2.819 -0.3407 -0.5633 -0.6150
   48MOL   H15730331   5.697   0.336   2.636 -4.0592  1.5307 -1.0858
   48MOL   H15830332   5.841   0.410   2.695  0.2432 -1.4123 -1.8895
   48MOL   H15930333   5.783   0.577   2.481 -0.7736  0.5160  1.4305
   48MOL   H16030334   5.664   0.465   2.435  0.2082  0.7516 -1.3179
   48MOL   H16130335   5.811   0.302   2.367 -0.5378 -0.0510  0.6425
   48MOL   C16230336   5.983   0.409   2.411  0.2409  0.5217 -0.2944
   48MOL   O16330337   6.032   0.503   2.476  0.1846  0.2544 -0.2853
   48MOL   C16430338   6.074   0.327   2.325 -0.0728 -0.5612 -0.0018
   48MOL   C16530339   6.220   0.383   2.309  0.4731 -0.4060 -0.3683
   48MOL   C16630340   6.252   0.512   2.227 -0.4824 -0.2931 -0.5292
   48MOL   C16730341   6.396   0.526   2.178 -0.0737 -0.5549  0.2084
   48MOL   C16830342   6.421   0.447   2.047 -0.9136  0.6394 -0.1742
   48MOL   O16930343   6.467   0.334   2.055 -0.5204  0.9764  1.3911
   48MOL   N17030344   6.385   0.505   1.932  0.1641  0.3691  0.0030
   48MOL   C17130345   6.400   0.445   1.795 -0.1656  0.3196 -0.2841
   48MOL   C17230346   6.268   0.363   1.745 -0.1182 -0.2419  0.1825
   48MOL   C17330347   6.149   0.459   1.736  1.0659  0.5342  0.1336
   48MOL   C17430348   6.012   0.386   1.733 -0.1462  0.2525 -0.0337
   48MOL   N17530349   5.955   0.374   1.870 -0.1199 -0.5099  0.2516
   48MOL   H17630350   6.092   0.240   2.389  0.9366 -0.3772 -0.0214
   48MOL   H17730351   6.031   0.284   2.234  0.7715 -2.7558  0.5875
   48MOL   H17830352   6.257   0.383   2.411 -3.4775 -1.7903  1.1742
   48MOL   H17930353   6.277   0.308   2.254  0.2817  0.4683 -1.7809
   48MOL   H18030354   6.236   0.602   2.286  0.3619  0.1515 -0.9713
   48MOL   H18130355   6.174   0.522   2.151 -1.2165  0.3811  0.3021
   48MOL   H18230356   6.457   0.490   2.261  0.0435 -1.4113 -0.2511
   48MOL   H18330357   6.426   0.631   2.175 -1.3615 -0.1596  0.8884
   48MOL   H18430358   6.331   0.590   1.941 -2.1612 -1.0737  0.3203
   48MOL   H18530359   6.493   0.390   1.789  2.0147  4.0520 -2.3569
   48MOL   H18630360   6.412   0.526   1.724  0.1712  1.2625  0.8324
   48MOL   H18730361   6.296   0.325   1.647 -0.2228 -0.3410  0.1903
   48MOL   H18830362   6.247   0.274   1.804  0.4367 -0.4816  0.0175
   48MOL   H18930363   6.162   0.499   1.635  0.5204  0.0713 -0.1211
   48MOL   H19030364   6.153   0.545   1.803  0.9585 -0.3277  1.2521
   48MOL   H19130365   6.035   0.290   1.687  2.5243  0.3370  1.0115
   48MOL   H19230366   5.948   0.449   1.672 -0.6126  2.8783  3.0577
   48MOL   H19330367   6.003   0.310   1.931  3.4464  1.9918  0.2112
   48MOL   C19430368   5.859   0.452   1.925  0.3465  1.0922 -0.0827
   48MOL   O19530369   5.778   0.525   1.864 -0.1600  0.2761 -0.1600
   48MOL   C19630370   5.837   0.440   2.074  0.7791 -0.1474  0.4396
   48MOL   C19730371   5.751   0.567   2.135  0.5266 -0.0814 -0.0152
   48MOL   C19830372   5.601   0.544   2.130  0.2419  0.2797 -0.1154
   48MOL   C19930373   5.533   0.678   2.112  0.5022 -0.2161 -0.2803
   48MOL   C20030374   5.485   0.729   2.244  0.9765  0.0746  0.4678
   48MOL   O20130375   5.567   0.782   2.314 -0.6954 -0.0331  0.4212
   48MOL   N20230376   5.367   0.689   2.290 -0.1123 -0.0277 -0.4913
   48MOL   C20330377   5.307   0.721   2.419 -0.3550  0.2993 -0.6145
   48MOL   C20430378   5.226   0.851   2.417 -0.2340  0.1369 -0.2343
   48MOL   C20530379   5.177   0.895   2.554  0.3500 -0.9204 -0.6832
   48MOL   C20630380   5.103   1.032   2.559 -0.1836  0.3754  0.1297
   48MOL   N20730381   5.159   1.139   2.469 -0.3509  0.1798 -0.1328
   48MOL   H20830382   5.801   0.341   2.103  0.8685 -0.4511 -0.4675
   48MOL   H20930383   5.934   0.465   2.117  0.4283  1.0851  0.5283
   48MOL   H21030384   5.782   0.586   2.238 -0.3090 -0.7140  0.3676
   48MOL   H21130385   5.781   0.659   2.085  1.2331 -0.7890 -0.8940
   48MOL   H21230386   5.566   0.490   2.217 -2.2443  2.4222  0.2596
   48MOL   H21330387   5.582   0.483   2.041  1.2569  0.8565 -0.7424
   48MOL   H21430388   5.441   0.683   2.054 -0.2501 -2.1613  0.7191
   48MOL   H21530389   5.598   0.760   2.081  0.4500  0.0094  0.2104
   48MOL   H21630390   5.312   0.617   2.245 -2.0487  0.3227  1.1884
   48MOL   H21730391   5.380   0.728   2.499  0.2271  2.5942 -1.3106
   48MOL   H21830392   5.231   0.645   2.437  0.6221 -0.1970  1.5689
   48MOL   H21930393   5.284   0.931   2.372 -0.5574  0.3628 -0.2494
   48MOL   H22030394   5.148   0.838   2.341  1.0346 -2.3594 -1.1572
   48MOL   H22130395   5.269   0.905   2.611 -1.1012 -0.4130  1.6329
   48MOL   H22230396   5.122   0.817   2.607  0.5437  0.7843  2.1099
   48MOL   H22330397   5.110   1.074   2.660 -0.1265 -1.8117  1.0785
   48MOL   H22430398   4.996   1.014   2.552 -0.1305  0.0363  0.1740
   48MOL   H22530399   5.091   1.162   2.399 -1.2762 -0.9002  0.4035
   48MOL   C22630400   5.262   1.222   2.501 -0.0545  0.1873 -0.2996
   48MOL   O22730401   5.338   1.197   2.591  0.2451  0.2195 -0.3301
   48MOL   C22830402   5.287   1.338   2.413  0.4101  0.3634  0.2314
   48MOL   C22930403   5.271   1.469   2.493 -0.0464 -1.1214  0.2735
   48MOL   C23030404   5.134   1.515   2.518  0.4137  0.5280 -0.6431
   48MOL   C23130405   5.124   1.639   2.601 -0.6677  0.0652 -0.0131
   48MOL   C23230406   4.986   1.705   2.608  0.0137 -0.3617  0.1704
   48MOL   O23330407   4.879   1.653   2.581  0.1896  0.5793  0.2364
   48MOL   N23430408   4.996   1.834   2.621 -0.1496  1.0564  0.1603
   48MOL   C23530409   4.896   1.938   2.588  0.3539  0.7139  0.2822
   48MOL   C23630410   4.841   1.934   2.446  0.3231  0.3514  0.1793
   48MOL   C23730411   4.946   1.974   2.344 -0.1271  0.2977 -0.0764
   48MOL   C23830412   4.879   2.050   2.235  0.1596 -0.0653  0.5430
   48MOL   N23930413   4.980   2.126   2.155 -0.2790 -0.5857  0.6318
   48MOL   H24030414   5.390   1.335   2.379  0.7906 -2.3056  1.4652
   48MOL   H24130415   5.223   1.329   2.325  0.8861 -0.4643 -0.0327
   48MOL   H24230416   5.314   1.451   2.592  0.7471 -0.7052  0.0029
   48MOL   H24330417   5.336   1.542   2.445 -1.1410 -0.6127 -0.4554
   48MOL   H24430418   5.076   1.445   2.578  3.8356 -0.6168  1.4644
   48MOL   H24530419   5.073   1.526   2.428 -2.4384 -2.1278  0.8782
   48MOL   H24630420   5.195   1.707   2.553 -1.7126  0.2652 -1.2662
   48MOL   H24730421   5.151   1.630   2.707 -0.9304  0.9392  0.1345
   48MOL   H24830422   5.092   1.863   2.634  0.3209 -1.3763  2.5077
   48MOL   H24930423   4.929   2.038   2.617  0.4565  0.8426 -0.2763
   48MOL   H25030424   4.824   1.918   2.667 -1.4540  1.0987 -1.2476
   48MOL   H25130425   4.799   1.836   2.423 -1.4588  0.6020  2.2513
   48MOL   H25230426   4.759   2.004   2.437 -1.7881 -2.2297 -1.3013
   48MOL   H25330427   4.998   1.883   2.313  1.1851  1.3067 -0.8434
   48MOL   H25430428   5.004   2.038   2.409 -0.5221  1.7468 -1.1394
   48MOL   H25530429   4.813   2.130   2.268 -0.1414  0.1867 -0.6443
   48MOL   H25630430   4.810   1.988   2.178  1.0454 -0.3870 -0.2081
   48MOL   H25730431   4.955   2.221   2.131 -2.4920 -0.7034  2.4256
   48MOL   C25830432   5.073   2.065   2.079  0.0965  0.0013  0.0608
   48MOL   O25930433   5.086   1.940   2.081 -0.3095 -0.1634  0.0637
   48MOL   C26030434   5.150   2.154   1.976  0.2543 -0.1188  0.3015
   48MOL   C26130435   5.308   2.165   1.996  0.7634  0.3608 -0.4042
   48MOL   C26230436   5.366   2.220   2.120 -0.0044  0.2378 -0.1191
   48MOL   C26330437   5.341   2.158   2.262 -0.4457 -0.6867 -0.6036
   48MOL   C26430438   5.393   2.015   2.288  0.5003 -0.8329  0.2033
   48MOL   O26530439   5.513   1.999   2.317  0.2269 -1.0807  0.5975
   48MOL   N26630440   5.302   1.913   2.272 -0.8460  0.7772  0.9067
   48MOL   C26730441   5.349   1.777   2.249 -0.5546  0.4176 -0.2567
   48MOL   C26830442   5.358   1.733   2.098 -0.0084  0.5259 -0.0588
   48MOL   C26930443   5.367   1.578   2.074 -0.2829 -0.3728  0.0338
   48MOL   C27030444   5.341   1.551   1.924  0.7101  0.0517 -0.0557
   48MOL   N27130445   5.401   1.428   1.889  0.0718  0.6466  0.8389
   48MOL   H27230446   5.123   2.121   1.876 -0.3229  1.8258 -0.1872
   48MOL   H27330447   5.103   2.252   1.984  2.9312  1.1346  1.4373
   48MOL   H27430448   5.341   2.064   1.974  1.0499  0.5712 -0.9392
   48MOL   H27530449   5.351   2.218   1.911 -0.0904 -2.0036 -2.3543
   48MOL   H27630450   5.354   2.329   2.120  2.8602  0.5969  2.2832
   48MOL   H27730451   5.474   2.219   2.111 -0.0030 -0.9837  0.0067
   48MOL   H27830452   5.241   2.176   2.302  0.4410  1.1230  0.8708
   48MOL   H27930453   5.396   2.218   2.335 -0.3012  0.5357 -1.7007
   48MOL   H28030454   5.209   1.932   2.238 -1.4499  1.5698  2.9575
   48MOL   H28130455   5.279   1.701   2.283  0.6326 -1.2679 -1.4796
   48MOL   H28230456   5.437   1.747   2.306 -1.8655 -0.7478  1.1910
   48MOL   H28330457   5.268   1.756   2.042  0.3092  0.1833 -0.7185
   48MOL   H28430458   5.444   1.784   2.056  0.5096 -0.1021  0.2276
   48MOL   H28530459   5.295   1.519   2.131 -1.1145  0.8074  0.2203
   48MOL   H28630460   5.470   1.549   2.098 -0.3906  0.5423  1.7119
   48MOL   H28730461   5.376   1.626   1.854  0.5160  0.8383  0.6771
   48MOL   H28830462   5.234   1.536   1.909  0.5985  1.1072 -0.3567
   48MOL   H28930463   5.392   1.357   1.961 -0.3138 -0.0441  0.1237
   48MOL   C29030464   5.435   1.394   1.760 -0.0726  0.2727 -0.5028
   48MOL   O29130465   5.421   1.473   1.671  0.1459 -0.0229 -0.2089
   48MOL   C29230466   5.492   1.249   1.742 -0.1071  0.5779 -0.1627
   48MOL   C29330467   5.460   1.189   1.605  0.2803  0.3296  0.2371
   48MOL   C29430468   5.529   1.252   1.492 -0.4175  0.1969  1.1568
   48MOL   C29530469   5.568   1.148   1.381  0.0384 -0.3557 -0.7792
   48MOL   C29630470   5.652   1.213   1.268  0.1770  0.4797 -0.1922
   48MOL   O29730471   5.591   1.272   1.178 -0.3728 -0.0172  0.0906
   48MOL   N29830472   5.783   1.232   1.282 -0.2469 -0.8212  0.0939
   48MOL   C29930473   5.866   1.273   1.171  0.6898  0.0090  0.2627
   48MOL   C30030474   6.010   1.271   1.211  0.4125  0.1360 -0.5370
   48MOL   C30130475   6.110   1.284   1.094 -0.4023 -0.4748  0.2066
   48MOL   C30230476   6.252   1.243   1.130 -0.3161  0.5136 -0.2744
   48MOL   N30330477   6.303   1.315   1.251  0.2006 -0.5290 -0.0999
   48MOL   H30430478   5.601   1.243   1.746 -0.1783  0.0212  1.3880
   48MOL   H30530479   5.449   1.190   1.823  1.7410 -1.2528 -0.4844
   48MOL   H30630480   5.499   1.088   1.619  0.8560  0.7978  2.2024
   48MOL   H30730481   5.352   1.188   1.586 -0.3671 -2.2424  3.5719
   48MOL   H30830482   5.617   1.304   1.531 -0.7409  0.8938  0.9756
   48MOL   H30930483   5.465   1.329   1.448  3.0385  2.7581  0.3468
   48MOL   H31030484   5.481   1.095   1.342 -2.6484  0.3428  3.9015
   48MOL   H31130485   5.629   1.068   1.421  1.5701  0.6000 -1.1665
   48MOL   H31230486   5.829   1.203   1.367  1.4083  0.5012 -0.3302
   48MOL   H31330487   5.833   1.377   1.168  0.7054 -0.0302 -2.2057
   48MOL   H31430488   5.838   1.206   1.089 -1.6349  1.7654 -0.4345
   48MOL   H31530489   6.032   1.357   1.274 -2.6746  1.0801 -0.6874
   48MOL   H31630490   6.026   1.178   1.265  0.2473 -0.1382 -0.9556
   48MOL   H31730491   6.112   1.392   1.079  0.5073 -0.5744 -0.4734
   48MOL   H31830492   6.094   1.229   1.001 -0.1381 -1.4757  0.7459
   48MOL   H31930493   6.318   1.255   1.045  0.1837 -0.0259  0.0374
   48MOL   H32030494   6.253   1.138   1.156 -0.6461  0.5101 -0.2691
   48MOL   H32130495   6.277   1.411   1.269 -2.6753 -0.6143 -3.2220
   48MOL   C32230496   6.384   1.273   1.345 -0.3843  0.2842 -0.3510
   48MOL   O32330497   6.441   1.165   1.339  0.1518  0.2240 -0.1637
   48MOL   C32430498   6.412   1.364   1.459  0.0279 -0.1294  0.2973
   48MOL   C32530499   6.420   1.308   1.604 -0.6593 -0.2072 -1.6983
   48MOL   C32630500   6.449   1.422   1.709 -0.2846 -0.1547 -0.0393
   48MOL   C32730501   6.445   1.377   1.854  0.0853 -0.1294  0.2302
   48MOL   C32830502   6.310   1.323   1.899  0.7293  0.4572 -0.1859
   48MOL   O32930503   6.261   1.220   1.852  0.3839  0.1171  0.2763
   48MOL   N33030504   6.255   1.390   2.009 -0.0324 -0.6204  0.0171
   48MOL   C33130505   6.148   1.350   2.104 -0.3599  0.5965 -0.6367
   48MOL   C33230506   6.220   1.309   2.235 -0.0546  0.5221  0.1066
   48MOL   C33330507   6.126   1.259   2.340 -0.2276 -0.5749  0.6377
   48MOL   C33430508   6.195   1.262   2.480 -0.6107  0.3538  0.1372
   48MOL   N33530509   6.115   1.200   2.577 -0.4718 -0.1218  0.6814
   48MOL   H33630510   6.514   1.394   1.433 -0.8693  2.1755 -0.6447
   48MOL   H33730511   6.332   1.438   1.456  1.1021  1.0858  1.0316
   48MOL   H33830512   6.326   1.256   1.623 -0.6611  0.7206  0.9650
   48MOL   H33930513   6.498   1.232   1.611 -1.8959 -1.2972  1.0124
   48MOL   H34030514   6.394   1.516   1.702 -2.1279 -1.0389  1.9079
   48MOL   H34130515   6.547   1.464   1.691  0.0189 -0.3815  1.0494
   48MOL   H34230516   6.471   1.455   1.925  0.7796  2.8296 -3.1285
   48MOL   H34330517   6.520   1.299   1.866 -0.2686 -0.7762 -1.6109
   48MOL   H34430518   6.313   1.465   2.043 -1.0199 -0.9274  2.5092
   48MOL   H34530519   6.082   1.269   2.076  2.7591 -2.8277  1.4011
   48MOL   H34630520   6.090   1.443   2.108 -1.7559 -0.3076  0.4087
   48MOL   H34730521   6.282   1.222   2.213 -1.2643 -0.0048 -1.2660
   48MOL   H34830522   6.288   1.388   2.267  2.5408 -1.4706 -0.2520
   48MOL   H34930523   6.080   1.162   2.328  1.4236 -1.3875  0.7541
   48MOL   H35030524   6.039   1.324   2.339 -0.8972 -1.4614 -2.1810
   48MOL   H35130525   6.229   1.362   2.506 -0.2213 -0.1486  1.5799
   48MOL   H35230526   6.291   1.210   2.475 -0.9430 -0.3970  1.3185
   48MOL   H35330527   6.068   1.114   2.553  1.6514 -0.9638 -0.5773
   48MOL   C35430528   6.095   1.236   2.707 -0.2908 -0.2170  0.7074
   48MOL   O35530529   6.142   1.338   2.760  0.3385 -0.8572  0.1395
   48MOL   C35630530   5.999   1.156   2.791  0.1228 -0.3443  0.6156
   48MOL   C35730531   6.053   1.122   2.930  0.1320 -0.6145 -0.4598
   48MOL   C35830532   6.162   1.015   2.933 -0.0149 -0.1849 -0.4804
   48MOL   C35930533   6.222   1.012   3.078 -0.4126  0.4628  0.4510
   48MOL   C36030534   6.306   1.135   3.096 -1.2295 -0.1826  0.7312
   48MOL   O36130535   6.431   1.137   3.065  0.4545  0.0522  0.2530
   48MOL   N36230536   6.248   1.241   3.158  0.1738 -0.6539  0.2427
   48MOL   C36330537   6.312   1.354   3.214 -0.2632 -0.4178 -0.2099
   48MOL   C36430538   6.378   1.311   3.351 -0.7544 -0.1064 -0.1534
   48MOL   C36530539   6.279   1.261   3.452  1.0364  0.2842 -0.6483
   48MOL   C36630540   6.334   1.277   3.597 -1.1165 -0.3652  0.4061
   48MOL   N36730541   6.250   1.229   3.705 -0.0985  0.3407  1.0602
   48MOL   H36830542   5.911   1.220   2.787 -1.4682 -2.4770  0.1815
   48MOL   H36930543   5.971   1.060   2.747 -1.3274  0.2837  0.1101
   48MOL   H37030544   6.087   1.216   2.973 -1.8796 -0.5226  1.0265
   48MOL   H37130545   5.965   1.093   2.987  0.1633 -0.9719 -0.5935
   48MOL   H37230546   6.232   1.032   2.851  0.4369 -1.7354 -0.4403
   48MOL   H37330547   6.119   0.917   2.913  0.3603 -0.0923 -1.7853
   48MOL   H37430548   6.295   0.934   3.100  0.6995  1.0841 -0.9492
   48MOL   H37530549   6.142   1.009   3.153 -1.4571  0.3751 -0.6493
   48MOL   H37630550   6.152   1.224   3.186 -0.7083  1.0614 -1.6500
   48MOL   H37730551   6.252   1.441   3.243  2.1457  1.1036  0.3926
   48MOL   H37830552   6.380   1.384   3.134 -0.8799  0.5514 -0.3829
   48MOL   H37930553   6.453   1.236   3.327  0.1480  0.5146  0.6959
   48MOL   H38030554   6.432   1.394   3.396 -0.1820 -0.1641 -0.7296
   48MOL   H38130555   6.257   1.156   3.430 -0.7057 -0.1026  2.5477
   48MOL   H38230556   6.189   1.322   3.444  0.0894 -1.1101 -0.8149
   48MOL   H38330557   6.383   1.371   3.621  0.1854 -0.9377  0.0296
   48MOL   H38430558   6.420   1.211   3.593 -0.3605  0.6689 -0.5830
   48MOL   H38530559   6.185   1.298   3.739 -1.8112 -0.6438 -0.1491
   48MOL   C38630560   6.245   1.113   3.766 -0.1951 -0.6447  0.2067
   48MOL   O38730561   6.327   1.021   3.746  0.1944 -0.3611 -0.4435
   48MOL   C38830562   6.141   1.094   3.877 -0.0350  1.0644 -0.0126
   48MOL   C38930563   6.014   1.031   3.845 -0.3287  0.1933 -0.7910
   48MOL   C39030564   6.005   0.884   3.790  0.1193  0.3569 -0.2795
   48MOL   C39130565   5.890   0.794   3.846  0.0665  0.2802 -0.5353
   48MOL   C39230566   5.762   0.806   3.758 -0.2492 -0.2262 -0.1285
   48MOL   O39330567   5.652   0.830   3.816  0.0914  0.4380 -0.0194
   48MOL   N39430568   5.769   0.794   3.627 -0.3084 -0.1833 -0.0605
   48MOL   C39530569   5.647   0.776   3.538  0.0364  0.0254 -0.2054
   48MOL   C39630570   5.666   0.863   3.415 -0.0952 -0.1818 -0.3371
   48MOL   C39730571   5.548   0.840   3.315  0.1402 -0.1132  0.0751
   48MOL   C39830572   5.560   0.942   3.198  0.5920  0.3038 -0.0393
   48MOL   N39930573   5.681   0.920   3.121 -0.0896  0.5476  0.1066
   48MOL   H40030574   6.187   1.034   3.955  0.3604 -0.6506 -1.5343
   48MOL   H40130575   6.120   1.194   3.914 -1.1744  1.5414 -1.8870
   48MOL   H40230576   5.968   1.039   3.944 -0.2897  1.3729 -0.8568
   48MOL   H40330577   5.951   1.097   3.785  0.2472  0.0872 -1.5224
   48MOL   H40430578   6.100   0.840   3.819  1.3601  2.1802 -1.4950
   48MOL   H40530579   6.008   0.884   3.682  0.6811  3.7712 -0.3359
   48MOL   H40630580   5.875   0.820   3.951 -0.2506 -2.3168  0.0775
   48MOL   H40730581   5.922   0.690   3.846 -0.0598  0.2230  1.0233
   48MOL   H40830582   5.859   0.763   3.591 -0.0161  1.0833 -0.4490
   48MOL   H40930583   5.556   0.809   3.587 -0.5849 -1.2305 -0.4901
   48MOL   H41030584   5.636   0.668   3.522 -0.5062 -0.2916  2.1171
   48MOL   H41130585   5.674   0.967   3.446  0.4327 -0.2209 -0.3362
   48MOL   H41230586   5.758   0.840   3.361 -0.1372  2.0614 -1.4062
   48MOL   H41330587   5.451   0.868   3.356  0.7819  1.5621  0.5149
   48MOL   H41430588   5.537   0.738   3.278  0.2905  1.2796 -4.0691
   48MOL   H41530589   5.574   1.042   3.239  0.2008 -0.3905  1.8455
   48MOL   H41630590   5.471   0.945   3.134 -0.7966 -0.6783  1.8094
   48MOL   H41730591   5.770   0.965   3.134  0.7187 -0.0745 -2.9035
   48MOL   C41830592   5.685   0.830   3.022  0.3829 -0.3532 -0.3831
   48MOL   O41930593   5.599   0.753   2.990 -0.3154 -0.2229  0.4236
   48MOL   C42030594   5.827   0.804   2.961  0.2332  0.3540  0.8277
   48MOL   C42130595   5.927   0.725   3.053 -0.6021 -0.2978  0.2718
   48MOL   C42230596   5.887   0.590   3.105 -0.1265 -0.3142 -0.1162
   48MOL   C42330597   6.011   0.503   3.157  0.0687  1.3256 -0.9559
   48MOL   C42430598   5.977   0.352   3.171 -0.1251 -0.6584  0.0518
   48MOL   O42530599   5.861   0.316   3.132 -0.2310 -0.5986 -0.3324
   48MOL   N42630600   6.071   0.280   3.229  0.0007 -0.1292 -0.4732
   48MOL   C42730601   6.084   0.135   3.252 -0.1624  0.7846  0.3702
   48MOL   C42830602   6.227   0.071   3.211 -0.9423 -0.3268  0.4001
   48MOL   C42930603   6.343   0.121   3.303 -0.4540 -0.0496  0.2907
   48MOL   C43030604   6.402   0.264   3.270  1.0340  0.8341 -0.6692
   48MOL   N43130605   6.516   0.296   3.350  0.0341  0.3198 -0.7998
   48MOL   H43230606   5.823   0.739   2.873  2.8288  2.7833 -1.1856
   48MOL   H43330607   5.871   0.893   2.917  0.7463  0.9010  2.4145
   48MOL   H43430608   6.021   0.728   2.998 -0.6921  0.3253  0.1419
   48MOL   H43530609   5.929   0.795   3.137 -0.9672  1.4159 -1.1275
   48MOL   H43630610   5.843   0.536   3.020  0.9427  0.1789 -0.9954
   48MOL   H43730611   5.813   0.598   3.185  1.8540 -3.2505  2.1316
   48MOL   H43830612   6.050   0.548   3.249  0.5789 -0.7689 -0.1181
   48MOL   H43930613   6.088   0.515   3.081 -0.2453  0.8525 -1.3467
   48MOL   H44030614   6.152   0.337   3.250  0.5601 -0.7855 -0.8263
   48MOL   H44130615   6.000   0.079   3.212  0.8171 -0.8750  0.6167
   48MOL   H44230616   6.077   0.138   3.361 -0.5939  1.2714  0.3317
   48MOL   H44330617   6.219   7.664   3.221 -2.0202 -0.5258 -2.1943
   48MOL   H44430618   6.240   0.101   3.107 -1.4913  0.7390  0.6204
   48MOL   H44530619   6.427   0.051   3.295  1.3693  2.0171  1.0504
   48MOL   H44630620   6.323   0.112   3.410  2.0461 -1.9141  0.6431
   48MOL   H44730621   6.325   0.342   3.276  0.9822  0.6004  3.1502
   48MOL   H44830622   6.444   0.266   3.169  1.2694 -0.6798 -0.6116
   48MOL   H44930623   6.604   0.253   3.325  0.0874  0.0980 -0.2308
   48MOL   C45030624   6.525   0.401   3.434 -0.2934 -0.5027 -0.0716
   48MOL   O45130625   6.429   0.479   3.454 -0.1879  0.2020  0.1054
   48MOL   C45230626   6.654   0.418   3.517  0.1949 -0.2302 -0.7960
   48MOL   C45330627   6.709   0.558   3.523  0.0080 -0.3053  0.3818
   48MOL   C45430628   6.767   0.612   3.386  0.1558  0.6032  0.2966
   48MOL   C45530629   6.904   0.548   3.352 -0.1851  0.4489 -1.0678
   48MOL   C45630630   6.966   0.621   3.236  0.7042 -0.2323 -1.3098
   48MOL   O45730631   6.933   0.735   3.207  0.5556  0.0242  0.0130
   48MOL   N45830632   7.070   0.556   3.172  0.4981 -0.0522 -0.1562
   48MOL   C45930633   7.130   0.604   3.051  0.2754 -0.3761 -0.0964
   48MOL   C46030634   7.063   0.532   2.927 -0.0762  0.0533  0.2272
   48MOL   C46130635   7.101   0.596   2.794  0.4021 -0.1627 -0.2801
   48MOL   C46230636   7.024   0.553   2.669  0.1197  0.4518 -0.6029
   48MOL   N46330637   7.063   0.638   2.558  0.4579  0.2456  0.4487
   48MOL   H46430638   6.637   0.372   3.614  3.2961 -0.9213 -0.5411
   48MOL   H46530639   6.725   0.349   3.472 -0.2761 -1.1321 -0.1704
   48MOL   H46630640   6.625   0.624   3.545  0.1607  0.7893 -2.1020
   48MOL   H46730641   6.779   0.575   3.604 -0.3173  1.2336  0.3519
   48MOL   H46830642   6.798   0.713   3.414  1.7969  0.4743 -1.0093
   48MOL   H46930643   6.698   0.614   3.301 -0.2776  2.1204  0.6582
   48MOL   H47030644   6.909   0.441   3.328 -0.1882  0.0596  0.6272
   48MOL   H47130645   6.977   0.559   3.432 -1.3648  1.0767 -0.0643
   48MOL   H47230646   7.109   0.468   3.204  2.0232 -0.3442 -2.6172
   48MOL   H47330647   7.238   0.590   3.047  0.6401  1.9206  1.2631
   48MOL   H47430648   7.108   0.711   3.047 -0.9375 -0.5450  1.3964
   48MOL   H47530649   7.098   0.429   2.918  1.8795  0.8942 -2.3287
   48MOL   H47630650   6.955   0.527   2.941 -0.2309 -3.8597 -1.5904
   48MOL   H47730651   7.208   0.583   2.778  0.4201 -1.0291  0.5037
   48MOL   H47830652   7.077   0.700   2.817 -3.0012 -1.1697  1.0009
   48MOL   H47930653   6.917   0.560   2.685  0.0277 -0.4165 -0.8505
   48MOL   H48030654   7.036   0.445   2.656 -3.2213 -0.2200  1.3824
   48MOL   H48130655   7.003   0.716   2.539  1.2667  0.6316 -0.5814
   48MOL   C48230656   7.159   0.607   2.468  0.4021 -0.0975  0.2768
   48MOL   O48330657   7.228   0.502   2.465  0.4168  0.6820  0.5696
   48MOL   C48430658   7.197   0.719   2.365 -0.1291 -0.1468 -0.1550
   48MOL   C48530659   7.339   0.775   2.385 -0.1440 -0.2429 -0.8684
   48MOL   C48630660   7.369   0.834   2.525  0.1177  0.3192  0.0548
   48MOL   C48730661   7.514   0.894   2.552  0.0447 -0.7109 -0.1918
   48MOL   C48830662   7.554   1.017   2.477  0.3419  0.7333  0.7462
   48MOL   O48930663   7.501   1.124   2.502 -0.8216 -0.4171  0.6183
   48MOL   N49030664   7.618   1.006   2.364  0.2643  0.0397  0.4114
   48MOL   C49130665   7.636   1.118   2.273 -0.8731 -0.9602 -0.5510
   48MOL   C49230666   0.070   1.183   2.290  0.0356  0.1746 -0.0137
   48MOL   C49330667   0.093   1.290   2.185 -0.2431 -0.5814  0.5414
   48MOL   C49430668   0.232   1.351   2.175 -0.6867  0.0814  0.1832
   48MOL   N49530669   0.238   1.448   2.065  0.0022  0.3550 -0.5009
   48MOL   H49630670   7.185   0.679   2.264 -2.5331 -2.6537  1.0629
   48MOL   H49730671   7.117   0.793   2.374  0.2184  0.4522 -1.8321
   48MOL   H49830672   7.410   0.698   2.356  2.7905  2.4423 -1.0844
   48MOL   H49930673   7.346   0.854   2.310 -0.5155 -0.1790 -0.8332
   48MOL   H50030674   7.349   0.757   2.599  1.6738  1.5528  1.7909
   48MOL   H50130675   7.304   0.914   2.560 -0.1732  0.8043 -1.5372
   48MOL   H50230676   7.589   0.815   2.545  1.3796  0.3367  1.9264
   48MOL   H50330677   7.520   0.911   2.659 -2.8737  1.2247 -0.2694
   48MOL   H50430678   7.630   0.913   2.325 -1.6194 -0.0786  0.0943
   48MOL   H50530679   7.553   1.188   2.280 -1.0954 -1.1956 -0.8109
   48MOL   H50630680   7.628   1.079   2.171 -1.6201 -0.9593 -0.4966
   48MOL   H50730681   0.076   1.227   2.390 -2.3517  2.3828 -0.7935
   48MOL   H50830682   0.142   1.102   2.280  0.3032 -0.0616  3.1500
   48MOL   H50930683   0.018   1.369   2.193  1.2379  0.6742  2.3602
   48MOL   H51030684   0.081   1.244   2.087 -1.6882  0.9540 -0.0284
   48MOL   H51130685   0.303   1.268   2.165 -0.7387  0.1383 -0.6910
   48MOL   H51230686   0.262   1.398   2.268  1.9765 -1.1863  0.0396
   48MOL   H51330687   0.152   1.447   2.012 -0.1905  0.3500 -0.1869
   48MOL   C51430688   0.342   1.531   2.039  0.1412  0.3022 -0.1708
   48MOL   O51530689   0.448   1.544   2.103 -0.2640 -0.0286 -0.4497
   48MOL   C51630690   0.302   1.626   1.924  0.3098  0.9823  0.3000
   48MOL   C51730691   0.291   1.773   1.964 -0.3286 -0.4316  0.1549
   48MOL   C51830692   0.154   1.845   1.949  0.0835 -0.5841 -0.0840
   48MOL   C51930693   0.032   1.776   2.006 -0.1766 -0.8044 -0.1792
   48MOL   C52030694   0.026   1.754   2.159  0.5841  0.1434  0.2297
   48MOL   O52130695   0.094   1.818   2.241  0.3639  0.3768 -0.0157
   48MOL   N52230696   7.649   1.653   2.202  0.3943  1.0688 -0.0729
   48MOL   C52330697   7.637   1.621   2.343 -0.0781 -0.0124  0.1266
   48MOL   C52430698   7.552   1.497   2.371 -0.6003  0.4455  0.0605
   48MOL   C52530699   7.406   1.521   2.437  0.4333 -0.3353  0.0528
   48MOL   C52630700   7.312   1.397   2.433 -0.0640 -0.1714  0.0004
   48MOL   N52730701   7.180   1.442   2.489  0.3044 -0.3730 -0.1795
   48MOL   H52830702   0.367   1.611   1.838 -1.8086 -2.6924 -0.8026
   48MOL   H52930703   0.205   1.597   1.883  0.1858 -0.2106  1.3998
   48MOL   H53030704   0.311   1.790   2.070  1.1181  3.1189 -0.5846
   48MOL   H53130705   0.373   1.825   1.914 -0.4122 -0.9788 -0.5595
   48MOL   H53230706   0.131   1.866   1.844  0.1147 -1.5428 -0.2869
   48MOL   H53330707   0.176   1.941   1.997  2.4381 -1.2098  0.1675
   48MOL   H53430708   0.024   1.683   1.949  1.0005  1.1518 -3.6634
   48MOL   H53530709   7.640   1.820   1.969 -0.7526 -0.0403  2.0843
   48MOL   H53630710   7.607   1.596   2.130 -1.0367  0.4033  1.2648
   48MOL   H53730711   7.585   1.710   2.379 -0.6923 -0.1365 -0.4305
   48MOL   H53830712   0.036   1.611   2.383 -0.6012  1.2055  1.8087
   48MOL   H53930713   7.527   1.438   2.282 -1.7490 -0.9656  1.2908
   48MOL   H54030714   7.617   1.435   2.432 -0.3097 -1.5534 -2.1650
   48MOL   H54130715   7.355   1.599   2.381 -0.9211 -1.7554 -0.7186
   48MOL   H54230716   7.419   1.554   2.540 -1.1092 -0.0128  0.1456
   48MOL   H54330717   7.350   1.309   2.484 -1.4235 -1.2007 -0.7178
   48MOL   H54430718   7.292   1.369   2.330  0.4225 -1.9112  0.3634
   48MOL   H54530719   7.121   1.502   2.433  1.2033 -0.8685 -1.6920
   48MOL   C54630720   7.133   1.398   2.608  1.2531 -0.0975  0.5034
   48MOL   O54730721   7.193   1.322   2.685  0.0013  0.4283 -0.0134
   48MOL   C54830722   6.988   1.451   2.643 -0.0156 -0.0706 -0.1695
   48MOL   C54930723   6.961   1.451   2.795 -0.2721  0.2851 -0.4461
   48MOL   C55030724   7.032   1.562   2.869  0.0151 -0.6996 -0.0796
   48MOL   C55130725   6.967   1.703   2.842 -0.1898 -0.0537 -0.5782
   48MOL   C55230726   7.016   1.819   2.927 -0.7535  0.3069 -0.2991
   48MOL   O55330727   7.115   1.810   2.998 -0.8511 -0.3768 -0.7606
   48MOL   N55430728   6.950   1.933   2.920 -0.3803 -0.4007  0.0865
   48MOL   C55530729   6.986   2.047   3.007 -0.0831  0.2590  0.3285
   48MOL   C55630730   6.963   2.021   3.156 -0.5165  0.9527  0.5457
   48MOL   C55730731   6.822   1.969   3.188 -0.3037  0.5060 -0.5753
   48MOL   C55830732   6.801   1.907   3.328  0.6182 -0.1866  0.3939
   48MOL   N55930733   6.854   1.771   3.326  0.1720  0.2502 -0.5497
   48MOL   H56030734   6.975   1.552   2.604 -0.6159 -0.6848 -1.5948
   48MOL   H56130735   6.915   1.393   2.586  0.0217  1.8817 -2.2517
   48MOL   H56230736   6.857   1.472   2.817  0.1326 -0.8520  2.7322
   48MOL   H56330737   6.988   1.356   2.841 -0.9912 -0.4561 -1.5026
   48MOL   H56430738   7.139   1.559   2.847 -0.2449  1.2743 -1.7967
   48MOL   H56530739   7.023   1.533   2.974  1.5933 -0.7600  0.0611
   48MOL   H56630740   6.862   1.682   2.863 -0.2362 -1.2317 -1.9005
   48MOL   H56730741   6.984   1.734   2.739  1.1096 -0.4183 -0.4782
   48MOL   H56830742   6.865   1.946   2.867 -0.5287  1.7924  0.8180
   48MOL   H56930743   6.923   2.133   2.986  0.9520  0.9899  0.1475
   48MOL   H57030744   7.080   2.090   2.969  1.1612 -0.8340  2.1044
   48MOL   H57130745   7.043   1.959   3.196 -0.5158 -0.3714 -1.4369
   48MOL   H57230746   6.972   2.116   3.208  0.7721  1.3581 -0.3941
   48MOL   H57330747   6.793   1.896   3.113 -0.0810  0.7812 -0.9267
   48MOL   H57430748   6.748   2.049   3.184 -1.5343 -0.6085 -0.6963
   48MOL   H57530749   6.692   1.902   3.322  0.4499  1.1268  1.9881
   48MOL   H57630750   6.825   1.968   3.416 -0.7107 -0.9055  1.2834
   48MOL   H57730751   6.949   1.740   3.345 -0.3940  0.8493  3.6680
   48MOL   C57830752   6.785   1.659   3.311 -0.1851 -0.2066  0.3959
   48MOL   O57930753   6.664   1.659   3.297  0.6944 -0.4594 -0.2337
   48MOL   C58030754   6.867   1.524   3.300 -0.6288 -0.0720  0.6989
   48MOL   C58130755   6.779   1.409   3.246 -0.6744 -0.7085 -0.4371
   48MOL   C58230756   6.864   1.295   3.196 -0.0396 -0.7434 -0.0021
   48MOL   C58330757   6.783   1.175   3.145 -0.0649  0.3351 -0.5092
   48MOL   C58430758   6.740   1.089   3.262 -0.2400 -1.0241  0.3049
   48MOL   O58530759   6.818   1.054   3.350 -0.1540 -0.2179 -0.5556
   48MOL   N58630760   6.622   1.033   3.254 -0.0065 -0.5539  0.7630
   48MOL   C58730761   6.576   0.920   3.332  0.5598 -0.1099  0.1884
   48MOL   C58830762   6.422   0.931   3.385  0.1565  0.0325 -0.6905
   48MOL   C58930763   6.374   0.785   3.417  0.1995 -0.0730 -0.6320
   48MOL   C59030764   6.231   0.783   3.468 -0.5252  0.0228  0.4310
   48MOL   N59130765   6.203   0.651   3.515  0.5011  0.3234  0.8368
   48MOL   H59230766   6.950   1.543   3.232 -0.4167 -1.5948  0.5185
   48MOL   H59330767   6.909   1.503   3.399 -1.3682 -1.9952  0.6353
   48MOL   H59430768   6.702   1.385   3.320 -0.7546  0.4680 -0.1223
   48MOL   H59530769   6.733   1.459   3.161 -0.5861  0.2218  0.0528
   48MOL   H59630770   6.927   1.272   3.282  1.0439 -0.0580 -0.5966
   48MOL   H59730771   6.914   1.340   3.110  2.5478 -0.1733  1.7235
   48MOL   H59830772   6.853   1.107   3.096  0.5275 -0.5534  1.5315
   48MOL   H59930773   6.699   1.211   3.086  0.5905  2.8908  0.0492
   48MOL   H60030774   6.554   1.063   3.186 -0.7333  0.2963  1.8438
   48MOL   H60130775   6.649   0.884   3.405  1.2216  0.6044 -0.1143
   48MOL   H60230776   6.583   0.840   3.258  0.1349  1.3984 -1.4946
   48MOL   H60330777   6.413   1.002   3.468  1.0182 -1.4588  0.6982
   48MOL   H60430778   6.358   0.969   3.305  1.0553 -1.4832 -2.1455
   48MOL   H60530779   6.435   0.755   3.502 -0.4172  1.8924  0.5352
   48MOL   H60630780   6.412   0.717   3.340  2.4537  0.2202  0.1763
   48MOL   H60730781   6.160   0.821   3.395 -1.6263 -0.8149  1.0401
   48MOL   H60830782   6.227   0.857   3.549  0.4261 -0.1287  0.6207
   48MOL   H60930783   6.287   0.596   3.506  0.7481  0.8700 -0.2883
   48MOL   C61030784   6.080   0.593   3.526 -0.7710  0.1406 -0.1971
   48MOL   O61130785   5.978   0.660   3.522 -0.2748  0.1911 -0.3772
   48MOL   C61230786   6.082   0.438   3.557  1.1499 -0.3063 -0.0598
   48MOL   C61330787   5.944   0.375   3.531 -0.1200 -0.2123  0.0134
   48MOL   C61430788   5.845   0.393   3.645 -0.2737  0.1242 -0.1988
   48MOL   C61530789   5.704   0.355   3.602  0.2274 -0.3377 -0.2747
   48MOL   C61630790   5.690   0.217   3.546  0.1238  0.3284 -0.1324
   48MOL   O61730791   5.736   0.123   3.604 -0.5729  0.0999 -0.0337
   48MOL   N61830792   5.629   0.205   3.428  0.3623 -0.2018 -0.2235
   48MOL   C61930793   5.601   0.081   3.355 -0.3082  0.2549  0.1107
   48MOL   C62030794   5.726   0.037   3.270 -1.3274 -0.0922  0.0767
   48MOL   C62130795   5.717   7.594   3.225  0.0602 -0.3395  0.0740
   48MOL   C62230796   5.847   7.559   3.153  0.7179  0.2388  0.4016
   48MOL   N62330797   5.823   7.445   3.055 -0.6995  0.0013 -0.6960
   48MOL   H62430798   6.151   0.388   3.489  2.0994 -0.2295  0.8533
   48MOL   H62530799   6.117   0.428   3.659 -0.5449  2.3591  0.8382
   48MOL   H62630800   5.908   0.427   3.442 -2.9213 -3.4741 -0.8544
   48MOL   H62730801   5.947   0.269   3.506 -0.0231  0.0078 -0.9123
   48MOL   H62830802   5.845   0.495   3.683  1.1451 -0.7447  2.2554
   48MOL   H62930803   5.867   0.339   3.738 -1.3761 -1.8407 -1.0452
   48MOL   H63030804   5.661   0.424   3.530 -1.1189 -0.6049  0.2565
   48MOL   H63130805   5.637   0.366   3.687  0.2785  3.4023 -0.6606
   48MOL   H63230806   5.594   0.290   3.387 -2.0748 -1.2059 -0.3239
   48MOL   H63330807   5.513   0.095   3.292  0.0272 -0.4163 -0.5067
   48MOL   H63430808   5.574   0.003   3.426 -0.2903  2.0841  2.2095
   48MOL   H63530809   5.742   0.111   3.192 -1.5827 -0.1528 -0.0349
   48MOL   H63630810   5.816   0.044   3.330 -1.1727  1.2383 -0.3117
   48MOL   H63730811   5.624   7.593   3.168  0.2273  1.3121 -0.2327
   48MOL   H63830812   5.704   7.532   3.314  0.6972 -0.5771  0.0005
   48MOL   H63930813   5.905   7.533   3.242  2.0637  1.4427 -0.1119
   48MOL   H64030814   5.884   7.647   3.102 -0.3477  1.2062  1.2588
   48MOL   H64130815   5.828   7.363   3.114  1.6762 -0.2607 -1.2175
   48MOL   H64230816   5.900   7.444   2.990 -1.5469  2.0632 -1.7808
   49MOL     C130817   0.105   3.719   4.857  0.2028  0.0416 -1.3342
   49MOL     O230818   0.221   3.705   4.881 -0.0399  0.2116  0.1802
   49MOL     C330819   0.063   3.841   4.786 -0.1086 -0.3653 -0.0789
   49MOL     C430820   0.010   3.824   4.639  0.2074  0.0916 -0.4894
   49MOL     C530821   0.066   3.711   4.557  0.2750 -0.0657 -0.2907
   49MOL     C630822   0.205   3.758   4.509 -0.6337 -0.7129  0.1366
   49MOL     C730823   0.195   3.834   4.373 -0.5378  0.2519  0.5604
   49MOL     O830824   0.137   3.788   4.275  0.0392  0.2249 -0.3226
   49MOL     N930825   0.254   3.953   4.365 -0.6150 -0.1321  0.0548
   49MOL    C1030826   0.251   4.031   4.241 -0.2675  0.0671  0.3898
   49MOL    C1130827   0.120   4.113   4.238  0.5984 -0.0726  0.1443
   49MOL    C1230828   0.101   4.198   4.109  0.3069 -0.2199 -0.4681
   49MOL    C1330829   7.678   4.296   4.096  0.3999 -0.0031 -0.2684
   49MOL    N1430830   7.692   4.366   3.973  0.6253  0.4151 -0.3268
   49MOL    H1530831   7.693   3.891   4.852  0.0567 -1.0725  0.6410
   49MOL    H1630832   0.159   3.894   4.788 -1.0151  1.3482 -0.8226
   49MOL    H1730833   7.608   3.797   4.662  0.6906 -3.6693 -2.4181
   49MOL    H1830834   0.008   3.922   4.591 -1.9333  0.5893  0.5129
   49MOL    H1930835   0.005   3.690   4.470  0.6961  4.4672 -1.8243
   49MOL    H2030836   0.077   3.622   4.619 -2.3847  0.4237  0.9612
   49MOL    H2130837   0.271   3.672   4.496 -0.5432 -0.8558  1.4871
   49MOL    H2230838   0.248   3.820   4.587 -1.8675 -0.9109  0.9864
   49MOL    H2330839   0.292   4.006   4.442  2.3745 -1.4895 -0.4219
   49MOL    H2430840   0.252   3.962   4.156 -1.7782  0.7437 -0.1865
   49MOL    H2530841   0.343   4.089   4.239 -1.0621  1.3893  1.4640
   49MOL    H2630842   0.035   4.046   4.247  0.5070  0.4281  3.5830
   49MOL    H2730843   0.106   4.174   4.328  0.7068  1.7942 -1.0816
   49MOL    H2830844   0.118   4.136   4.021 -1.4723  0.4142 -1.3016
   49MOL    H2930845   0.195   4.252   4.112  1.9204 -2.9289  0.0630
   49MOL    H3030846   7.673   4.371   4.175  1.3270  0.8695 -1.0208
   49MOL    H3130847   7.581   4.249   4.110  0.2777  0.4060  0.2649
   49MOL    H3230848   0.070   4.428   3.980  1.0272 -0.2826  1.7156
   49MOL    H3330849   0.027   3.650   4.890 -0.3008  2.0111  1.7301
   49MOL    C3430850   7.599   4.376   3.877 -0.0005 -0.6240  0.8726
   49MOL    O3530851   7.492   4.321   3.871  0.9356 -0.1758  0.0711
   49MOL    C3630852   7.630   4.481   3.769 -0.5475  0.6112 -0.2712
   49MOL    C3730853   7.512   4.574   3.738 -0.1447 -0.3033  0.6633
   49MOL    C3830854   7.524   4.679   3.637  0.1240 -0.5779 -0.1364
   49MOL    C3930855   7.551   4.646   3.492  0.1392  0.1476 -0.6625
   49MOL    C4030856   7.428   4.581   3.430  0.0741 -0.1118 -0.3416
   49MOL    O4130857   7.315   4.626   3.444  0.2405  0.1988  1.0161
   49MOL    N4230858   7.448   4.478   3.347  0.6500  0.5419  0.4187
   49MOL    C4330859   7.345   4.396   3.283 -0.6043  0.1883 -0.5919
   49MOL    C4430860   7.404   4.286   3.199  0.2780  0.4374  0.5773
   49MOL    C4530861   7.302   4.186   3.140  0.2605  0.1301  0.5866
   49MOL    C4630862   7.165   4.244   3.098  0.0238 -0.3029 -0.4863
   49MOL    N4730863   7.081   4.140   3.036  0.1135 -0.0516 -0.1204
   49MOL    H4830864   0.017   4.535   3.805  0.0337  0.3440 -1.2923
   49MOL    H4930865   7.661   4.444   3.671 -0.2616  0.0613  0.0232
   49MOL    H5030866   7.432   4.510   3.701  0.0927 -1.1018  1.5053
   49MOL    H5130867   7.471   4.617   3.829  0.7659  0.0030  0.9339
   49MOL    H5230868   7.603   4.742   3.680 -1.2206  0.5140  0.7637
   49MOL    H5330869   7.444   4.753   3.640 -2.0504 -2.7950 -1.7898
   49MOL    H5430870   7.629   4.572   3.476 -1.9464 -1.6253 -2.9469
   49MOL    H5530871   7.577   4.744   3.451  1.4064  0.0746 -0.0630
   49MOL    H5630872   7.542   4.458   3.316  0.9744  2.1431  0.3193
   49MOL    H5730873   7.303   4.463   3.208 -1.3726 -1.1924 -1.4339
   49MOL    H5830874   7.277   4.355   3.358  2.3533 -1.5732  1.2239
   49MOL    H5930875   7.460   4.333   3.118 -3.1752 -0.1690 -2.3177
   49MOL    H6030876   7.478   4.230   3.255  1.8911  1.2512 -0.6715
   49MOL    H6130877   7.291   4.090   3.190 -1.1484  1.1117  2.2220
   49MOL    H6230878   7.349   4.150   3.049 -0.9748 -0.4725  0.1835
   49MOL    H6330879   7.184   4.324   3.026  0.0047  0.1465  0.0078
   49MOL    H6430880   7.119   4.288   3.186 -1.6067 -1.4796 -0.7295
   49MOL    H6530881   7.085   4.048   3.077 -1.2600  0.4576  1.1980
   49MOL    C6630882   6.985   4.162   2.945 -0.1215 -0.2877  0.1389
   49MOL    O6730883   6.953   4.277   2.914  0.1684 -0.3959  0.0617
   49MOL    C6830884   6.912   4.037   2.886 -1.0752  0.4426 -0.3432
   49MOL    C6930885   6.878   4.063   2.743 -0.1814 -0.3844  0.5116
   49MOL    C7030886   6.807   3.947   2.672 -0.9608 -0.1703  0.5652
   49MOL    C7130887   6.659   3.949   2.717  0.2306  0.2593  0.4975
   49MOL    C7230888   6.588   4.077   2.680 -0.9550 -0.4361  0.4023
   49MOL    O7330889   6.591   4.164   2.771 -0.2945  0.1041  0.0721
   49MOL    N7430890   6.520   4.092   2.569  0.0471 -0.7899  0.2834
   49MOL    C7530891   6.436   4.209   2.546  0.3066 -0.1200 -0.3299
   49MOL    C7630892   6.322   4.162   2.459  0.0264 -0.2608 -0.1715
   49MOL    C7730893   6.259   4.278   2.381  0.4893  0.4475 -0.1863
   49MOL    C7830894   6.114   4.308   2.429 -0.4160 -0.5715  1.2866
   49MOL    N7930895   6.047   4.390   2.329 -0.0363 -0.3601  0.0333
   49MOL    H8030896   6.973   3.949   2.907 -1.3352 -0.4581 -3.1536
   49MOL    H8130897   6.824   4.027   2.949 -0.8847  1.3242  0.0729
   49MOL    H8230898   6.834   4.162   2.732 -0.2222 -0.2967  1.4556
   49MOL    H8330899   6.974   4.075   2.693  0.0555 -2.4947  0.3882
   49MOL    H8430900   6.846   3.847   2.689  1.3117  0.4550 -0.8175
   49MOL    H8530901   6.819   3.962   2.565 -0.8647  1.0711  0.7411
   49MOL    H8630902   6.672   3.938   2.824  1.2544 -1.6072  0.2062
   49MOL    H8730903   6.597   3.872   2.670 -0.1654  0.4278  0.7502
   49MOL    H8830904   6.540   4.024   2.498 -4.7642 -0.5565 -1.4509
   49MOL    H8930905   6.494   4.292   2.505 -1.4837  1.0441 -0.5626
   49MOL    H9030906   6.391   4.247   2.637  1.9118  1.9658 -0.3686
   49MOL    H9130907   6.368   4.103   2.380 -0.3589  0.3483 -0.8633
   49MOL    H9230908   6.254   4.096   2.513 -0.2698 -0.4505 -0.7708
   49MOL    H9330909   6.256   4.245   2.277  2.4242  2.4887 -0.9462
   49MOL    H9430910   6.318   4.370   2.376 -0.2693  0.8810 -1.7831
   49MOL    H9530911   6.117   4.361   2.524  1.3709 -1.1102  1.5397
   49MOL    H9630912   6.055   4.219   2.450 -1.1291 -0.1441  1.1134
   49MOL    H9730913   6.076   4.485   2.312 -2.9316  0.2570 -1.7577
   49MOL    C9830914   5.963   4.347   2.234 -0.6245  0.0357 -0.5989
   49MOL    O9930915   5.929   4.230   2.230  0.0062 -0.5337 -0.2716
   49MOL   C10030916   5.912   4.446   2.136 -0.0669 -0.8046 -0.7458
   49MOL   C10130917   5.824   4.397   2.021  0.2068  0.0892  0.6794
   49MOL   C10230918   5.901   4.325   1.907  0.1880 -0.1240 -0.3380
   49MOL   C10330919   5.821   4.290   1.776 -0.3885  0.4604 -0.0539
   49MOL   C10430920   5.901   4.206   1.684  0.5084 -0.2473  0.2793
   49MOL   O10530921   6.022   4.233   1.655 -0.5216 -0.8034  0.2883
   49MOL   N10630922   5.833   4.109   1.618  0.3959  0.1821  0.4079
   49MOL   C10730923   5.902   4.005   1.538 -0.5313 -0.5375  0.5018
   49MOL   C10830924   5.937   3.888   1.627  0.1332  0.0950 -0.4502
   49MOL   C10930925   5.810   3.818   1.686 -0.5656  0.9555 -0.1025
   49MOL   C11030926   5.840   3.685   1.767 -0.6198  0.1359 -0.0767
   49MOL   N11130927   5.720   3.615   1.820 -0.6908 -0.4271 -0.4523
   49MOL   H11230928   5.856   4.521   2.192  0.2715 -1.0176 -0.1183
   49MOL   H11330929   5.994   4.502   2.093  0.4525  0.2443  1.5411
   49MOL   H11430930   5.749   4.332   2.066  0.0601  0.8058  1.4916
   49MOL   H11530931   5.769   4.483   1.982 -1.2596 -1.0073  0.2717
   49MOL   H11630932   5.940   4.229   1.940  3.1182  1.3051  0.5320
   49MOL   H11730933   5.991   4.381   1.879 -0.1678  1.1274  0.9647
   49MOL   H11830934   5.799   4.383   1.723 -0.0340  0.8412  0.4550
   49MOL   H11930935   5.730   4.232   1.785 -1.4792  1.9982 -0.9305
   49MOL   H12030936   5.732   4.108   1.627  0.2117  1.5129 -1.3781
   49MOL   H12130937   6.001   4.037   1.505 -0.9035  2.2308  1.8623
   49MOL   H12230938   5.839   3.958   1.462 -2.5092 -0.4920  2.0738
   49MOL   H12330939   6.008   3.823   1.577  2.2257  1.4247  0.6938
   49MOL   H12430940   6.004   3.915   1.710 -0.8603  1.0645  0.0428
   49MOL   H12530941   5.732   3.801   1.611 -2.6824  1.1950  2.0034
   49MOL   H12630942   5.757   3.882   1.756 -1.5356  0.7204 -0.6065
   49MOL   H12730943   5.915   3.712   1.842  0.5629 -0.7617 -0.9083
   49MOL   H12830944   5.878   3.624   1.685 -0.4080  0.7056 -0.4041
   49MOL   H12930945   5.695   3.619   1.917 -0.4664  0.4427 -0.4309
   49MOL   C13030946   5.634   3.533   1.747  0.1692 -0.0003  0.2925
   49MOL   O13130947   5.618   3.531   1.626  0.2226 -0.1515  0.1422
   49MOL   C13230948   5.542   3.443   1.829 -0.0530  0.0511  1.0219
   49MOL   C13330949   5.564   3.286   1.816  0.0325  0.3644  0.6018
   49MOL   C13430950   5.571   3.223   1.678  0.0699 -0.4371 -0.7645
   49MOL   C13530951   5.579   3.075   1.677 -0.4076 -0.0936 -0.4984
   49MOL   C13630952   5.723   3.017   1.700  0.6658  0.3713  0.6228
   49MOL   O13730953   5.822   3.069   1.656  0.2431 -0.6150  0.4929
   49MOL   N13830954   5.723   2.900   1.764  0.0363  0.2245  0.0874
   49MOL   C13930955   5.840   2.814   1.777 -0.2836 -0.3071  0.4761
   49MOL   C14030956   5.814   2.686   1.846  0.2129  0.0654 -0.0170
   49MOL   C14130957   5.944   2.608   1.883  0.6939  0.0432 -0.0397
   49MOL   C14230958   5.929   2.481   1.973 -0.3980 -0.2510 -0.2765
   49MOL   N14330959   6.057   2.415   1.996 -0.3046  0.3393  0.4034
   49MOL   H14430960   5.547   3.478   1.932  0.4768  0.4157  0.8722
   49MOL   H14530961   5.443   3.475   1.795  0.4240  1.0675  0.5588
   49MOL   H14630962   5.651   3.254   1.873  0.3900  1.5974  0.7583
   49MOL   H14730963   5.475   3.236   1.855 -0.7704  0.5435 -0.9612
   49MOL   H14830964   5.657   3.262   1.624  0.0007  0.4943 -0.2289
   49MOL   H14930965   5.478   3.258   1.633  0.1040  1.3548  0.4889
   49MOL   H15030966   5.534   3.041   1.584 -2.2093  1.8433 -0.3877
   49MOL   H15130967   5.511   3.027   1.748 -0.2211 -0.3886 -0.5181
   49MOL   H15230968   5.636   2.858   1.792 -0.4330  0.0121 -1.6519
   49MOL   H15330969   5.919   2.865   1.831  0.4455 -3.1632  2.2125
   49MOL   H15430970   5.876   2.803   1.675 -0.9392  3.1529 -0.1966
   49MOL   H15530971   5.764   2.711   1.940 -0.6945 -2.6734  0.2776
   49MOL   H15630972   5.744   2.631   1.783 -0.4689 -0.0861  0.8608
   49MOL   H15730973   6.011   2.686   1.920  1.0657 -0.9435  1.4375
   49MOL   H15830974   5.996   2.563   1.798  2.6869  2.0105  0.1117
   49MOL   H15930975   5.855   2.418   1.923  1.0111 -0.1639 -2.5602
   49MOL   H16030976   5.898   2.526   2.067 -1.6515  1.8810 -1.7002
   49MOL   H16130977   6.128   2.451   2.058  1.6127 -0.6316 -1.1919
   49MOL   C16230978   6.106   2.319   1.915  0.3789 -0.4197  0.0692
   49MOL   O16330979   6.041   2.276   1.826  0.0933  0.2393 -0.2620
   49MOL   C16430980   6.248   2.273   1.932  0.4866  0.1475 -0.4430
   49MOL   C16530981   6.276   2.168   2.037  0.3592 -0.4084  0.4836
   49MOL   C16630982   6.417   2.125   2.051 -0.2304 -0.1348 -0.7998
   49MOL   C16730983   6.438   2.032   2.170  0.5441  0.2390 -0.1321
   49MOL   C16830984   6.570   1.952   2.161  0.0295  0.3477  1.2840
   49MOL   O16930985   6.671   2.001   2.213 -0.3864 -0.2810  0.1257
   49MOL   N17030986   6.562   1.835   2.096 -0.1393 -0.3265 -1.0265
   49MOL   C17130987   6.674   1.746   2.063  0.1900  0.1088  0.8120
   49MOL   C17230988   6.768   1.794   1.957 -0.8205 -0.6252  0.0517
   49MOL   C17330989   6.719   1.796   1.811 -0.5684 -0.2968 -0.3938
   49MOL   C17430990   6.828   1.811   1.710  0.7891  0.2594 -0.0435
   49MOL   N17530991   6.773   1.830   1.573 -0.3826  0.4412  0.2805
   49MOL   H17630992   6.290   2.232   1.840  1.9573 -0.1321  0.3291
   49MOL   H17730993   6.310   2.354   1.970  0.0537 -0.4714  1.6583
   49MOL   H17830994   6.244   2.205   2.135  0.6739  0.6769  0.1794
   49MOL   H17930995   6.227   2.074   2.010  0.7295 -0.5688  0.3626
   49MOL   H18030996   6.473   2.217   2.067 -0.6808 -0.0210  0.1290
   49MOL   H18130997   6.448   2.068   1.963 -0.6929  0.7275 -1.5326
   49MOL   H18230998   6.360   1.956   2.180  0.7109  0.0321 -0.4027
   49MOL   H18330999   6.433   2.084   2.265 -1.0698 -2.2207  1.2071
   49MOL   H18431000   6.469   1.807   2.067 -0.7169  0.6520 -0.1511
   49MOL   H18531001   6.621   1.658   2.027  0.7639 -0.1333  0.5397
   49MOL   H18631002   6.735   1.722   2.151  0.7292 -0.9952  0.1453
   49MOL   H18731003   6.805   1.888   1.998  1.6384 -1.4362 -0.1900
   49MOL   H18831004   6.858   1.731   1.956  0.5277  1.2447  0.0383
   49MOL   H18931005   6.641   1.871   1.799 -0.0095  0.3973  0.3419
   49MOL   H19031006   6.679   1.695   1.799 -0.4284 -0.3688 -0.2572
   49MOL   H19131007   6.895   1.725   1.710  0.4433 -0.0291  2.3177
   49MOL   H19231008   6.895   1.897   1.718  0.7286  0.2124  1.0196
   49MOL   H19331009   6.758   1.923   1.535  1.0596  1.4942  2.1638
   49MOL   C19431010   6.711   1.739   1.503 -0.4145 -0.1068  0.4304
   49MOL   O19531011   6.695   1.623   1.537 -0.0292  0.7678 -0.3759
   49MOL   C19631012   6.662   1.792   1.371 -0.3556 -0.2620  0.5511
   49MOL   C19731013   6.607   1.690   1.277 -0.4763  0.6205  0.7436
   49MOL   C19831014   6.459   1.642   1.309 -0.6690  0.2311 -0.6249
   49MOL   C19931015   6.355   1.752   1.308  0.1224  0.9203 -0.3289
   49MOL   C20031016   6.223   1.717   1.263 -0.1674  0.2320 -0.0966
   49MOL   O20131017   6.194   1.614   1.207  0.1737  0.1026 -0.5932
   49MOL   N20231018   6.133   1.800   1.304  0.1018 -0.0543 -0.8045
   49MOL   C20331019   5.995   1.776   1.276 -0.1848  0.7508 -0.4422
   49MOL   C20431020   5.901   1.896   1.287  0.4546 -0.2639 -0.6220
   49MOL   C20531021   5.749   1.874   1.279 -0.0050 -0.0307  0.2291
   49MOL   C20631022   5.661   1.994   1.298 -0.1590  0.2018  0.0955
   49MOL   N20731023   5.526   1.980   1.242 -0.3304 -0.9909 -0.2346
   49MOL   H20831024   6.598   1.879   1.385 -1.0905 -0.2366 -2.5390
   49MOL   H20931025   6.749   1.831   1.319 -1.0478 -2.5175 -2.5129
   49MOL   H21031026   6.617   1.718   1.172  0.5609  0.7072  0.8604
   49MOL   H21131027   6.670   1.601   1.282 -2.2914 -0.8695 -1.8588
   49MOL   H21231028   6.467   1.602   1.410 -0.9847 -1.1629 -1.1452
   49MOL   H21331029   6.428   1.564   1.240  0.3153 -1.1318  0.4483
   49MOL   H21431030   6.397   1.828   1.241  0.4788  1.0440  0.0334
   49MOL   H21531031   6.350   1.790   1.410 -0.2109 -0.0307  0.0146
   49MOL   H21631032   6.165   1.877   1.362  0.1878 -1.1096  0.5855
   49MOL   H21731033   5.961   1.697   1.344  1.8183 -1.0484 -1.4645
   49MOL   H21831034   5.976   1.724   1.182  1.9870  0.3967 -0.7162
   49MOL   H21931035   5.930   1.950   1.378 -0.8643  1.0052 -0.9233
   49MOL   H22031036   5.921   1.963   1.203  0.5482  0.9379  0.3333
   49MOL   H22131037   5.720   1.796   1.349  2.4200 -0.0605  1.2790
   49MOL   H22231038   5.731   1.823   1.184 -1.4892 -2.2044  1.6376
   49MOL   H22331039   5.709   2.082   1.255 -1.4512  0.6273 -0.4950
   49MOL   H22431040   5.654   2.020   1.404 -4.1004  1.8635 -0.5039
   49MOL   H22531041   5.508   1.901   1.182 -1.1865  0.7658 -2.3289
   49MOL   C22631042   5.446   2.087   1.232 -0.0675  0.1756 -0.2672
   49MOL   O22731043   5.475   2.196   1.278  0.8982  0.7107 -0.2818
   49MOL   C22831044   5.318   2.062   1.170  0.4383  0.0322  0.1331
   49MOL   C22931045   5.269   2.171   1.079 -0.0280  0.3306  0.0177
   49MOL   C23031046   5.126   2.152   1.031  0.8116  0.3727  0.4276
   49MOL   C23131047   5.102   2.217   0.901 -0.5677 -0.7474  0.2078
   49MOL   C23231048   5.139   2.363   0.883  0.0164  0.2791 -0.2483
   49MOL   O23331049   5.051   2.442   0.926 -0.4763  0.2403  0.2961
   49MOL   N23431050   5.257   2.392   0.832  0.1872  0.1126  0.8023
   49MOL   C23531051   5.310   2.529   0.821  0.4036  0.4639 -0.6103
   49MOL   C23631052   5.450   2.532   0.875 -0.1587  0.1855  0.3250
   49MOL   C23731053   5.554   2.463   0.783 -0.1271 -0.6300  0.5037
   49MOL   C23831054   5.700   2.461   0.828 -0.1413 -0.1185 -0.3689
   49MOL   N23931055   5.752   2.588   0.889  0.3416  0.2741 -0.8856
   49MOL   H24031056   5.323   1.964   1.123 -0.5177  0.9690 -1.9814
   49MOL   H24131057   5.249   2.054   1.254  0.6784  0.4641  0.3727
   49MOL   H24231058   5.279   2.268   1.128 -1.2486  1.1820 -1.3834
   49MOL   H24331059   5.342   2.170   0.998  1.8674  2.4808  1.6013
   49MOL   H24431060   5.059   2.202   1.100 -0.1834  0.2356 -0.4268
   49MOL   H24531061   5.107   2.045   1.022  2.3145  0.1578 -0.3869
   49MOL   H24631062   4.998   2.215   0.867 -0.8810 -1.1912  1.1598
   49MOL   H24731063   5.163   2.156   0.835  0.9338 -2.2047  2.8701
   49MOL   H24831064   5.302   2.322   0.775 -0.9725  2.3179 -2.9910
   49MOL   H24931065   5.242   2.599   0.868 -0.7844  0.4880 -2.3131
   49MOL   H25031066   5.314   2.550   0.714  1.9373  1.9916 -0.2757
   49MOL   H25131067   5.481   2.636   0.889 -1.8374  1.0071 -1.7162
   49MOL   H25231068   5.452   2.491   0.976 -0.6286 -0.8185 -0.0635
   49MOL   H25331069   5.555   2.500   0.681  2.2042 -0.4021  0.5881
   49MOL   H25431070   5.527   2.358   0.772  0.2261 -0.5018 -1.7673
   49MOL   H25531071   5.756   2.435   0.738 -2.6281 -1.6567 -1.5198
   49MOL   H25631072   5.718   2.378   0.897 -3.2693 -0.9698 -0.4860
   49MOL   H25731073   5.791   2.586   0.982 -0.1599 -1.2391 -0.7005
   49MOL   C25831074   5.766   2.700   0.821 -0.2068  0.4074 -0.2591
   49MOL   O25931075   5.733   2.708   0.705  0.4922 -0.6697 -0.1369
   49MOL   C26031076   5.869   2.798   0.877  0.2939 -0.6597  0.0474
   49MOL   C26131077   5.821   2.946   0.889  0.0781  0.3746 -0.0892
   49MOL   C26231078   5.922   3.030   0.960 -1.1296  0.8423 -0.0878
   49MOL   C26331079   5.882   3.174   0.985 -0.3923 -0.0758  0.1097
   49MOL   C26431080   6.010   3.250   1.033  0.5037  0.0317  0.7143
   49MOL   O26531081   6.041   3.241   1.144 -0.5662  0.0811  0.3708
   49MOL   N26631082   6.076   3.332   0.947 -0.4570  0.5251  0.0231
   49MOL   C26731083   6.203   3.396   0.973 -0.2462  0.0975  0.2231
   49MOL   C26831084   6.257   3.494   0.866 -0.0192 -0.3220  0.0178
   49MOL   C26931085   6.409   3.498   0.865 -0.4610 -0.5066  0.2926
   49MOL   C27031086   6.464   3.584   0.749  0.0395  0.5702 -0.7195
   49MOL   N27131087   6.402   3.553   0.630  0.6134  0.0900  0.8782
   49MOL   H27231088   5.904   2.763   0.974  0.0711 -2.0099 -0.3485
   49MOL   H27331089   5.962   2.801   0.820  1.1229  2.2451  1.4715
   49MOL   H27431090   5.796   3.001   0.798 -0.9699  0.7074  0.3957
   49MOL   H27531091   5.724   2.945   0.938  0.0744 -3.6996 -0.0178
   49MOL   H27631092   6.018   3.024   0.908 -0.8804  1.5054  0.2921
   49MOL   H27731093   5.932   2.974   1.053 -2.7594 -0.2601 -0.5395
   49MOL   H27831094   5.806   3.186   1.063 -0.6258  1.1791 -0.2920
   49MOL   H27931095   5.850   3.212   0.888  0.6829 -0.1901 -0.2953
   49MOL   H28031096   6.043   3.330   0.852 -0.2067 -0.8842 -0.0359
   49MOL   H28131097   6.278   3.318   0.987 -0.2911  0.0112 -0.0029
   49MOL   H28231098   6.200   3.450   1.067 -0.0194 -0.6720  0.6803
   49MOL   H28331099   6.221   3.469   0.766  0.8528  2.0625 -0.9442
   49MOL   H28431100   6.219   3.594   0.889 -0.4113 -0.9612  2.2659
   49MOL   H28531101   6.438   3.395   0.849 -2.5980 -1.1054  0.1617
   49MOL   H28631102   6.448   3.538   0.959  1.6139  1.7537 -1.4503
   49MOL   H28731103   6.571   3.569   0.735 -0.0269 -0.9665  0.2392
   49MOL   H28831104   6.447   3.690   0.771  0.6762  0.4440  0.4282
   49MOL   H28931105   6.393   3.455   0.607  2.2445  0.0039  0.5554
   49MOL   C29031106   6.369   3.638   0.532 -0.1308 -0.5894  0.1767
   49MOL   O29131107   6.363   3.757   0.556 -0.1525 -0.4232  0.4530
   49MOL   C29231108   6.318   3.580   0.398  0.2417  0.0741 -0.5892
   49MOL   C29331109   6.183   3.499   0.417  0.1995 -0.0362  0.2320
   49MOL   C29431110   6.062   3.565   0.488 -0.5477 -0.2936 -0.3997
   49MOL   C29531111   5.939   3.464   0.505  0.1386 -0.2269  0.0458
   49MOL   C29631112   5.967   3.331   0.576  0.6875 -0.4577  0.5347
   49MOL   O29731113   5.954   3.320   0.697 -0.3211 -1.0829  0.2788
   49MOL   N29831114   6.012   3.229   0.503 -0.1749  0.1306  0.5091
   49MOL   C29931115   6.031   3.083   0.547 -0.0415 -0.1394  0.4613
   49MOL   C30031116   6.176   3.045   0.578  0.1074 -0.0175  0.6217
   49MOL   C30131117   6.249   3.139   0.685 -0.0408  0.7429 -0.3057
   49MOL   C30231118   6.386   3.082   0.714 -0.3223 -0.3721  0.7555
   49MOL   N30331119   6.463   3.068   0.594  0.0487 -0.3030 -0.0947
   49MOL   H30431120   6.291   3.659   0.328 -0.4032 -1.2012 -1.8144
   49MOL   H30531121   6.391   3.521   0.343  0.9156 -0.2933  0.6885
   49MOL   H30631122   6.149   3.468   0.318 -0.5188 -0.7762  0.6988
   49MOL   H30731123   6.212   3.406   0.467 -3.5581 -2.1351 -1.2850
   49MOL   H30831124   6.039   3.649   0.422  0.9071 -0.5030 -1.1904
   49MOL   H30931125   6.096   3.601   0.585 -1.4826 -1.1413  0.2515
   49MOL   H31031126   5.896   3.444   0.407  1.5590  0.1239 -0.6618
   49MOL   H31131127   5.862   3.525   0.554  0.5270  0.3830 -0.1035
   49MOL   H31231128   6.020   3.247   0.404  1.8697 -0.7366  0.4989
   49MOL   H31331129   6.004   3.024   0.459 -2.4686 -2.8192  2.9164
   49MOL   H31431130   5.960   3.052   0.624  0.6839 -3.8890 -0.2637
   49MOL   H31531131   6.168   2.946   0.624 -1.2132  1.3783  3.5469
   49MOL   H31631132   6.226   3.034   0.482 -2.3431 -1.0416 -0.5903
   49MOL   H31731133   6.187   3.142   0.774  0.3064  1.0430 -0.0726
   49MOL   H31831134   6.242   3.244   0.656  1.6466  1.1875  0.8437
   49MOL   H31931135   6.383   2.985   0.764 -0.6438 -0.9761 -0.4230
   49MOL   H32031136   6.438   3.154   0.778  0.1862  1.5521 -1.7177
   49MOL   H32131137   6.472   2.977   0.551  2.3624 -0.3948  0.5428
   49MOL   C32231138   6.520   3.176   0.532 -0.6267  0.6152  0.2801
   49MOL   O32331139   6.503   3.293   0.574  0.2124 -0.0353  0.2376
   49MOL   C32431140   6.601   3.154   0.406  0.3775  0.1085 -0.6375
   49MOL   C32531141   6.557   3.238   0.284  0.1320 -0.1073  0.2055
   49MOL   C32631142   6.432   3.181   0.216  0.1920  0.4660  0.2026
   49MOL   C32731143   6.378   3.253   0.096 -0.1452 -0.4339  0.6716
   49MOL   C32831144   6.457   3.233   7.669  0.3762  0.4705  0.0076
   49MOL   O32931145   6.442   3.134   7.603  0.4330 -0.2221 -0.2191
   49MOL   N33031146   6.537   3.324   7.627 -0.1482 -0.4488  0.0534
   49MOL   C33131147   6.593   3.445   7.691  0.0813  0.2032  0.0726
   49MOL   C33231148   6.746   3.436   7.677 -0.0813 -1.2017 -1.0265
   49MOL   C33331149   6.830   3.562   0.016 -0.1345  0.2664  0.0126
   49MOL   C33431150   6.806   3.675   7.618  0.3010 -0.6215  0.8992
   49MOL   N33531151   6.901   3.783   7.645  0.1785  0.2383 -0.4231
   49MOL   H33631152   6.706   3.174   0.428 -0.1559 -0.4748  2.6682
   49MOL   H33731153   6.593   3.047   0.388 -0.7531  0.1753 -0.5808
   49MOL   H33831154   6.541   3.342   0.314 -0.5662  0.0192 -0.6073
   49MOL   H33931155   6.643   3.240   0.217  1.4350 -1.6242  1.7945
   49MOL   H34031156   6.352   3.159   0.286 -0.1371  0.4506 -0.1760
   49MOL   H34131157   6.459   3.085   0.171 -0.7945  1.5129 -2.7936
   49MOL   H34231158   6.356   3.359   0.101  1.8719  0.0579 -0.3344
   49MOL   H34331159   6.288   3.205   0.057  0.8952 -1.8359 -0.0250
   49MOL   H34431160   6.587   3.293   7.544 -0.6904 -0.3336 -0.3149
   49MOL   H34531161   6.558   3.457   0.092  2.1121  0.0443  0.8069
   49MOL   H34631162   6.551   3.526   7.631  0.4569 -0.1910 -0.7287
   49MOL   H34731163   6.779   3.353   0.038  0.5171  0.6811  1.2879
   49MOL   H34831164   6.783   3.403   7.580 -2.3541 -3.2352 -1.2395
   49MOL   H34931165   6.932   3.525   0.018 -0.1520  0.2677  2.2254
   49MOL   H35031166   6.808   3.600   0.116  2.3939  1.1949  0.2356
   49MOL   H35131167   6.704   3.712   7.633  0.7126  1.5560 -1.1900
   49MOL   H35231168   6.820   3.649   7.513  0.4663 -3.1902  1.5265
   49MOL   H35331169   6.987   3.787   7.592  1.2041  0.1535  1.1977
   49MOL   C35431170   6.892   3.867   0.049 -0.0583  0.4596 -0.5297
   49MOL   O35531171   6.794   3.871   0.120 -0.3404  0.3792  0.2608
   49MOL   C35631172   7.021   3.949   0.072 -0.2755  0.1421 -0.1112
   49MOL   C35731173   7.020   4.077   7.691  0.5648  0.1361  0.9855
   49MOL   C35831174   7.144   4.161   7.701 -0.8256  0.2826 -0.2709
   49MOL   C35931175   7.124   4.302   7.644  0.5831  0.0233 -0.1797
   49MOL   C36031176   7.248   4.397   7.656  0.6536 -0.4218 -0.8679
   49MOL   O36131177   7.276   4.484   7.571 -0.0361  0.4984  0.3616
   49MOL   N36231178   7.334   4.376   0.051 -0.5204 -0.1870 -0.5225
   49MOL   C36331179   7.449   4.463   0.077 -0.0739 -0.3156  0.6145
   49MOL   C36431180   7.580   4.392   0.034  0.2038  0.3369 -1.1597
   49MOL   C36531181   7.601   4.245   0.101 -0.2906 -0.4044  0.9056
   49MOL   C36631182   0.049   4.217   0.103  0.5832  0.1365 -0.5736
   49MOL   N36731183   0.103   4.203   7.667  0.2179  0.0859 -0.2621
   49MOL   H36831184   7.035   3.964   0.179 -0.5996  0.2706 -0.0885
   49MOL   H36931185   7.117   3.901   0.052 -0.8442 -0.9364 -0.3104
   49MOL   H37031186   7.001   4.056   7.585 -0.2322 -1.6572  1.4696
   49MOL   H37131187   6.933   4.134   0.024  0.5062  0.8295 -0.2491
   49MOL   H37231188   7.237   4.112   7.670 -0.8193 -0.7336  1.3080
   49MOL   H37331189   7.156   4.177   0.107 -1.9928  0.8824 -0.2245
   49MOL   H37431190   7.035   4.354   7.678  0.8591 -0.0673  0.6943
   49MOL   H37531191   7.105   4.281   7.539  1.8303 -0.0174 -0.4156
   49MOL   H37631192   7.319   4.304   0.120  0.3684 -0.5729 -0.7237
   49MOL   H37731193   7.453   4.481   0.184 -1.4058 -0.1162  0.6378
   49MOL   H37831194   7.450   4.565   0.038  1.2140 -0.6448 -0.2436
   49MOL   H37931195   7.588   4.381   7.627  1.7108 -3.0800 -0.7757
   49MOL   H38031196   7.664   4.454   0.064 -0.3154 -1.0507  3.4228
   49MOL   H38131197   7.545   4.160   0.062  0.3458 -0.8842  1.0450
   49MOL   H38231198   7.566   4.261   0.203  0.5884 -1.2301  1.3436
   49MOL   H38331199   0.075   4.122   0.150  0.6594  0.0770 -0.7321
   49MOL   H38431200   0.090   4.308   0.147 -2.3581  1.2346 -0.0258
   49MOL   H38531201   0.048   4.143   7.609 -0.5877 -0.5849  1.1634
   49MOL   C38631202   0.218   4.259   7.626 -0.2911  0.1838  0.6190
   49MOL   O38731203   0.292   4.323   7.697  0.1382  0.0646  0.0085
   49MOL   C38831204   0.245   4.238   7.478  0.6078 -0.1588  0.3182
   49MOL   C38931205   0.371   4.151   7.453 -1.1213 -0.8278  1.1230
   49MOL   C39031206   0.387   4.018   7.533 -0.1110 -0.7563 -0.0805
   49MOL   C39131207   0.322   3.890   7.458  0.2019 -0.0141  0.0526
   49MOL   C39231208   0.170   3.879   7.465  0.7659  0.1996  0.2633
   49MOL   O39331209   0.104   3.971   7.504 -0.0370  0.0264 -1.3901
   49MOL   N39431210   0.112   3.761   7.434  0.0385 -0.5522  0.1101
   49MOL   C39531211   7.675   3.729   7.470 -0.1336  0.1313  0.0991
   49MOL   C39631212   7.629   3.592   7.420 -0.4564 -0.0000 -0.3409
   49MOL   C39731213   0.026   3.481   7.461 -0.6045  0.1494 -0.2752
   49MOL   C39831214   7.680   3.338   7.440 -0.5878 -0.0335  0.3316
   49MOL   N39931215   7.572   3.307   7.532 -0.4568  0.7337  0.1515
   49MOL   H40031216   0.155   4.206   7.426  0.7761 -0.1411  0.0140
   49MOL   H40131217   0.258   4.337   7.434  0.4916  1.3891  3.6640
   49MOL   H40231218   0.358   4.119   7.349  0.5627  3.7798 -0.6290
   49MOL   H40331219   0.460   4.214   7.456 -0.6348 -1.4400  0.0312
   49MOL   H40431220   0.358   4.023   7.638 -2.7361  2.4574 -0.8856
   49MOL   H40531221   0.494   4.002   7.519 -0.0573 -1.2681  0.8623
   49MOL   H40631222   0.362   3.804   7.510 -1.2048 -1.8320 -1.7943
   49MOL   H40731223   0.349   3.873   7.354  1.1339  0.7633  0.1598
   49MOL   H40831224   0.176   3.692   7.395 -0.4261 -0.3591 -1.0097
   49MOL   H40931225   7.612   3.797   7.412 -2.2302 -1.1648  0.8167
   49MOL   H41031226   7.663   3.744   7.577  0.9993 -1.3496  0.4453
   49MOL   H41131227   7.532   3.573   7.465 -0.6228 -1.0322 -1.1099
   49MOL   H41231228   7.621   3.593   7.311 -2.1969  1.1682 -0.2210
   49MOL   H41331229   0.060   3.494   7.563 -0.1817 -0.6763 -0.3102
   49MOL   H41431230   0.119   3.486   7.404 -2.1204 -0.0412 -2.8739
   49MOL   H41531231   0.049   3.259   7.466 -0.0277  0.1532 -0.6184
   49MOL   H41631232   7.659   3.316   7.336  2.6205 -0.0641 -0.3591
   49MOL   H41731233   7.597   3.338   7.625  2.6996  1.5223 -0.8841
   49MOL   C41831234   7.471   3.230   7.512 -0.1580  0.1990 -0.1079
   49MOL   O41931235   7.440   3.198   7.393 -0.3482 -0.0223 -0.2282
   49MOL   C42031236   7.385   3.180   7.627 -0.2045 -0.6612 -0.4573
   49MOL   C42131237   7.367   3.029   7.623  0.1043  0.2641  0.2904
   49MOL   C42231238   7.336   2.984   0.063  0.5319 -0.3809 -0.3056
   49MOL   C42331239   7.188   3.033   0.098  0.2307  0.5170  1.1832
   49MOL   C42431240   7.109   2.930   0.179 -0.5394  0.4674 -0.2346
   49MOL   O42531241   7.135   2.804   0.169  0.4538 -0.5686 -0.1241
   49MOL   N42631242   7.023   2.980   0.265  0.6505  0.1996 -0.4725
   49MOL   C42731243   6.944   2.910   0.367 -0.0513  0.4213  0.6732
   49MOL   C42831244   6.814   2.847   0.313 -0.1325  0.2660 -0.4881
   49MOL   C42931245   6.724   2.780   0.415 -0.4579  0.3503 -0.0662
   49MOL   C43031246   6.617   2.700   0.344 -0.0531  0.7012 -0.4627
   49MOL   N43131247   6.526   2.638   0.437  0.0384 -0.4234 -0.0125
   49MOL   H43231248   7.446   3.208   0.011 -1.0319  0.7147 -0.3041
   49MOL   H43331249   7.288   3.229   7.631  0.0413 -0.2197  0.0981
   49MOL   H43431250   7.288   3.002   7.552  0.5522  2.7276 -1.2056
   49MOL   H43531251   7.454   2.976   7.584  0.4713  0.9752  0.1361
   49MOL   H43631252   7.413   3.021   0.131  2.1428 -0.0743 -2.2691
   49MOL   H43731253   7.341   2.876   0.076  0.6509 -0.2464  0.8273
   49MOL   H43831254   7.137   3.038   0.002  0.8502 -1.2848  0.7329
   49MOL   H43931255   7.194   3.134   0.138 -0.4423  0.4551  1.4451
   49MOL   H44031256   7.020   3.081   0.272 -0.2302  0.0283  2.3844
   49MOL   H44131257   6.925   2.989   0.440  0.3812  1.3071 -0.1643
   49MOL   H44231258   7.007   2.835   0.414 -0.2113 -0.2827 -0.2082
   49MOL   H44331259   6.764   2.920   0.250 -0.1847  0.6415 -0.0217
   49MOL   H44431260   6.842   2.770   0.241  0.2576  1.0255 -1.1582
   49MOL   H44531261   6.676   2.860   0.472  1.0648  2.5612 -1.7716
   49MOL   H44631262   6.790   2.726   0.483  1.7076  0.1576 -2.2461
   49MOL   H44731263   6.660   2.626   0.277 -1.0759 -0.5187  0.2141
   49MOL   H44831264   6.561   2.763   0.274 -2.2094 -0.9804 -0.3109
   49MOL   H44931265   6.544   2.539   0.453 -0.4028 -0.4874  0.0902
   49MOL   C45031266   6.429   2.693   0.508  0.8109  0.3512 -0.1703
   49MOL   O45131267   6.405   2.810   0.487 -0.1980 -0.1691  0.4065
   49MOL   C45231268   6.357   2.610   0.617 -0.1043 -0.0851  0.4687
   49MOL   C45331269   6.251   2.697   0.692 -0.4473 -0.0488 -0.0263
   49MOL   C45431270   6.194   2.626   0.811  0.1264 -0.2866 -0.1520
   49MOL   C45531271   6.141   2.479   0.798  0.1214 -0.3886 -0.8683
   49MOL   C45631272   6.086   2.428   0.933 -0.9921  0.2160 -0.6392
   49MOL   O45731273   6.019   2.501   1.004  0.4023  0.1177  0.0054
   49MOL   N45831274   6.119   2.309   0.972  0.3033 -0.3582 -0.4243
   49MOL   C45931275   6.057   2.252   1.100 -0.2673 -0.3726 -1.1137
   49MOL   C46031276   6.127   2.305   1.231 -0.1647 -0.1007  0.0854
   49MOL   C46131277   6.101   2.205   1.347  0.1773  0.4251 -0.2691
   49MOL   C46231278   6.159   2.254   1.482  0.7339 -0.1609  0.4901
   49MOL   N46331279   6.138   2.150   1.584  0.6899 -0.8988  0.4811
   49MOL   H46431280   6.332   2.511   0.579 -0.6434 -0.2524  1.2537
   49MOL   H46531281   6.431   2.568   0.684  1.2169  2.1997  0.4974
   49MOL   H46631282   6.296   2.785   0.737  0.4675  0.7230 -2.3779
   49MOL   H46731283   6.176   2.744   0.627  0.6978  1.6946 -0.1372
   49MOL   H46831284   6.121   2.686   0.865  1.0651 -0.7899  1.7334
   49MOL   H46931285   6.272   2.612   0.886  0.6290  0.9910 -0.4165
   49MOL   H47031286   6.215   2.414   0.751  0.9076  1.1655 -1.8392
   49MOL   H47131287   6.057   2.484   0.728 -1.4421  1.8527  1.1114
   49MOL   H47231288   6.187   2.261   0.914 -0.6319 -0.4762 -1.4383
   49MOL   H47331289   6.072   2.144   1.097 -0.2229 -0.4687  1.8917
   49MOL   H47431290   5.952   2.281   1.108  0.6813  2.7914  0.5613
   49MOL   H47531291   6.235   2.315   1.220 -0.0062 -0.9928  0.8441
   49MOL   H47631292   6.091   2.407   1.250 -0.9664 -0.6248  1.4474
   49MOL   H47731293   6.142   2.107   1.323  0.8580  0.9705 -1.3579
   49MOL   H47831294   5.997   2.171   1.350  0.4527 -0.3965  0.6347
   49MOL   H47931295   6.111   2.345   1.518  0.4119 -0.1672  0.0780
   49MOL   H48031296   6.265   2.267   1.464  0.5567  2.1676  0.9805
   49MOL   H48131297   6.081   2.181   1.661 -0.2782  1.1554 -1.0091
   49MOL   C48231298   6.201   2.035   1.595 -0.2338  0.5798 -0.8824
   49MOL   O48331299   6.265   1.994   1.502  0.2133 -0.0554  0.3433
   49MOL   C48431300   6.171   1.947   1.723 -0.2095  0.2182 -0.4469
   49MOL   C48531301   6.243   1.808   1.734 -0.2614 -0.8106 -0.2791
   49MOL   C48631302   6.289   1.770   1.879  0.2446 -0.0331 -0.7222
   49MOL   C48731303   6.186   1.718   1.973 -0.4211 -0.9150 -0.5762
   49MOL   C48831304   6.242   1.691   2.105 -0.8737  0.2949 -0.9584
   49MOL   O48931305   6.348   1.630   2.110  0.5326  0.0278 -0.1154
   49MOL   N49031306   6.177   1.734   2.218 -0.5849 -0.2166 -0.3901
   49MOL   C49131307   6.222   1.707   2.351  0.5178  0.1866 -0.0829
   49MOL   C49231308   6.115   1.755   2.453 -0.5462  0.0815 -0.3952
   49MOL   C49331309   6.154   1.736   2.602  0.3199 -0.5438  0.2571
   49MOL   C49431310   6.049   1.795   2.698 -0.1515 -0.4645 -0.3572
   49MOL   N49531311   6.057   1.750   2.840 -0.1871  0.1023  0.9831
   49MOL   H49631312   6.202   2.007   1.809 -1.8685 -1.4481  1.3935
   49MOL   H49731313   6.064   1.931   1.732  0.0567 -0.9530  0.8284
   49MOL   H49831314   6.171   1.740   1.687  1.9707 -2.3446 -1.5692
   49MOL   H49931315   6.329   1.812   1.667  0.5795 -0.1586  0.8199
   49MOL   H50031316   6.335   1.854   1.931 -1.0359  0.2592 -0.0474
   49MOL   H50131317   6.367   1.695   1.866  0.7540 -0.3244  3.2254
   49MOL   H50231318   6.134   1.630   1.933 -0.9445 -0.0586 -1.7809
   49MOL   H50331319   6.109   1.793   1.993  0.0050 -0.2582 -1.3949
   49MOL   H50431320   6.088   1.782   2.215 -1.3889 -1.5693  0.9650
   49MOL   H50531321   6.319   1.753   2.372  0.5216 -0.2317  0.8260
   49MOL   H50631322   6.226   1.598   2.361  0.5053  0.2348  0.4284
   49MOL   H50731323   6.106   1.862   2.435  1.8238  0.2554 -0.7054
   49MOL   H50831324   6.016   1.715   2.430 -1.0445  1.0973 -0.0331
   49MOL   H50931325   6.248   1.782   2.631 -1.0532  0.8965  2.6077
   49MOL   H51031326   6.169   1.629   2.617  0.8739 -0.5627 -0.4058
   49MOL   H51131327   5.948   1.776   2.662 -1.0747  0.9531  1.3616
   49MOL   H51231328   6.044   1.904   2.689  2.5739 -0.1823  0.9465
   49MOL   H51331329   6.144   1.755   2.891 -0.1714  1.2427  0.8440
   49MOL   C51431330   5.956   1.713   2.920  0.3019 -0.1519 -0.5114
   49MOL   O51531331   5.839   1.720   2.888 -0.1624 -0.1508  0.1516
   49MOL   C51631332   5.989   1.656   3.056 -0.4831 -0.3531 -0.4677
   49MOL   C51731333   5.890   1.584   3.150 -0.1730 -0.3575  0.2968
   49MOL   C51831334   5.854   1.446   3.094 -0.7379  0.0426 -0.0515
   49MOL   C51931335   5.780   1.361   3.195  0.5049  0.0515  0.1529
   49MOL   C52031336   5.880   1.303   3.297  0.4148 -0.2839 -0.4183
   49MOL   O52131337   5.983   1.240   3.267 -0.0873 -0.6195  0.3663
   49MOL   N52231338   5.844   1.315   3.421 -0.7806  0.3817  0.3487
   49MOL   C52331339   5.912   1.275   3.546 -0.0922  0.2102 -0.9345
   49MOL   C52431340   5.830   1.321   3.667 -0.0021 -0.5023 -0.0178
   49MOL   C52531341   5.692   1.245   3.677  0.2175 -0.3264  0.1961
   49MOL   C52631342   5.605   1.290   3.797 -0.1709 -0.7047  0.4635
   49MOL   N52731343   5.527   1.401   3.752 -0.2697 -0.6461 -0.2175
   49MOL   H52831344   6.075   1.591   3.041 -1.1737 -0.8349 -2.4709
   49MOL   H52931345   6.023   1.743   3.113 -0.6114 -0.5357 -0.1152
   49MOL   H53031346   5.917   1.581   3.255 -0.6710 -1.2150  0.4025
   49MOL   H53131347   5.800   1.646   3.145  0.5050  0.5487 -1.2685
   49MOL   H53231348   5.943   1.395   3.056  0.3355  1.4383  0.5241
   49MOL   H53331349   5.801   1.457   2.999  0.5880 -0.4849 -0.8610
   49MOL   H53431350   5.739   1.273   3.145 -0.9546 -0.3648  2.0063
   49MOL   H53531351   5.705   1.420   3.247 -0.2112  0.8796 -1.7956
   49MOL   H53631352   5.749   1.345   3.437 -0.3246  0.5544  2.9555
   49MOL   H53731353   6.018   1.300   3.541 -0.0964 -0.2911 -4.6076
   49MOL   H53831354   5.925   1.167   3.533  0.3492 -0.4201  3.7285
   49MOL   H53931355   5.896   1.297   3.751  0.9040  3.0681  0.3793
   49MOL   H54031356   5.828   1.429   3.677  0.1050 -0.6456  1.8347
   49MOL   H54131357   5.723   1.143   3.702  2.5206  0.3216  0.1728
   49MOL   H54231358   5.638   1.249   3.583 -1.6999 -1.2242  1.2356
   49MOL   H54331359   5.674   1.310   3.879  0.7306  1.7865 -0.8508
   49MOL   H54431360   5.538   1.212   3.834  0.2012  0.1059  2.9543
   49MOL   H54531361   5.549   1.425   3.656  1.1409 -1.6823 -0.1774
   49MOL   C54631362   5.438   1.476   3.820  0.0080 -0.2172  0.3490
   49MOL   O54731363   5.412   1.458   3.941  0.1367 -0.0921  0.4386
   49MOL   C54831364   5.372   1.588   3.739  0.3902 -0.1416 -0.0978
   49MOL   C54931365   5.226   1.565   3.714  0.4587  0.2635  0.3197
   49MOL   C55031366   5.136   1.604   3.835  0.6501  0.4977 -0.4618
   49MOL   C55131367   4.987   1.583   3.814 -0.1332  0.4004  0.3118
   49MOL   C55231368   4.938   1.632   3.683 -0.5448 -0.0571 -0.2920
   49MOL   O55331369   4.935   1.746   3.662 -0.3237 -0.4059 -0.1954
   49MOL   N55431370   4.920   1.535   3.588  0.0350  0.2840 -0.0107
   49MOL   C55531371   4.925   1.560   3.441  0.1382  0.4068  0.5881
   49MOL   C55631372   4.780   1.559   3.388 -0.5007 -0.1146  0.1873
   49MOL   C55731373   4.702   1.426   3.412  0.1663  0.4504  0.1910
   49MOL   C55831374   4.770   1.306   3.345 -0.4008  0.6849  0.5154
   49MOL   N55931375   4.804   1.325   3.207  0.7094  0.4642 -0.0013
   49MOL   H56031376   5.381   1.686   3.787 -0.1008  0.1352 -0.5609
   49MOL   H56131377   5.428   1.590   3.645  1.2163  1.0795  0.4049
   49MOL   H56231378   5.198   1.635   3.635  1.5905  0.3117 -0.0488
   49MOL   H56331379   5.203   1.466   3.676 -2.6087  0.8161  0.6442
   49MOL   H56431380   5.147   1.710   3.855  1.3451  0.4609 -0.6401
   49MOL   H56531381   5.164   1.548   3.925 -1.2688 -0.2740 -0.3227
   49MOL   H56631382   4.926   1.634   3.889  0.0383  0.2016  0.5914
   49MOL   H56731383   4.963   1.478   3.823 -0.0859  0.3202 -0.4747
   49MOL   H56831384   4.926   1.439   3.620 -1.3835  0.3787  0.5837
   49MOL   H56931385   4.979   1.478   3.393 -1.0777  0.7282 -1.3899
   49MOL   H57031386   4.966   1.660   3.433  0.8197  0.5333  4.5875
   49MOL   H57131387   4.737   1.647   3.437  1.6502  1.8791 -1.3989
   49MOL   H57231388   4.791   1.570   3.280 -2.5035  0.8747  0.0667
   49MOL   H57331389   4.599   1.433   3.379  0.4245  0.7163 -0.5582
   49MOL   H57431390   4.691   1.403   3.518 -1.4854 -5.2724 -1.0373
   49MOL   H57531391   4.692   1.230   3.353 -0.3790  0.5994 -0.0067
   49MOL   H57631392   4.854   1.280   3.408  0.3917  1.0112 -0.3874
   49MOL   H57731393   4.903   1.323   3.188  0.6538 -0.0804 -0.2616
   49MOL   C57831394   4.722   1.322   3.103 -0.1639 -0.1679  0.1422
   49MOL   O57931395   4.601   1.314   3.117 -0.2354 -0.2107 -0.2270
   49MOL   C58031396   4.777   1.320   2.967  0.4635  0.3359 -0.6811
   49MOL   C58131397   4.681   1.276   2.859  0.0512  0.6342 -0.0249
   49MOL   C58231398   4.746   1.223   2.730  0.7160  0.5271 -0.8342
   49MOL   C58331399   4.764   1.336   2.631 -0.1266  0.7121  0.0475
   49MOL   C58431400   4.634   1.392   2.575  0.1375  0.4411 -0.1506
   49MOL   O58531401   4.535   1.317   2.553  0.6149 -0.0059 -0.0083
   49MOL   N58631402   4.624   1.526   2.572  0.3299 -0.4224 -0.4143
   49MOL   C58731403   4.498   1.599   2.560  0.3047 -0.9727  0.2095
   49MOL   C58831404   4.517   1.750   2.550 -0.1775  1.0436  0.4079
   49MOL   C58931405   4.395   1.840   2.566  0.5968  0.4806  0.6919
   49MOL   C59031406   4.432   1.987   2.573  0.3709 -0.6757 -0.6007
   49MOL   N59131407   4.311   2.072   2.563  0.6278  0.3969 -0.1940
   49MOL   H59231408   4.813   1.422   2.950 -3.4678  1.8784 -0.4783
   49MOL   H59331409   4.868   1.261   2.960 -0.1463 -0.4844 -1.8792
   49MOL   H59431410   4.609   1.207   2.903  0.1422 -0.2333 -1.2114
   49MOL   H59531411   4.619   1.364   2.844 -3.1282 -1.7592 -1.4826
   49MOL   H59631412   4.677   1.146   2.696  0.7555  0.9122 -1.8097
   49MOL   H59731413   4.834   1.162   2.750  0.3025 -0.4542 -2.0022
   49MOL   H59831414   4.831   1.307   2.550 -1.0881 -1.5837  0.0409
   49MOL   H59931415   4.819   1.419   2.676  2.3715  1.4289 -4.1006
   49MOL   H60031416   4.707   1.582   2.565 -0.7108  1.5319  1.9966
   49MOL   H60131417   4.439   1.579   2.650  0.8506  0.3333  0.8808
   49MOL   H60231418   4.436   1.563   2.478 -0.2200  1.7519 -0.6600
   49MOL   H60331419   4.587   1.780   2.628  2.7931 -2.5380 -0.6995
   49MOL   H60431420   4.580   1.783   2.468  0.1819  1.5899  0.8956
   49MOL   H60531421   4.328   1.804   2.644 -0.5993 -0.5277 -0.7743
   49MOL   H60631422   4.341   1.821   2.473  0.6658 -0.8460  0.9034
   49MOL   H60731423   4.499   2.023   2.495 -0.7526  1.0964 -0.7885
   49MOL   H60831424   4.471   2.013   2.672  0.1008 -0.9242 -0.4287
   49MOL   H60931425   4.263   2.100   2.648  0.3191 -1.5639  0.3090
   49MOL   C61031426   4.256   2.116   2.447 -0.4999 -0.0357 -0.0569
   49MOL   O61131427   4.304   2.091   2.340 -0.2040 -0.1555  0.5547
   49MOL   C61231428   4.125   2.185   2.452  0.1754  0.1483 -0.1672
   49MOL   C61331429   4.015   2.099   2.391 -0.7579  1.1717 -0.3960
   49MOL   C61431430   3.963   1.996   2.488  0.8220  0.9401 -0.1837
   49MOL   C61531431   3.821   1.950   2.472 -0.2322  0.2388  0.0513
   49MOL   C61631432   3.798   1.894   2.327 -0.1609  0.4610  0.0114
   49MOL   O61731433   3.744   1.965   2.242 -0.4206  0.6566 -0.6104
   49MOL   N61831434   3.854   1.777   2.307 -0.5985 -0.1742 -0.2748
   49MOL   C61931435   3.865   1.713   2.176 -0.1458  1.2982 -0.3510
   49MOL   C62031436   3.978   1.608   2.173  0.2789 -0.4072  0.1585
   49MOL   C62131437   3.975   1.487   2.268  0.5921  0.0362  0.1233
   49MOL   C62231438   4.037   1.506   2.409  0.0627  0.2992  0.0878
   49MOL   N62331439   3.964   1.604   2.491  0.4338  0.3286  0.1659
   49MOL   H62431440   4.091   2.234   2.543  0.2369 -0.6143  0.2700
   49MOL   H62531441   4.143   2.262   2.378  0.1458 -0.8287 -1.2142
   49MOL   H62631442   3.937   2.172   2.369 -0.4123  1.4000 -0.8725
   49MOL   H62731443   4.042   2.049   2.298  0.7439  1.0338  0.1007
   49MOL   H62831444   3.952   2.045   2.585  0.5381 -0.6964  0.6184
   49MOL   H62931445   4.030   1.910   2.482  0.6063  0.6531  1.4283
   49MOL   H63031446   3.748   2.025   2.503 -0.3411  1.2212 -2.4300
   49MOL   H63131447   3.814   1.863   2.538 -1.0465  0.1967 -0.0786
   49MOL   H63231448   3.900   1.728   2.382  0.1448  0.3516 -0.3794
   49MOL   H63331449   3.877   1.800   2.111 -0.8697  1.8520  0.2402
   49MOL   H63431450   3.774   1.661   2.145 -0.6242  2.4608 -0.9364
   49MOL   H63531451   3.983   1.565   2.074 -0.4408  1.0170 -0.5118
   49MOL   H63631452   4.074   1.655   2.190 -0.7246  1.6566  0.2928
   49MOL   H63731453   4.040   1.418   2.214  1.4311  0.3867  0.6817
   49MOL   H63831454   3.875   1.443   2.260  0.0136  1.7377 -2.8003
   49MOL   H63931455   4.141   1.539   2.404  0.0401  0.3835  0.1701
   49MOL   H64031456   4.039   1.416   2.470 -3.3565 -0.5067 -0.8616
   49MOL   H64131457   3.869   1.575   2.508  0.1556  1.3880  0.4784
   49MOL   H64231458   4.007   1.607   2.583 -0.7201  2.7142  0.6739
   50MOL     C131459   1.779   2.933   4.864 -0.4891  0.0145  0.4092
   50MOL     O231460   1.695   3.026   4.859 -0.3548 -0.7125 -0.6809
   50MOL     C331461   1.779   2.852   4.992 -0.4111  0.9233  0.0772
   50MOL     C431462   1.885   2.894   5.097 -0.1753 -0.7450 -0.2364
   50MOL     C531463   2.021   2.821   5.074 -0.0242  0.6103  0.7939
   50MOL     C631464   2.119   2.856   5.185 -0.4690 -0.0954 -0.2056
   50MOL     C731465   2.082   2.787   5.319  0.6071 -0.0954 -0.3444
   50MOL     O831466   2.099   2.668   5.331  0.1873 -0.2365  0.6070
   50MOL     N931467   2.046   2.866   5.418 -0.2563 -0.5003  0.1693
   50MOL    C1031468   2.014   2.820   5.555 -0.2785  0.1930 -0.8257
   50MOL    C1131469   2.134   2.797   5.650 -0.5995 -0.2702  0.6733
   50MOL    C1231470   2.097   2.732   5.782 -0.1601 -1.1221  0.9285
   50MOL    C1331471   2.105   2.575   5.788  0.8983  0.1118  0.0980
   50MOL    N1431472   1.992   2.515   5.713  0.3289 -0.5267  0.2889
   50MOL    H1531473   1.680   2.859   5.035  0.4151 -0.2581  2.2317
   50MOL    H1631474   1.790   2.746   4.972 -1.8240  0.6844  0.5737
   50MOL    H1731475   1.891   3.003   5.091 -1.9500 -0.5921  0.4814
   50MOL    H1831476   1.855   2.882   5.201 -1.2535 -2.5121 -0.7376
   50MOL    H1931477   2.064   2.842   4.976 -1.9454  0.2950 -0.1464
   50MOL    H2031478   2.015   2.712   5.081  0.2503  0.5624  0.2876
   50MOL    H2131479   2.118   2.964   5.196  0.0515 -0.0638 -0.4237
   50MOL    H2231480   2.223   2.836   5.159  0.1688  2.6353  0.1908
   50MOL    H2331481   2.025   2.961   5.391 -0.7860 -0.2732  1.3506
   50MOL    H2431482   1.950   2.733   5.544  0.4086 -0.5146  0.6609
   50MOL    H2531483   1.952   2.895   5.603  1.3422  0.2958  1.1696
   50MOL    H2631484   2.211   2.733   5.607 -1.9897 -1.0041 -0.8068
   50MOL    H2731485   2.174   2.897   5.666 -1.2040 -0.0643  0.9355
   50MOL    H2831486   2.003   2.776   5.818 -0.4970 -0.6708 -0.4839
   50MOL    H2931487   2.178   2.763   5.848 -0.1840  2.1158 -0.4615
   50MOL    H3031488   2.084   2.538   5.889 -2.2455 -1.2509 -0.9982
   50MOL    H3131489   2.201   2.539   5.750  1.2881 -0.2752  1.3980
   50MOL    H3231490   1.897   2.522   5.746 -0.0798  0.3357 -1.0210
   50MOL    H3331491   1.843   2.899   4.782  0.2337 -0.4069  1.1469
   50MOL    C3431492   1.993   2.427   5.612  0.0713  0.5636  0.1893
   50MOL    O3531493   2.085   2.379   5.549 -0.0280 -0.8383  0.0007
   50MOL    C3631494   1.862   2.359   5.578 -0.1826  0.2612  0.6161
   50MOL    C3731495   1.860   2.203   5.597  0.0865  0.4298 -0.2920
   50MOL    C3831496   1.888   2.167   5.745 -0.1298 -0.0744  0.6210
   50MOL    C3931497   1.911   2.014   5.767 -0.4573  0.5577 -0.1477
   50MOL    C4031498   1.822   1.924   5.680 -0.5059 -0.0193 -0.3616
   50MOL    O4131499   1.700   1.930   5.697 -0.1545 -0.2143  0.0392
   50MOL    N4231500   1.892   1.842   5.600  0.3150  0.6730  0.3109
   50MOL    C4331501   1.845   1.748   5.497  0.3436 -0.6039  0.0054
   50MOL    C4431502   1.884   1.813   5.363 -0.4203 -0.2328 -0.2315
   50MOL    C4531503   1.885   1.717   5.244  0.4942 -0.6366 -0.5933
   50MOL    C4631504   1.933   1.776   5.113  0.9366  0.0182 -0.2971
   50MOL    N4731505   1.830   1.848   5.048 -0.2334 -0.7653 -0.2376
   50MOL    H4831506   1.785   2.404   5.641 -0.6051 -0.6793  0.7798
   50MOL    H4931507   1.852   2.386   5.473 -1.6349  1.4073  1.0359
   50MOL    H5031508   1.769   2.166   5.550  1.4163 -0.8461 -1.9562
   50MOL    H5131509   1.940   2.151   5.545 -0.7510  0.4994 -1.6667
   50MOL    H5231510   1.813   2.214   5.809 -2.1753 -0.3685 -1.4897
   50MOL    H5331511   1.972   2.228   5.777 -0.3359 -0.7812  2.5817
   50MOL    H5431512   1.901   1.986   5.872 -2.3921  1.0892 -0.1706
   50MOL    H5531513   2.010   1.991   5.729 -0.0642 -0.7028  1.5492
   50MOL    H5631514   1.991   1.837   5.623  0.7901  2.1761 -1.2563
   50MOL    H5731515   1.740   1.721   5.507  0.0981 -0.4473 -2.0706
   50MOL    H5831516   1.895   1.652   5.506 -0.7763 -1.2896 -1.0418
   50MOL    H5931517   1.817   1.897   5.342  0.9480  0.7146 -0.8672
   50MOL    H6031518   1.977   1.870   5.370  0.1210 -0.7315 -2.6346
   50MOL    H6131519   1.786   1.673   5.229  0.0945  0.2725 -0.6872
   50MOL    H6231520   1.951   1.632   5.253 -0.4625 -1.2314  0.9654
   50MOL    H6331521   1.974   1.692   5.056  0.3513 -0.0202 -0.6605
   50MOL    H6431522   2.020   1.839   5.133  1.2878 -0.9744  1.4084
   50MOL    H6531523   1.839   1.949   5.039 -0.6439 -0.7269 -0.2257
   50MOL    C6631524   1.723   1.800   4.984 -0.0983  0.0993 -0.7535
   50MOL    O6731525   1.695   1.679   4.995  0.0574 -0.2308 -0.1155
   50MOL    C6831526   1.625   1.901   4.922 -0.5922  0.5007 -0.5541
   50MOL    C6931527   1.558   1.858   4.786 -0.1436 -0.0010  0.8729
   50MOL    C7031528   1.481   1.975   4.719  0.2210  0.4885  0.0447
   50MOL    C7131529   1.382   1.940   4.605  0.7323  0.3346 -0.0434
   50MOL    C7231530   1.430   1.831   4.511  0.0349 -0.0523 -0.0658
   50MOL    O7331531   1.419   1.710   4.544 -0.1358 -0.4748 -0.4629
   50MOL    N7431532   1.499   1.863   4.401  0.1970  0.3364 -0.7307
   50MOL    C7531533   1.542   1.994   4.351  0.3725  0.3037 -0.0559
   50MOL    C7631534   1.504   1.995   4.197  0.4446  0.0650  0.4348
   50MOL    C7731535   1.363   1.945   4.162 -0.2672  0.0183  0.1158
   50MOL    C7831536   1.250   2.037   4.222 -0.2748  0.0855 -0.3500
   50MOL    N7931537   1.271   2.177   4.192 -0.1468  0.4510 -0.4055
   50MOL    H8031538   1.538   1.928   4.982 -0.6323 -1.8392  0.4981
   50MOL    H8131539   1.680   1.991   4.895  0.5880 -0.4870 -1.4887
   50MOL    H8231540   1.634   1.817   4.720 -1.2498 -0.7530  0.0439
   50MOL    H8331541   1.489   1.774   4.797  0.3671 -0.9022 -2.3680
   50MOL    H8431542   1.551   2.048   4.678  1.3551  0.6937  2.2678
   50MOL    H8531543   1.429   2.023   4.801 -0.2157  0.4425 -0.2065
   50MOL    H8631544   1.366   2.036   4.557  0.5521  0.1020 -0.4476
   50MOL    H8731545   1.285   1.919   4.650  0.8155  2.8759  1.4158
   50MOL    H8831546   1.541   1.789   4.348  0.3940 -0.0141 -0.0904
   50MOL    H8931547   1.650   2.006   4.356  0.4754 -0.7953  0.4783
   50MOL    H9031548   1.491   2.076   4.401 -2.0776 -0.5927 -1.0408
   50MOL    H9131549   1.526   2.096   4.163 -1.2684  0.2083 -0.3041
   50MOL    H9231550   1.577   1.947   4.132 -0.1493  0.9919 -0.9313
   50MOL    H9331551   1.358   1.841   4.193  0.9511 -0.7619 -2.2095
   50MOL    H9431552   1.357   1.955   4.054  0.2210  2.1129  0.2627
   50MOL    H9531553   1.247   2.027   4.331 -0.8350 -1.7817 -0.5139
   50MOL    H9631554   1.153   2.013   4.178 -0.3648  0.8222 -0.5655
   50MOL    H9731555   1.337   2.187   4.117 -1.1977 -1.3739 -1.6080
   50MOL    C9831556   1.181   2.278   4.222 -0.1899  0.1908 -0.3475
   50MOL    O9931557   1.076   2.259   4.279 -0.0986  0.2440 -0.2876
   50MOL   C10031558   1.222   2.416   4.169  0.4940 -0.5346 -0.4582
   50MOL   C10131559   1.211   2.520   4.283 -0.2468  0.5919  0.5007
   50MOL   C10231560   1.316   2.515   4.391 -0.0239  0.5813  0.5958
   50MOL   C10331561   1.454   2.569   4.335 -0.3285 -0.3261  0.5111
   50MOL   C10431562   1.550   2.461   4.293 -0.1649 -0.3580 -0.3898
   50MOL   O10531563   1.532   2.348   4.338  1.1048  0.0759 -0.5324
   50MOL   N10631564   1.659   2.502   4.229 -0.1754  0.1367 -0.4192
   50MOL   C10731565   1.782   2.428   4.196  0.1733 -0.1625  0.2161
   50MOL   C10831566   1.825   2.454   4.049 -0.2379 -0.1961 -0.6047
   50MOL   C10931567   1.719   2.447   3.942 -0.5482 -0.3306  0.3447
   50MOL   C11031568   1.622   2.327   3.949  0.3738  0.4319 -0.1168
   50MOL   N11131569   1.526   2.349   3.842 -0.3583 -0.2243 -0.0645
   50MOL   H11231570   1.315   2.414   4.112 -0.0477  1.3735 -1.4510
   50MOL   H11331571   1.143   2.437   4.097  0.2166 -1.0169 -0.2951
   50MOL   H11431572   1.200   2.620   4.240 -0.0295  0.5118  0.2600
   50MOL   H11531573   1.117   2.507   4.337  0.8844  1.0962  2.6754
   50MOL   H11631574   1.339   2.423   4.444  0.3475 -0.3085 -1.0698
   50MOL   H11731575   1.284   2.585   4.468 -0.3232  1.6005 -0.4286
   50MOL   H11831576   1.509   2.630   4.408  0.2666  0.1007 -0.2841
   50MOL   H11931577   1.440   2.632   4.247 -1.6055 -0.9015  0.2992
   50MOL   H12031578   1.655   2.601   4.209  0.5489  0.0083 -1.2629
   50MOL   H12131579   1.756   2.323   4.200 -1.1140  0.2363  3.2187
   50MOL   H12231580   1.855   2.455   4.272  0.7906  2.3703 -1.2058
   50MOL   H12331581   1.874   2.551   4.040  1.6237 -1.1336 -0.7681
   50MOL   H12431582   1.889   2.372   4.017  0.3151 -0.2060  0.4982
   50MOL   H12531583   1.764   2.443   3.843  1.0039 -0.7664  1.0488
   50MOL   H12631584   1.666   2.540   3.961  1.6432  0.8179  0.9420
   50MOL   H12731585   1.572   2.321   4.045 -2.1286  0.5352 -1.3723
   50MOL   H12831586   1.679   2.236   3.928 -0.5988 -0.3884  0.7714
   50MOL   H12931587   1.527   2.430   3.782 -2.7784 -0.0968  0.0247
   50MOL   C13031588   1.417   2.272   3.823 -0.5060 -0.0138 -0.5607
   50MOL   O13131589   1.378   2.180   3.897  0.6373  0.0530 -0.1798
   50MOL   C13231590   1.339   2.299   3.699  0.3649 -0.6080 -0.0247
   50MOL   C13331591   1.214   2.383   3.734 -0.4815 -0.7732  0.0958
   50MOL   C13431592   1.122   2.422   3.611  0.5011  0.2287  0.2142
   50MOL   C13531593   0.982   2.482   3.646  0.3690 -0.1075  0.2146
   50MOL   C13631594   0.882   2.373   3.678  0.4400  0.6229 -0.0916
   50MOL   O13731595   0.854   2.350   3.799  0.1186 -0.1481 -0.0510
   50MOL   N13831596   0.833   2.305   3.570  0.0018  0.8014  0.4217
   50MOL   C13931597   0.835   2.342   3.433 -0.6746 -0.1143  0.1280
   50MOL   C14031598   0.739   2.456   3.394  1.1602 -0.3459 -0.3023
   50MOL   C14131599   0.763   2.514   3.255 -0.1860 -0.2566  0.3281
   50MOL   C14231600   0.682   2.638   3.213 -0.2509 -0.0930 -0.2604
   50MOL   N14331601   0.681   2.653   3.069 -0.1896  0.0162 -0.5739
   50MOL   H14431602   1.399   2.359   3.631 -0.2589  0.3317  0.2315
   50MOL   H14531603   1.306   2.208   3.649 -0.9531  1.0874 -2.3327
   50MOL   H14631604   1.163   2.331   3.815  0.8017 -2.1752  0.0246
   50MOL   H14731605   1.237   2.475   3.787 -1.7792 -1.9628  2.8211
   50MOL   H14831606   1.115   2.341   3.539  1.6823  1.6263 -1.5061
   50MOL   H14931607   1.180   2.489   3.548  0.7036  0.5511  0.7380
   50MOL   H15031608   0.940   2.545   3.568 -0.8700 -1.5947 -0.3371
   50MOL   H15131609   0.987   2.557   3.725  1.4533  1.5529 -1.3868
   50MOL   H15231610   0.777   2.225   3.595  3.3164 -1.2702  1.4934
   50MOL   H15331611   0.795   2.253   3.384  1.0291 -0.9491  0.2382
   50MOL   H15431612   0.937   2.356   3.397 -0.5908 -2.2841 -0.5188
   50MOL   H15531613   0.632   2.436   3.395  1.2997 -1.2321 -1.8770
   50MOL   H15631614   0.745   2.526   3.478  0.4538 -1.6420  0.8353
   50MOL   H15731615   0.746   2.434   3.183 -0.2755  0.6172 -0.6359
   50MOL   H15831616   0.867   2.544   3.244 -0.4494  0.1605 -1.0837
   50MOL   H15931617   0.723   2.728   3.259 -0.7840 -0.8214  1.6922
   50MOL   H16031618   0.579   2.622   3.245  0.2946 -0.5525  1.3223
   50MOL   H16131619   0.603   2.609   3.022 -0.7132  0.5178 -0.1781
   50MOL   C16231620   0.778   2.706   2.997  0.0310  0.3629 -0.1235
   50MOL   O16331621   0.883   2.738   3.045 -0.2051 -0.0117  0.2696
   50MOL   C16431622   0.750   2.694   2.842 -0.4063  0.0326  0.0113
   50MOL   C16531623   0.799   2.817   2.765  0.5835  0.0050 -0.2563
   50MOL   C16631624   0.720   2.954   2.793 -0.2491  0.0784  0.2619
   50MOL   C16731625   0.781   3.077   2.721 -0.4123 -0.1848  0.6781
   50MOL   C16831626   0.747   3.204   2.781  0.3214  0.3356  0.3309
   50MOL   O16931627   0.650   3.215   2.860  0.0114  0.2698 -0.6213
   50MOL   N17031628   0.832   3.308   2.750  0.1102  0.9896  0.6276
   50MOL   C17131629   0.852   3.425   2.830  1.5293 -0.2194  0.2973
   50MOL   C17231630   0.857   3.558   2.744  0.1271  0.9596 -0.1311
   50MOL   C17331631   0.871   3.693   2.821 -0.1491 -1.0613  0.1608
   50MOL   C17431632   1.017   3.732   2.842  0.6826  0.0397  0.2609
   50MOL   N17531633   1.032   3.879   2.872 -0.0039 -0.5037  0.5303
   50MOL   H17631634   0.796   2.598   2.820  1.0338  0.3378  1.6044
   50MOL   H17731635   0.643   2.674   2.833 -0.1703 -0.7623 -1.0280
   50MOL   H17831636   0.904   2.836   2.787  0.3395  0.1123  0.8440
   50MOL   H17931637   0.797   2.792   2.659  1.4645 -0.5657 -0.1406
   50MOL   H18031638   0.730   2.967   2.901  0.0504  0.4831  0.1852
   50MOL   H18131639   0.618   2.940   2.757  0.4426 -0.2328 -1.6439
   50MOL   H18231640   0.745   3.084   2.618 -1.1804 -1.6194  0.8353
   50MOL   H18331641   0.890   3.068   2.719 -0.3934  0.0847  0.5426
   50MOL   H18431642   0.904   3.290   2.682 -0.1928 -1.7442  0.9440
   50MOL   H18531643   0.938   3.409   2.895  2.1584  0.9893 -0.2125
   50MOL   H18631644   0.769   3.427   2.899  2.4676 -1.3685  1.4808
   50MOL   H18731645   0.927   3.568   2.661  0.8764  0.0921  0.3982
   50MOL   H18831646   0.763   3.581   2.694 -0.6895  2.4548  1.9964
   50MOL   H18931647   0.817   3.692   2.916  0.3659 -0.0659  0.4682
   50MOL   H19031648   0.817   3.773   2.772  1.2790  0.0493  0.3655
   50MOL   H19131649   1.080   3.712   2.756  1.7299 -0.2635  1.0878
   50MOL   H19231650   1.057   3.662   2.916  1.0134  0.3293  0.3600
   50MOL   H19331651   0.945   3.929   2.880  0.5163  0.5904 -0.5005
   50MOL   C19431652   1.143   3.939   2.912  0.1853  0.5958  0.4741
   50MOL   O19531653   1.255   3.889   2.909  0.2009 -0.4404 -0.2202
   50MOL   C19631654   1.125   4.084   2.944  0.0757  0.5784 -0.2274
   50MOL   C19731655   1.218   4.127   3.060 -0.1937 -0.3937 -0.1239
   50MOL   C19831656   1.215   4.280   3.080 -0.5109  0.0539  0.9694
   50MOL   C19931657   1.297   4.348   3.198 -0.1643  0.2086  0.6645
   50MOL   C20031658   1.286   4.502   3.205  0.0985  0.7686 -0.1892
   50MOL   O20131659   1.269   4.574   3.105  0.6332  0.1614 -0.8412
   50MOL   N20231660   1.287   4.550   3.329 -0.4452 -0.2377  0.0898
   50MOL   C20331661   1.305   4.690   3.353 -0.3563 -0.1664 -0.0142
   50MOL   C20431662   1.287   4.728   3.497 -0.3108  0.1155  0.2440
   50MOL   C20531663   1.162   4.676   3.559 -0.3583 -0.6402 -0.9151
   50MOL   C20631664   1.143   4.720   3.700  0.5749  0.2265  0.5691
   50MOL   N20731665   1.240   4.651   3.785  0.0105 -0.1108  0.1932
   50MOL   H20831666   1.159   4.137   2.855 -0.4833  0.9201 -0.2418
   50MOL   H20931667   1.020   4.106   2.964 -0.0365  0.5997 -0.8272
   50MOL   H21031668   1.193   4.076   3.153  2.2730 -2.3486 -0.4638
   50MOL   H21131669   1.319   4.092   3.039  0.3436 -0.7706  2.8844
   50MOL   H21231670   1.111   4.303   3.103 -0.3596  0.6463  1.0765
   50MOL   H21331671   1.244   4.334   2.990  0.9142 -1.4195  0.5225
   50MOL   H21431672   1.398   4.314   3.175 -1.0370 -2.3093  0.4029
   50MOL   H21531673   1.248   4.312   3.288  1.3128  0.9925  1.7853
   50MOL   H21631674   1.317   4.482   3.397  0.7224  0.2836  0.0950
   50MOL   H21731675   1.222   4.733   3.297 -0.7610 -3.6185 -2.2335
   50MOL   H21831676   1.399   4.725   3.311 -1.1052  0.6120 -1.0844
   50MOL   H21931677   1.375   4.696   3.552  1.3875 -0.4867 -2.7632
   50MOL   H22031678   1.278   4.837   3.505  1.1393  0.1897  1.0591
   50MOL   H22131679   1.147   4.568   3.551  1.9647 -1.1555  1.2301
   50MOL   H22231680   1.088   4.717   3.490 -2.5295 -3.4907 -0.4044
   50MOL   H22331681   1.048   4.683   3.739  0.8113 -1.9533 -0.8425
   50MOL   H22431682   1.140   4.829   3.706  2.7684  0.4897 -2.1231
   50MOL   H22531683   1.252   4.551   3.780  1.4268  0.0307  0.5330
   50MOL   C22631684   1.329   4.709   3.872  0.2663  0.0185  0.3827
   50MOL   O22731685   1.347   4.832   3.891 -0.3684 -0.0205  0.1373
   50MOL   C22831686   1.419   4.611   3.932  0.6936  0.0084  0.1681
   50MOL   C22931687   1.476   4.655   4.065  0.1156  0.0434 -0.1466
   50MOL   C23031688   1.596   4.568   4.105 -0.5950 -0.4372 -0.5482
   50MOL   C23131689   1.701   4.651   4.194  0.2033 -0.2430 -0.1644
   50MOL   C23231690   1.692   4.627   4.344  0.7133  0.0046  0.2845
   50MOL   O23331691   1.645   4.523   4.397  0.0128  0.0123  0.1263
   50MOL   N23431692   1.738   4.738   4.405  0.5453  0.4297  0.6409
   50MOL   C23531693   1.749   4.766   4.547 -0.3566 -0.4109  0.1293
   50MOL   C23631694   1.881   4.750   4.601  0.0840  0.3942  0.0939
   50MOL   C23731695   1.937   4.602   4.579 -0.3782 -0.1760  0.1723
   50MOL   C23831696   2.066   4.569   4.653  0.0891 -1.3104  0.1550
   50MOL   N23931697   2.089   4.416   4.659  0.1801  0.2904 -0.5904
   50MOL   H24031698   1.367   4.517   3.951  1.2527  0.2735  3.4170
   50MOL   H24131699   1.503   4.590   3.866  1.6766  0.6639  1.1945
   50MOL   H24231700   1.514   4.757   4.061  0.8169 -0.2432 -1.1328
   50MOL   H24331701   1.402   4.656   4.145  1.1936  1.6351  0.8740
   50MOL   H24431702   1.656   4.551   4.015  2.5107  3.3650  0.6628
   50MOL   H24531703   1.580   4.469   4.146  1.3293  0.2672  2.0104
   50MOL   H24631704   1.692   4.759   4.179 -0.8637 -0.2785  0.1079
   50MOL   H24731705   1.803   4.622   4.172  0.5518  1.6472 -1.1722
   50MOL   H24831706   1.745   4.823   4.350 -3.4123 -0.1071 -0.8174
   50MOL   H24931707   1.671   4.701   4.588 -2.2399  0.5470 -1.8684
   50MOL   H25031708   1.703   4.865   4.556 -1.4356 -0.9545  0.6956
   50MOL   H25131709   1.938   4.820   4.540 -4.1987  3.1052 -1.0108
   50MOL   H25231710   1.883   4.778   4.706 -2.2111 -2.1886  0.8644
   50MOL   H25331711   1.933   4.564   4.477 -2.1292  1.8359 -0.5370
   50MOL   H25431712   1.854   4.544   4.620 -1.0045  0.3258 -0.3779
   50MOL   H25531713   2.054   4.599   4.757  0.9994 -1.0328  0.1906
   50MOL   H25631714   2.157   4.620   4.619 -0.5404 -0.6005 -0.4749
   50MOL   H25731715   2.051   4.360   4.734  0.0668  0.8840 -0.2057
   50MOL   C25831716   2.164   4.349   4.572 -0.2040 -0.5367 -0.4066
   50MOL   O25931717   2.230   4.413   4.483  0.3863 -0.6173  0.7257
   50MOL   C26031718   2.178   4.193   4.586  0.7229 -0.6380 -0.9564
   50MOL   C26131719   2.252   4.133   4.467 -0.0129 -0.2869 -0.7596
   50MOL   C26231720   2.254   3.978   4.481 -0.2508  0.3472  0.5564
   50MOL   C26331721   2.118   3.902   4.454  0.6947 -0.1966  0.1643
   50MOL   C26431722   2.137   3.754   4.412 -0.0314 -0.3678  1.0319
   50MOL   O26531723   2.200   3.734   4.311 -1.0070  0.1316  0.2828
   50MOL   N26631724   2.081   3.655   4.488  0.1545 -0.2321  0.0564
   50MOL   C26731725   2.101   3.513   4.459 -0.4852  0.0680  0.3448
   50MOL   C26831726   1.972   3.452   4.403  0.2841 -0.0871 -0.5727
   50MOL   C26931727   1.993   3.313   4.348  0.0761  0.0316  0.4697
   50MOL   C27031728   2.052   3.209   4.435 -0.2861 -0.7567 -0.6028
   50MOL   N27131729   2.061   3.084   4.367  0.2421 -0.5150  0.7744
   50MOL   H27231730   2.239   4.157   4.669  1.3859  0.7332 -0.8480
   50MOL   H27331731   2.077   4.153   4.601  0.7576 -0.3226  0.1390
   50MOL   H27431732   2.202   4.152   4.372  0.4625 -1.3334 -1.2362
   50MOL   H27531733   2.348   4.184   4.462 -0.0792 -0.2364 -1.6886
   50MOL   H27631734   2.296   3.961   4.581  0.0628 -0.7737  0.2396
   50MOL   H27731735   2.338   3.944   4.421 -1.1377 -0.3067 -0.3267
   50MOL   H27831736   2.066   3.943   4.367  1.1454  1.6180  0.7309
   50MOL   H27931737   2.048   3.913   4.537 -0.0753 -0.9063 -0.3704
   50MOL   H28031738   2.004   3.666   4.552 -0.3697  1.4058 -0.8354
   50MOL   H28131739   2.111   3.482   4.563 -1.9134  0.5050  0.6169
   50MOL   H28231740   2.190   3.480   4.404 -0.9049  0.5090 -0.6017
   50MOL   H28331741   1.903   3.435   4.486  0.5635 -1.2470 -0.5682
   50MOL   H28431742   1.918   3.512   4.330 -2.2236 -2.3092 -0.6446
   50MOL   H28531743   2.057   3.328   4.261 -0.3714 -0.5035  0.0443
   50MOL   H28631744   1.894   3.287   4.310 -0.5558  1.7723  0.8377
   50MOL   H28731745   2.007   3.201   4.535  1.1599  2.3299  0.3533
   50MOL   H28831746   2.150   3.256   4.443 -1.3331  1.0235  2.9424
   50MOL   H28931747   2.011   3.007   4.408  3.1212 -0.9891  3.6314
   50MOL   C29031748   2.144   3.054   4.263  0.0991 -0.1911 -0.1780
   50MOL   O29131749   2.234   3.132   4.231  0.1974  0.0591  0.3561
   50MOL   C29231750   2.122   2.928   4.179  0.3192 -0.0872 -0.3631
   50MOL   C29331751   2.234   2.821   4.175 -0.5936  0.7527  0.1723
   50MOL   C29431752   2.209   2.726   4.052 -0.1304 -0.7073  0.2500
   50MOL   C29531753   2.314   2.623   4.034  0.0402  0.3232 -0.0194
   50MOL   C29631754   2.314   2.560   3.902  0.9258  0.2506 -0.1189
   50MOL   O29731755   2.211   2.546   3.833 -0.5854 -0.4776 -0.4787
   50MOL   N29831756   2.437   2.536   3.849 -0.2816 -0.0899 -0.0154
   50MOL   C29931757   2.470   2.493   3.715  0.1630 -0.0055 -0.4348
   50MOL   C30031758   2.430   2.349   3.696 -0.7275 -0.1493 -0.4480
   50MOL   C30131759   2.430   2.285   3.561 -0.5516  0.7378  1.0485
   50MOL   C30231760   2.568   2.230   3.512 -0.9549 -0.4718  0.6809
   50MOL   N30331761   2.550   2.180   3.374 -0.1198  0.3394 -0.0773
   50MOL   H30431762   2.023   2.885   4.193 -0.7763  1.9747 -1.6527
   50MOL   H30531763   2.119   2.973   4.080  1.4116 -2.6192 -1.5913
   50MOL   H30631764   2.335   2.862   4.178 -0.4346  0.4991 -1.3862
   50MOL   H30731765   2.214   2.748   4.253 -3.0219  0.9113 -0.2875
   50MOL   H30831766   2.198   2.791   3.966 -2.1193 -0.4842  0.6657
   50MOL   H30931767   2.117   2.671   4.069  0.1943 -1.1007  0.7657
   50MOL   H31031768   2.327   2.549   4.113 -0.1407 -1.7401 -1.8709
   50MOL   H31131769   2.408   2.677   4.035  0.5475 -0.5543  0.1912
   50MOL   H31231770   2.510   2.556   3.916 -0.5049 -0.8363  0.4660
   50MOL   H31331771   2.577   2.503   3.697  0.2886 -0.3208  0.1018
   50MOL   H31431772   2.414   2.559   3.649  1.6635  0.6894 -1.0264
   50MOL   H31531773   2.467   2.286   3.777 -2.5526  1.4712  1.7129
   50MOL   H31631774   2.325   2.358   3.724 -0.0119 -0.6849  2.5574
   50MOL   H31731775   2.392   2.355   3.487 -1.6012 -1.0117 -0.0924
   50MOL   H31831776   2.362   2.201   3.558 -2.1361  1.8727  3.1025
   50MOL   H31931777   2.608   2.157   3.582 -1.4836 -1.8543 -0.4471
   50MOL   H32031778   2.631   2.320   3.515 -1.6477  0.0902 -1.1989
   50MOL   H32131779   2.467   2.132   3.342  1.0529 -0.6012 -1.8359
   50MOL   C32231780   2.641   2.197   3.277 -0.2876 -0.3014  0.9012
   50MOL   O32331781   2.750   2.251   3.298  0.2477  0.3411  0.1930
   50MOL   C32431782   2.607   2.152   3.128  0.1366 -0.5209  0.2478
   50MOL   C32531783   2.734   2.132   3.043 -0.4297 -0.2316  0.1911
   50MOL   C32631784   2.703   2.055   2.918 -0.1313 -0.6998  0.8705
   50MOL   C32731785   2.676   2.148   2.792 -0.6053  0.0878  0.5752
   50MOL   C32831786   2.545   2.217   2.788 -0.7291  0.1291 -0.0381
   50MOL   O32931787   2.442   2.164   2.827  0.5338  0.3502  0.4540
   50MOL   N33031788   2.539   2.335   2.721  0.0214  0.1791  0.0348
   50MOL   C33131789   2.428   2.425   2.712  0.4142 -0.5177  0.2214
   50MOL   C33231790   2.434   2.545   2.817 -0.0883  0.2883 -0.5222
   50MOL   C33331791   2.318   2.639   2.820  0.1919 -0.9773 -0.3732
   50MOL   C33431792   2.319   2.749   2.711  0.0249  0.6475 -0.2544
   50MOL   N33531793   2.199   2.819   2.727 -0.1330 -0.0646 -0.3212
   50MOL   H33631794   2.534   2.073   3.109  0.6335 -0.7274 -0.8286
   50MOL   H33731795   2.548   2.239   3.099  0.3116 -0.3224  0.4867
   50MOL   H33831796   2.796   2.220   3.031  0.4246 -0.6165  1.6229
   50MOL   H33931797   2.807   2.066   3.090 -0.3906  0.9433  1.8112
   50MOL   H34031798   2.625   1.979   2.932 -1.5242  0.5151 -0.2176
   50MOL   H34131799   2.791   2.001   2.883  0.0215  0.2087 -0.1536
   50MOL   H34231800   2.686   2.082   2.705 -0.0761 -0.3073  0.9280
   50MOL   H34331801   2.749   2.227   2.772  1.5073 -1.5498  1.5192
   50MOL   H34431802   2.625   2.365   2.677  1.3302 -1.7207  1.2582
   50MOL   H34531803   2.338   2.364   2.729 -1.0287  0.6249 -2.8473
   50MOL   H34631804   2.430   2.469   2.612 -0.1946  0.6325  0.7110
   50MOL   H34731805   2.447   2.496   2.914 -2.7384  0.1024 -0.2348
   50MOL   H34831806   2.525   2.604   2.805 -0.5399  1.2102  0.5394
   50MOL   H34931807   2.320   2.685   2.918 -2.1105 -0.3273 -0.5979
   50MOL   H35031808   2.223   2.589   2.804 -1.0415  1.7334 -1.9797
   50MOL   H35131809   2.322   2.707   2.611  1.6090  0.7437 -0.2650
   50MOL   H35231810   2.406   2.810   2.735 -0.5915  0.5519  2.4289
   50MOL   H35331811   2.133   2.782   2.793 -1.6072  0.2927 -1.5627
   50MOL   C35431812   2.164   2.916   2.651  0.2179  0.0490  0.0114
   50MOL   O35531813   2.228   2.949   2.551 -0.1715  0.5216 -0.3551
   50MOL   C35631814   2.025   2.975   2.679  0.0740  0.7334  0.0902
   50MOL   C35731815   1.970   3.053   2.555  0.2497  0.0999  0.2627
   50MOL   C35831816   2.036   3.185   2.526 -0.2952 -0.4703  0.0552
   50MOL   C35931817   1.995   3.308   2.604  0.0329 -0.2500 -0.0395
   50MOL   C36031818   1.870   3.377   2.542 -0.0190 -0.4287  0.6474
   50MOL   O36131819   1.883   3.440   2.440  0.4483 -0.3181  0.2216
   50MOL   N36231820   1.762   3.363   2.620  0.3908 -0.0992  0.7357
   50MOL   C36331821   1.631   3.423   2.594  0.4891 -0.4901  0.1730
   50MOL   C36431822   1.523   3.324   2.641  1.3380  0.4684  0.3802
   50MOL   C36531823   1.381   3.386   2.629  0.2188 -0.1436  0.6727
   50MOL   C36631824   1.267   3.315   2.702  0.1064 -0.8223  0.7405
   50MOL   N36731825   1.239   3.188   2.648 -0.6206  0.3159  0.2236
   50MOL   H36831826   1.952   2.899   2.707 -0.8965  1.5878 -0.1267
   50MOL   H36931827   2.032   3.048   2.760  1.2872 -0.3046  0.9481
   50MOL   H37031828   1.975   2.995   2.462  0.3964  1.1044 -0.3621
   50MOL   H37131829   1.864   3.075   2.560 -0.0111 -1.2179  0.7840
   50MOL   H37231830   2.009   3.213   2.424  1.6560  2.5052  0.2776
   50MOL   H37331831   2.144   3.171   2.520 -0.6012 -2.6326 -0.8167
   50MOL   H37431832   2.077   3.378   2.586 -1.6240  1.9462  0.7862
   50MOL   H37531833   1.989   3.292   2.711  0.6136  0.2090  0.0646
   50MOL   H37631834   1.777   3.306   2.702 -1.8611 -0.0501  1.2028
   50MOL   H37731835   1.622   3.438   2.486 -0.4865 -0.3955  0.2551
   50MOL   H37831836   1.626   3.521   2.641 -1.2097 -0.3555 -0.2188
   50MOL   H37931837   1.531   3.225   2.596 -2.2914 -1.1201  2.9823
   50MOL   H38031838   1.549   3.309   2.746  1.8288  0.3176  0.2380
   50MOL   H38131839   1.361   3.388   2.522  0.3679  2.0386  0.6691
   50MOL   H38231840   1.387   3.487   2.669  0.9408  0.7555 -1.6562
   50MOL   H38331841   1.183   3.383   2.688  0.6753 -0.1623  0.5134
   50MOL   H38431842   1.296   3.314   2.807 -1.4158  0.3623  1.1893
   50MOL   H38531843   1.304   3.110   2.656  0.0189  0.4324 -3.1208
   50MOL   C38631844   1.130   3.160   2.576 -0.5808  0.0895 -0.1212
   50MOL   O38731845   1.030   3.239   2.564 -0.5261 -0.2157  0.6782
   50MOL   C38831846   1.134   3.030   2.499 -0.1193  0.0373 -0.0828
   50MOL   C38931847   1.006   3.007   2.412  0.0407  0.6194  0.0917
   50MOL   C39031848   0.984   2.864   2.369 -0.8944 -0.0552  0.9933
   50MOL   C39131849   0.864   2.838   2.279  0.0383 -0.2678  0.8391
   50MOL   C39231850   0.863   2.914   2.144  0.1644 -0.5300 -0.3504
   50MOL   O39331851   0.955   2.892   2.066  0.6580  0.8812  0.1000
   50MOL   N39431852   0.770   3.012   2.120 -0.0898  0.3284  0.6103
   50MOL   C39531853   0.770   3.091   2.002  0.9522 -0.3660 -0.0035
   50MOL   C39631854   0.843   3.225   2.012 -0.8365  0.1652 -0.5674
   50MOL   C39731855   0.906   3.266   1.879 -0.3805  0.2342 -0.5067
   50MOL   C39831856   0.985   3.163   1.799  0.5313  0.4309  0.2820
   50MOL   N39931857   1.072   3.082   1.877 -0.6273 -0.7594 -0.2119
   50MOL   H40031858   1.217   3.039   2.428  0.3363 -3.1402 -0.0484
   50MOL   H40131859   1.146   2.944   2.565 -2.3384 -0.6053 -0.4823
   50MOL   H40231860   0.919   3.027   2.474  1.6012 -0.0319  2.5590
   50MOL   H40331861   0.997   3.087   2.338 -1.1209 -0.6750 -1.1829
   50MOL   H40431862   0.971   2.802   2.458  1.7374 -0.8355  0.8570
   50MOL   H40531863   1.079   2.837   2.324 -0.2502  1.0472  1.6639
   50MOL   H40631864   0.782   2.877   2.339 -1.5875  1.2985 -2.3390
   50MOL   H40731865   0.844   2.731   2.270 -1.6464 -0.2209  3.3395
   50MOL   H40831866   0.682   2.997   2.168 -1.3238 -0.0286 -1.7150
   50MOL   H40931867   0.667   3.115   1.973  0.9004 -0.1977  0.3080
   50MOL   H41031868   0.805   3.020   1.927  1.7474 -0.3205  0.3254
   50MOL   H41131869   0.767   3.291   2.053  0.7675  0.6859  1.6894
   50MOL   H41231870   0.921   3.215   2.088 -1.5859 -1.6452 -0.0073
   50MOL   H41331871   0.967   3.354   1.900  0.3241  0.0336 -1.6597
   50MOL   H41431872   0.833   3.297   1.805 -0.8079 -0.0853 -0.2182
   50MOL   H41531873   1.029   3.220   1.717 -0.8760  1.1440  0.0048
   50MOL   H41631874   0.917   3.091   1.754  2.2856 -0.8263 -0.3752
   50MOL   H41731875   1.022   3.036   1.951 -1.6341  0.6153 -0.0394
   50MOL   C41831876   1.198   3.054   1.840 -0.3191  0.0207 -0.4365
   50MOL   O41931877   1.242   3.105   1.732  0.4707  0.7358  0.1393
   50MOL   C42031878   1.282   2.956   1.924 -0.4168 -0.6693  0.6545
   50MOL   C42131879   1.314   2.834   1.835  0.6243  0.0118  0.5101
   50MOL   C42231880   1.218   2.713   1.842 -0.3404 -0.0508  0.5372
   50MOL   C42331881   1.270   2.571   1.785  0.3839 -0.0400 -0.4972
   50MOL   C42431882   1.158   2.465   1.762  0.1801 -0.1661  0.3477
   50MOL   O42531883   1.130   2.435   1.649  0.3948  0.0711  0.0218
   50MOL   N42631884   1.091   2.425   1.872  0.0675  0.5804  0.2181
   50MOL   C42731885   0.972   2.338   1.878 -0.3445 -0.1654 -0.2911
   50MOL   C42831886   0.851   2.413   1.813  1.0890  0.5757 -0.2617
   50MOL   C42931887   0.713   2.338   1.829  0.0658 -0.0098 -0.7185
   50MOL   C43031888   0.628   2.384   1.946 -0.0208  0.1282  0.1479
   50MOL   N43131889   0.677   2.319   2.063  0.0379 -0.9005  0.9041
   50MOL   H43231890   1.372   3.010   1.952  0.3819 -2.0929  0.9124
   50MOL   H43331891   1.237   2.926   2.019 -0.2996  1.6345  1.4613
   50MOL   H43431892   1.334   2.867   1.733  1.8449 -0.5460  0.5597
   50MOL   H43531893   1.410   2.790   1.863  0.4733 -0.4548  0.2977
   50MOL   H43631894   1.137   2.751   1.780  0.2512  0.0284 -0.1855
   50MOL   H43731895   1.184   2.700   1.945  0.7379 -3.3366  0.5241
   50MOL   H43831896   1.334   2.523   1.859 -1.1239 -0.6962  0.4143
   50MOL   H43931897   1.318   2.583   1.688 -0.9488  1.5262 -0.9884
   50MOL   H44031898   1.123   2.457   1.963 -0.3381  0.6153  0.3495
   50MOL   H44131899   0.954   2.311   1.982 -1.1265 -2.7486 -1.0618
   50MOL   H44231900   0.981   2.242   1.827  3.6667 -0.8775  1.5340
   50MOL   H44331901   0.841   2.511   1.860  1.7918 -0.9380  3.2183
   50MOL   H44431902   0.858   2.399   1.705  1.5202 -2.5023  0.1271
   50MOL   H44531903   0.734   2.231   1.833 -0.6210 -0.1678 -1.2007
   50MOL   H44631904   0.659   2.351   1.735 -1.6446  1.9575  0.5122
   50MOL   H44731905   0.523   2.354   1.938  0.6579 -1.7649 -2.2708
   50MOL   H44831906   0.634   2.493   1.955 -1.2712  0.1200  1.2438
   50MOL   H44931907   0.623   2.236   2.083  0.9408 -1.6178  0.4158
   50MOL   C45031908   0.761   2.372   2.161  0.2333 -0.0131 -0.3290
   50MOL   O45131909   0.818   2.478   2.148  0.0700 -0.2464  0.3179
   50MOL   C45231910   0.785   2.290   2.287 -0.0491  0.1952 -0.2121
   50MOL   C45331911   0.927   2.323   2.346 -0.2771 -0.2391  0.4633
   50MOL   C45431912   0.937   2.259   2.487 -0.1119 -0.1341 -0.1342
   50MOL   C45531913   1.063   2.308   2.555  0.3143 -0.3071 -0.2047
   50MOL   C45631914   1.044   2.451   2.616  1.2413 -0.3015 -0.2109
   50MOL   O45731915   0.959   2.466   2.701 -0.3839 -0.5859  0.3167
   50MOL   N45831916   1.135   2.543   2.579 -0.3982  0.3557  0.7595
   50MOL   C45931917   1.160   2.675   2.643  0.3325  0.0547  0.6585
   50MOL   C46031918   1.214   2.680   2.783 -0.1304  0.4039  0.4778
   50MOL   C46131919   1.255   2.831   2.829  0.7276  0.1424 -0.2334
   50MOL   C46231920   1.284   2.855   2.972  0.2296  0.3453 -0.0360
   50MOL   N46331921   1.192   2.801   3.075 -0.4344 -0.0705  0.0602
   50MOL   H46431922   0.702   2.314   2.354  0.5428  2.1938 -0.1883
   50MOL   H46531923   0.772   2.184   2.262 -2.3788  0.5905 -0.7753
   50MOL   H46631924   1.008   2.297   2.277  0.1200  3.8607 -0.7543
   50MOL   H46731925   0.923   2.430   2.367 -0.4317 -0.2785  0.6321
   50MOL   H46831926   0.950   2.151   2.475 -3.0569 -0.2900 -2.5220
   50MOL   H46931927   0.849   2.272   2.550 -0.7052 -0.1062 -0.9684
   50MOL   H47031928   1.146   2.309   2.484 -0.0416 -0.5117 -0.6324
   50MOL   H47131929   1.081   2.236   2.635  1.5759 -0.6240 -0.7591
   50MOL   H47231930   1.196   2.517   2.503 -2.7703  0.1035 -1.1013
   50MOL   H47331931   1.068   2.734   2.643 -0.0013 -0.4607  1.5781
   50MOL   H47431932   1.225   2.735   2.579  0.4384  0.2501  0.9495
   50MOL   H47531933   1.138   2.648   2.855  1.3948 -2.9594  0.7206
   50MOL   H47631934   1.305   2.622   2.799  0.1378  1.0173  1.2498
   50MOL   H47731935   1.167   2.892   2.810 -0.0827 -1.0325 -0.2791
   50MOL   H47831936   1.332   2.868   2.761  0.6414 -1.7469 -1.4020
   50MOL   H47931937   1.288   2.963   2.989 -0.3784  0.0156  2.3844
   50MOL   H48031938   1.387   2.824   2.986  0.3297  0.1690 -1.1646
   50MOL   H48131939   1.094   2.786   3.058 -0.8776  0.3765  2.0983
   50MOL   C48231940   1.233   2.780   3.205  0.3219 -1.3243  0.0104
   50MOL   O48331941   1.344   2.814   3.253  0.0856 -0.3845  0.3323
   50MOL   C48431942   1.129   2.724   3.302  0.7946  0.5558 -0.4710
   50MOL   C48531943   1.135   2.760   3.453 -0.1236  0.1881  0.0844
   50MOL   C48631944   1.064   2.886   3.491  0.2050  0.6135  0.1129
   50MOL   C48731945   0.910   2.869   3.491 -0.9888  0.4534 -0.6314
   50MOL   C48831946   0.857   2.985   3.571  0.0434  0.3376 -0.1648
   50MOL   O48931947   0.895   3.099   3.557 -0.1868  0.4124 -0.4877
   50MOL   N49031948   0.745   2.956   3.642  0.1717  0.2200  0.2504
   50MOL   C49131949   0.668   3.054   3.709 -0.7158  0.9753 -0.0903
   50MOL   C49231950   0.538   3.000   3.781  0.2989 -0.3320 -0.0162
   50MOL   C49331951   0.437   3.112   3.810 -0.2516 -1.2380  0.0040
   50MOL   C49431952   0.303   3.061   3.870 -0.7510 -0.4815 -0.4856
   50MOL   N49531953   0.212   3.173   3.887 -0.3720 -0.0358 -0.7000
   50MOL   H49631954   1.031   2.736   3.254  0.0753 -3.7746 -0.2979
   50MOL   H49731955   1.158   2.620   3.293  0.7594  0.4888  0.1957
   50MOL   H49831956   1.089   2.677   3.506 -0.3851 -0.2088 -0.7557
   50MOL   H49931957   1.241   2.757   3.479 -0.2126 -1.3408  0.3137
   50MOL   H50031958   1.093   2.962   3.419 -1.8481  1.2831 -0.0134
   50MOL   H50131959   1.086   2.922   3.592 -1.7934  0.6481  0.5514
   50MOL   H50231960   0.872   2.774   3.528 -2.2034  1.3635  0.5070
   50MOL   H50331961   0.873   2.877   3.388 -0.1603  0.5402 -0.9243
   50MOL   H50431962   0.709   2.861   3.647  0.7295  0.0415  0.8952
   50MOL   H50531963   0.633   3.127   3.636  0.8760  0.1519 -1.6935
   50MOL   H50631964   0.728   3.118   3.774  0.0662 -0.9099  1.0698
   50MOL   H50731965   0.496   2.927   3.712  0.7171  0.6510 -1.3535
   50MOL   H50831966   0.566   2.958   3.878  0.2654  1.0143  0.5889
   50MOL   H50931967   0.417   3.181   3.729  2.4764 -1.6076 -1.0406
   50MOL   H51031968   0.481   3.171   3.891 -0.5043 -2.9332  1.4157
   50MOL   H51131969   0.322   3.015   3.967 -0.3612 -0.6577 -0.6402
   50MOL   H51231970   0.261   2.986   3.802 -0.4919  0.1230 -1.3281
   50MOL   H51331971   0.247   3.267   3.896 -0.0149 -0.2491  0.2555
   50MOL   C51431972   0.081   3.162   3.869  0.2785  0.0834 -0.1207
   50MOL   O51531973   0.025   3.056   3.846  1.0013 -0.0505 -0.2005
   50MOL   C51631974   0.002   3.288   3.877  0.7620 -0.3591  0.0395
   50MOL   C51731975   7.660   3.318   4.027  0.1393  0.7340  0.2091
   50MOL   C51831976   0.082   3.370   4.110 -0.6046 -0.2772 -0.5118
   50MOL   C51931977   0.050   3.491   4.193  0.0755  0.3539  0.4475
   50MOL   C52031978   7.641   3.470   4.300 -0.5311  0.1560 -0.4059
   50MOL   O52131979   7.668   3.410   4.401  0.2197 -0.3899 -0.1407
   50MOL   N52231980   7.517   3.527   4.278 -0.0143  0.0323 -0.4920
   50MOL   C52331981   7.400   3.499   4.353 -0.6660  0.0738 -0.3482
   50MOL   C52431982   7.278   3.494   4.259  0.0295 -0.2303 -0.3573
   50MOL   C52531983   7.151   3.504   4.344  0.9010  0.7544 -0.0571
   50MOL   C52631984   7.024   3.432   4.285  0.8103  0.8592  0.5296
   50MOL   N52731985   6.904   3.433   4.370  0.1190 -0.0522 -0.0337
   50MOL   H52831986   0.069   3.364   3.837  0.7938  0.3012  1.3049
   50MOL   H52931987   7.623   3.286   3.804  1.3283 -0.4216 -0.5923
   50MOL   H53031988   7.574   3.385   4.021 -1.0009 -0.7933 -1.0157
   50MOL   H53131989   7.619   3.233   4.081  0.9670 -0.0464 -0.3882
   50MOL   H53231990   0.153   3.416   4.042 -0.9381 -1.9343 -2.0108
   50MOL   H53331991   0.130   3.291   4.168 -1.4829 -1.4984 -1.4361
   50MOL   H53431992   0.031   3.581   4.135 -0.8900 -0.5363 -0.6530
   50MOL   H53531993   0.140   3.519   4.247  0.9600 -0.4615 -0.5652
   50MOL   H53631994   7.505   3.592   4.201 -1.4959 -0.5240 -0.7532
   50MOL   H53731995   7.398   3.574   4.432 -0.8798 -0.4724  0.1641
   50MOL   H53831996   7.403   3.403   4.405 -1.3270  0.1768 -0.1180
   50MOL   H53931997   7.266   3.548   4.165  0.4241  2.7686  1.2612
   50MOL   H54031998   7.274   3.392   4.222  0.0411 -0.6693  0.8132
   50MOL   H54131999   7.118   3.608   4.353  1.9019  1.1412 -0.7445
   50MOL   H54232000   7.165   3.475   4.448  1.8188  1.1455 -0.0671
   50MOL   H54332001   7.057   3.336   4.247 -1.6045  0.2289 -0.0325
   50MOL   H54432002   7.007   3.481   4.189  1.3659 -1.3785 -0.7342
   50MOL   H54532003   6.882   3.517   4.423  1.9319 -1.1317  2.5194
   50MOL   C54632004   6.816   3.333   4.375 -0.3565  0.1971 -0.0665
   50MOL   O54732005   6.821   3.235   4.300 -0.2932 -0.6048 -0.7447
   50MOL   C54832006   6.702   3.352   4.473  0.0567 -0.4505  0.5217
   50MOL   C54932007   6.575   3.271   4.446  0.3255 -1.2910  0.1244
   50MOL   C55032008   6.447   3.296   4.525 -0.0961  0.6674 -0.4830
   50MOL   C55132009   6.340   3.391   4.457  1.1010 -0.1388 -0.4281
   50MOL   C55232010   6.369   3.542   4.449 -1.3180 -0.6365  0.9834
   50MOL   O55332011   6.376   3.619   4.551 -0.5959  0.1231  0.5039
   50MOL   N55432012   6.397   3.586   4.324  0.8067  0.1542  0.5041
   50MOL   C55532013   6.454   3.720   4.294  1.0155 -0.0508 -0.5885
   50MOL   C55632014   6.597   3.698   4.240 -0.7185  0.6302  0.2531
   50MOL   C55732015   6.679   3.832   4.225 -0.3446  0.0354  0.0487
   50MOL   C55832016   6.828   3.813   4.186 -0.1157 -0.4760  0.5219
   50MOL   N55932017   6.911   3.921   4.230  0.2756  0.1612  0.6911
   50MOL   H56032018   6.740   3.324   4.572 -0.2700 -0.4310  0.6536
   50MOL   H56132019   6.688   3.458   4.495 -0.6830 -0.3862 -0.2445
   50MOL   H56232020   6.555   3.272   4.339 -2.9735 -2.8134  0.6513
   50MOL   H56332021   6.608   3.168   4.454 -0.2247 -1.4445  0.5001
   50MOL   H56432022   6.467   3.345   4.620 -1.7043  1.4122 -0.5084
   50MOL   H56532023   6.399   3.201   4.547  2.6647 -0.9352 -1.0698
   50MOL   H56632024   6.239   3.385   4.498  0.3329  0.3909 -2.2287
   50MOL   H56732025   6.316   3.358   4.356 -3.2629  0.3485  0.3360
   50MOL   H56832026   6.399   3.526   4.242  0.1264  2.3832 -1.2101
   50MOL   H56932027   6.463   3.787   4.380 -0.0042  0.4409 -0.8513
   50MOL   H57032028   6.389   3.771   4.223 -0.5969 -0.8166  0.3142
   50MOL   H57132029   6.644   3.623   4.303 -0.3494 -1.2200 -2.1565
   50MOL   H57232030   6.601   3.642   4.146  0.5948  1.3886 -0.1573
   50MOL   H57332031   6.663   3.883   4.320 -0.3203 -1.0509  0.6468
   50MOL   H57432032   6.632   3.908   4.164  1.2729  1.3698  0.3977
   50MOL   H57532033   6.839   3.803   4.078  1.2068 -1.4447  0.7434
   50MOL   H57632034   6.862   3.719   4.230 -0.8664 -0.2958  1.5183
   50MOL   H57732035   6.866   4.001   4.272 -0.6288 -1.2171  2.4013
   50MOL   C57832036   7.042   3.928   4.222 -0.0675  0.1982 -0.0987
   50MOL   O57932037   7.107   3.833   4.170  0.4055  0.2996  0.4210
   50MOL   C58032038   7.109   4.058   4.265 -0.4362 -0.4859 -0.0820
   50MOL   C58132039   7.243   4.056   4.341  0.2040 -0.5255 -0.3771
   50MOL   C58232040   7.276   4.163   4.448  0.1894  0.5640  0.2988
   50MOL   C58332041   7.251   4.312   4.412 -0.5601  0.4040  0.0837
   50MOL   C58432042   7.301   4.420   4.511 -0.2102 -0.3794 -0.4151
   50MOL   O58532043   7.301   4.392   4.631 -0.2613 -0.9978 -0.0563
   50MOL   N58632044   7.335   4.536   4.467  0.1117 -0.2458  0.6282
   50MOL   C58732045   7.362   4.658   4.544  0.3993 -0.6629 -0.1022
   50MOL   C58832046   7.240   4.746   4.564 -0.0320 -0.2757 -0.0038
   50MOL   C58932047   7.173   4.804   4.434 -0.4515 -0.1163  0.7112
   50MOL   C59032048   7.046   4.859   4.481  0.6734  0.5754  0.1487
   50MOL   N59132049   6.963   4.889   4.368  0.0023  0.1944 -0.1497
   50MOL   H59232050   7.126   4.120   4.177 -0.2714  0.1033  0.3620
   50MOL   H59332051   7.040   4.109   4.332 -0.8739 -0.3481 -0.6430
   50MOL   H59432052   7.257   3.960   4.390 -0.0309 -0.2776  0.1752
   50MOL   H59532053   7.306   4.052   4.252 -0.3030  0.2392 -0.7721
   50MOL   H59632054   7.382   4.145   4.466  0.1361  0.8725  0.9361
   50MOL   H59732055   7.219   4.141   4.538  2.6289 -0.6799  1.5674
   50MOL   H59832056   7.144   4.322   4.395 -0.9393 -0.7778  1.5428
   50MOL   H59932057   7.297   4.335   4.316  0.0567 -0.8022  0.0795
   50MOL   H60032058   7.327   4.549   4.367 -2.2936 -1.2760  0.6650
   50MOL   H60132059   7.435   4.716   4.489 -0.5849 -0.2230 -0.9540
   50MOL   H60232060   7.405   4.636   4.642  2.1171 -2.6191 -1.2492
   50MOL   H60332061   7.169   4.691   4.626  1.0105 -2.2956 -0.5447
   50MOL   H60432062   7.261   4.830   4.629  0.3179 -0.2454 -0.1575
   50MOL   H60532063   7.149   4.723   4.365 -1.1003  1.1450 -0.5761
   50MOL   H60632064   7.240   4.873   4.383  1.3000 -1.8276  0.6074
   50MOL   H60732065   7.050   4.942   4.551  0.4397  1.6275 -1.0503
   50MOL   H60832066   6.995   4.782   4.538  2.1189 -1.3284 -1.0518
   50MOL   H60932067   6.934   4.806   4.319 -3.5348 -1.4579  4.2912
   50MOL   C61032068   6.945   5.005   4.309 -0.4083  0.3862  0.2035
   50MOL   O61132069   6.989   5.108   4.362  0.1467  0.3235  0.0955
   50MOL   C61232070   6.883   5.000   4.166 -0.4019 -0.0444  0.4220
   50MOL   C61332071   6.804   5.131   4.120  0.5844 -0.0129 -0.0921
   50MOL   C61432072   6.645   5.126   4.161  0.6469  0.3037  0.4561
   50MOL   C61532073   6.579   5.268   4.163 -1.1089  0.5642 -0.4078
   50MOL   C61632074   6.431   5.265   4.199  0.4736 -0.2484  0.2287
   50MOL   O61732075   6.346   5.244   4.113 -0.1550  0.0037 -0.1950
   50MOL   N61832076   6.406   5.284   4.335  0.6867  0.2739  0.1949
   50MOL   C61932077   6.274   5.280   4.394  0.1069  0.5018  0.0240
   50MOL   C62032078   6.236   5.141   4.459  0.3852 -0.2389  0.0631
   50MOL   C62132079   6.100   5.138   4.524 -0.4603  0.5481 -0.3253
   50MOL   C62232080   6.042   4.995   4.538  0.1243  0.8144  0.1043
   50MOL   N62332081   6.115   4.926   4.641 -0.0936 -0.5791  0.7016
   50MOL   H62432082   6.949   4.990   4.080 -0.5022 -2.0033  0.5498
   50MOL   H62532083   6.823   4.912   4.146  0.1618  0.2084 -2.4724
   50MOL   H62632084   6.850   5.221   4.161  0.0113  1.3038 -2.2845
   50MOL   H62732085   6.817   5.142   4.013 -0.8318  0.0976 -0.2593
   50MOL   H62832086   6.627   5.069   4.252 -0.9975 -2.0438 -1.2428
   50MOL   H62932087   6.590   5.062   4.091 -0.4584 -0.0016  1.5848
   50MOL   H63032088   6.614   5.312   4.070  1.7230 -0.1818  0.2443
   50MOL   H63132089   6.624   5.329   4.242 -0.5338 -0.8419  0.3669
   50MOL   H63232090   6.485   5.308   4.393  2.1233 -2.4034 -0.5596
   50MOL   H63332091   6.198   5.311   4.322 -1.0553 -0.1846  0.9351
   50MOL   H63432092   6.272   5.357   4.471 -1.1185 -1.0340  1.5670
   50MOL   H63532093   6.236   5.063   4.382 -2.3883 -0.0448 -0.1814
   50MOL   H63632094   6.310   5.120   4.536 -0.2066 -0.2055  0.6427
   50MOL   H63732095   6.029   5.181   4.454 -1.0728 -1.1184 -0.7213
   50MOL   H63832096   6.105   5.189   4.621  2.6626  0.0117 -0.1554
   50MOL   H63932097   6.038   4.932   4.450  0.8934 -1.1252  1.4167
   50MOL   H64032098   5.942   5.006   4.580 -0.6927 -1.6120 -1.1566
   50MOL   H64132099   6.077   4.832   4.651 -0.9305 -0.1423  1.6905
   50MOL   H64232100   6.108   4.958   4.736 -0.3325 -0.3730  0.6118
   51MOL     C132101   4.777   1.284   6.892 -0.0793  0.1886 -0.1388
   51MOL     O232102   4.752   1.356   6.798  0.0291 -0.1748  0.2291
   51MOL     C332103   4.914   1.306   6.961  0.8308 -0.0411 -0.1682
   51MOL     C432104   5.030   1.356   6.871  0.1685  0.3979 -0.3370
   51MOL     C532105   5.092   1.253   6.780  0.3353  0.3062 -0.0615
   51MOL     C632106   5.197   1.305   6.681 -0.6047 -0.2745 -0.0900
   51MOL     C732107   5.142   1.376   6.558  0.1811 -0.5526  0.6031
   51MOL     O832108   5.043   1.336   6.499 -0.2743  0.6314  0.0189
   51MOL     N932109   5.200   1.487   6.508  0.4043 -1.0454  0.2916
   51MOL    C1032110   5.150   1.582   6.403 -0.2768  0.8291  0.1435
   51MOL    C1132111   5.269   1.617   6.321 -0.6097 -0.2548 -0.2512
   51MOL    C1232112   5.343   1.499   6.254 -0.3600  0.2392 -0.3179
   51MOL    C1332113   5.459   1.549   6.166  0.4850  0.0753  0.5711
   51MOL    N1432114   5.507   1.453   6.072 -0.5594  0.0033  0.3840
   51MOL    H1532115   4.897   1.376   7.043 -1.5279  1.6045 -1.9923
   51MOL    H1632116   4.939   1.211   7.008  1.3420 -0.7882 -1.9453
   51MOL    H1732117   5.007   1.444   6.811  0.5104 -0.0781 -1.1711
   51MOL    H1832118   5.110   1.391   6.938  0.7574  1.7143 -1.7051
   51MOL    H1932119   5.016   1.214   6.713 -0.9985  1.9557  0.4630
   51MOL    H2032120   5.148   1.173   6.830  0.9642  0.8538  0.1162
   51MOL    H2132121   5.250   1.214   6.654 -3.9275 -2.7065  1.3142
   51MOL    H2232122   5.269   1.368   6.733 -0.8520  1.3249 -1.6152
   51MOL    H2332123   5.278   1.511   6.568 -0.1905 -0.4006  0.8231
   51MOL    H2432124   5.097   1.665   6.450 -0.3949  0.4543  0.6776
   51MOL    H2532125   5.081   1.529   6.337  1.3155 -1.3520  0.1955
   51MOL    H2632126   5.249   1.695   6.248  1.1937  0.8300  0.3800
   51MOL    H2732127   5.332   1.673   6.391 -2.6429  0.3918  1.1117
   51MOL    H2832128   5.270   1.447   6.192 -1.0602 -4.3688  3.9917
   51MOL    H2932129   5.394   1.434   6.325 -1.1722  3.2600  3.2010
   51MOL    H3032130   5.541   1.587   6.226  1.4694  0.6473 -1.1111
   51MOL    H3132131   5.426   1.620   6.091  2.5305 -0.0542 -0.4819
   51MOL    H3232132   5.443   1.406   6.009 -0.8467  0.6048  0.2225
   51MOL    H3332133   4.720   1.199   6.928 -3.5292  3.2583  2.0527
   51MOL    C3432134   5.639   1.434   6.047 -0.0169  0.1594  0.2208
   51MOL    O3532135   5.728   1.496   6.105  0.0298  0.5306 -0.0661
   51MOL    C3632136   5.671   1.312   5.962 -0.0149  1.0744  0.0772
   51MOL    C3732137   5.821   1.264   5.968  0.5792  0.0470  0.2589
   51MOL    C3832138   5.875   1.208   6.106  0.6674  0.3780  0.3881
   51MOL    C3932139   6.020   1.239   6.121 -0.3652  0.5247 -0.2364
   51MOL    C4032140   6.104   1.130   6.061 -0.4669 -0.7001  0.0190
   51MOL    O4132141   6.097   1.015   6.097  0.7260  0.3020 -0.4886
   51MOL    N4232142   6.198   1.161   5.971  0.0357  0.0537 -0.0838
   51MOL    C4332143   6.290   1.069   5.908 -0.0046  0.0829 -0.8216
   51MOL    C4432144   6.426   1.133   5.875  0.4117 -0.4083  0.1460
   51MOL    C4532145   6.531   1.028   5.827  0.4873 -0.5563 -0.2156
   51MOL    C4632146   6.652   1.096   5.753  0.4168  0.1026 -0.1905
   51MOL    N4732147   6.624   1.121   5.609  0.5609  0.6764  0.6857
   51MOL    H4832148   5.601   1.236   5.995 -1.0929  2.5255  1.2366
   51MOL    H4932149   5.647   1.323   5.856 -0.2688 -0.0585  0.0186
   51MOL    H5032150   5.837   1.179   5.902 -0.9788  1.2455 -1.6994
   51MOL    H5132151   5.889   1.340   5.932 -0.4145  1.5323  1.4259
   51MOL    H5232152   5.858   1.101   6.115  2.0857  0.0723 -0.3102
   51MOL    H5332153   5.812   1.256   6.181 -0.8796  1.6599 -1.7176
   51MOL    H5432154   6.047   1.238   6.227  3.8345 -0.0471 -1.2341
   51MOL    H5532155   6.037   1.338   6.079  0.9259 -0.4588 -2.0791
   51MOL    H5632156   6.185   1.250   5.926  0.2613  0.9208  1.5199
   51MOL    H5732157   6.246   1.026   5.818 -3.9764 -0.3745  1.2342
   51MOL    H5832158   6.302   0.979   5.968  3.4730  1.6718  1.0076
   51MOL    H5932159   6.419   1.216   5.805 -2.3872 -0.7018  0.0386
   51MOL    H6032160   6.462   1.178   5.968  3.3761 -4.8878  1.3085
   51MOL    H6132161   6.482   0.954   5.763 -1.2244 -0.0463  0.4781
   51MOL    H6232162   6.573   0.973   5.911 -0.4473 -2.5754 -1.0230
   51MOL    H6332163   6.735   1.026   5.769  0.3890 -0.0458 -0.6802
   51MOL    H6432164   6.688   1.180   5.813  0.5760  2.3174 -3.2672
   51MOL    H6532165   6.584   1.045   5.557 -1.0183  1.0766  1.2903
   51MOL    C6632166   6.643   1.236   5.540  0.1908 -0.2131 -0.1311
   51MOL    O6732167   6.686   1.333   5.595 -0.7061 -0.6755  0.4358
   51MOL    C6832168   6.621   1.239   5.392 -0.0619 -0.2303 -0.2401
   51MOL    C6932169   6.740   1.259   5.304 -0.4154  0.5259 -0.1108
   51MOL    C7032170   6.701   1.309   5.167 -0.5271  0.5861  0.0640
   51MOL    C7132171   6.821   1.345   5.084 -0.0968  0.1348 -0.0089
   51MOL    C7232172   6.900   1.234   5.014 -0.5075 -0.1629 -0.6864
   51MOL    O7332173   6.840   1.130   4.980 -0.4408 -0.2014  0.0675
   51MOL    N7432174   7.034   1.246   5.012 -0.3159  0.6391  0.0362
   51MOL    C7532175   7.136   1.143   4.978 -0.1729 -0.3154  0.6902
   51MOL    C7632176   7.236   1.180   4.865  0.0572  0.3559 -0.4036
   51MOL    C7732177   7.167   1.165   4.723 -0.1682 -0.8083 -0.0640
   51MOL    C7832178   7.231   1.243   4.602 -0.1145  0.2808  0.1101
   51MOL    N7932179   7.218   1.386   4.627  0.5181 -0.3050  0.3540
   51MOL    H8032180   6.554   1.159   5.361 -1.3710  0.9912 -0.6068
   51MOL    H8132181   6.549   1.320   5.376 -1.9015 -1.3780  1.9035
   51MOL    H8232182   6.799   1.341   5.346 -0.1534  0.0341  0.4831
   51MOL    H8332183   6.798   1.168   5.300  1.7326  1.7757  1.3213
   51MOL    H8432184   6.627   1.389   5.171 -0.2180  0.7958  1.6032
   51MOL    H8532185   6.637   1.235   5.117 -0.3926 -0.9366  2.0747
   51MOL    H8632186   6.893   1.405   5.139  0.3928 -1.9659  1.7016
   51MOL    H8732187   6.773   1.404   5.006 -0.0276 -0.9023 -0.8502
   51MOL    H8832188   7.076   1.330   5.048  0.4550 -0.7113  2.3622
   51MOL    H8932189   7.082   1.052   4.952 -0.6020 -0.5319  2.2526
   51MOL    H9032190   7.186   1.121   5.073 -1.1326  1.0178  1.5313
   51MOL    H9132191   7.273   1.282   4.879  1.3752 -0.2644  0.7044
   51MOL    H9232192   7.323   1.115   4.872  0.0716  0.4331  0.1489
   51MOL    H9332193   7.059   1.174   4.720 -0.1684 -0.9555 -0.5811
   51MOL    H9432194   7.182   1.059   4.699  2.2668  0.4124 -4.5232
   51MOL    H9532195   7.177   1.228   4.508 -1.4379  0.4211  0.8375
   51MOL    H9632196   7.338   1.224   4.609  0.0730  0.5743 -1.7592
   51MOL    H9732197   7.133   1.431   4.658 -0.0114 -1.4352  0.5526
   51MOL    C9832198   7.318   1.474   4.612 -0.0463  0.9333  0.6161
   51MOL    O9932199   7.429   1.441   4.569 -0.3712  0.5060 -0.3690
   51MOL   C10032200   7.286   1.615   4.666 -0.0803  0.2768  0.2953
   51MOL   C10132201   7.407   1.692   4.728  0.0206  0.9013 -0.0289
   51MOL   C10232202   7.473   1.635   4.850 -0.6377  0.5740 -0.4015
   51MOL   C10332203   7.622   1.653   4.871  0.2761  0.0844 -1.0344
   51MOL   C10432204   7.664   1.778   4.951 -0.2202  0.8915  0.6410
   51MOL   O10532205   7.619   1.784   5.070 -0.0326  0.4284 -0.2512
   51MOL   N10632206   0.045   1.864   4.890  0.2803  0.5370  0.9268
   51MOL   C10732207   0.081   1.998   4.937  0.5662  0.2469  0.2671
   51MOL   C10832208   0.233   2.018   4.948  0.6976 -0.4286 -0.3743
   51MOL   C10932209   0.259   2.141   5.034 -0.3076 -0.7547 -0.5390
   51MOL   C11032210   0.280   2.110   5.188 -0.1755  1.3679  0.0746
   51MOL   N11132211   0.326   2.229   5.259 -0.5051 -0.3908 -0.2329
   51MOL   H11232212   7.241   1.668   4.582 -2.3114 -0.7197  0.8222
   51MOL   H11332213   7.215   1.596   4.746  0.4488 -3.2923 -0.0004
   51MOL   H11432214   7.480   1.692   4.647  0.2444  1.1435  0.1757
   51MOL   H11532215   7.384   1.798   4.736  1.4294  1.2851 -0.8549
   51MOL   H11632216   7.464   1.527   4.846  0.0442  0.5294 -0.8908
   51MOL   H11732217   7.416   1.676   4.934 -0.0913 -0.4253  0.4705
   51MOL   H11832218   7.680   1.653   4.778 -0.4050 -1.6487 -1.4852
   51MOL   H11932219   7.662   1.567   4.926 -0.9165 -0.4111 -0.9237
   51MOL   H12032220   0.067   1.834   4.796 -0.8032  0.6078  0.6354
   51MOL   H12132221   0.041   1.995   5.038  0.8267  1.5310  0.4083
   51MOL   H12232222   0.026   2.070   4.876  3.0001  2.4357  0.5814
   51MOL   H12332223   0.282   1.931   4.990 -1.4996 -1.5319 -0.0541
   51MOL   H12432224   0.296   2.028   4.859  1.7958  1.4462  0.5572
   51MOL   H12532225   0.178   2.214   5.025 -2.5813 -2.8664  1.9009
   51MOL   H12632226   0.348   2.197   5.007 -0.9889  0.3551 -0.5591
   51MOL   H12732227   0.343   2.022   5.197 -2.4420 -0.2083  0.8654
   51MOL   H12832228   0.194   2.069   5.241  0.6401 -0.1209  0.2668
   51MOL   H12932229   0.275   2.315   5.242 -1.7814 -0.7834  1.5158
   51MOL   C13032230   0.423   2.224   5.349 -0.1691  0.0124  0.5902
   51MOL   O13132231   0.479   2.115   5.366  0.3567  0.4509  0.1250
   51MOL   C13232232   0.455   2.364   5.414 -0.1133 -0.0688  0.3974
   51MOL   C13332233   0.605   2.397   5.434  0.2846 -0.9183 -0.2946
   51MOL   C13432234   0.692   2.278   5.489 -0.0508 -0.0074 -0.4028
   51MOL   C13532235   0.814   2.326   5.571  0.6633 -0.2077 -0.6510
   51MOL   C13632236   0.925   2.383   5.484 -0.6501 -0.7403  0.4701
   51MOL   O13732237   0.898   2.473   5.404 -0.3497  0.0336  0.0964
   51MOL   N13832238   1.045   2.321   5.495  0.0687 -0.4045  0.1885
   51MOL   C13932239   1.147   2.350   5.394 -0.5515 -0.1330  0.2798
   51MOL   C14032240   1.268   2.425   5.453 -0.2121 -0.0634 -0.2524
   51MOL   C14132241   1.234   2.568   5.527 -0.3712 -0.0716 -0.0403
   51MOL   C14232242   1.212   2.694   5.438 -0.4760  0.4819  0.0572
   51MOL   N14332243   1.110   2.661   5.338 -0.4159  0.1576 -0.1966
   51MOL   H14432244   0.403   2.444   5.362  0.5012  0.2367  0.2521
   51MOL   H14532245   0.413   2.354   5.514 -0.7705  0.1037  0.1379
   51MOL   H14632246   0.642   2.427   5.336  1.3893  1.9632  0.9544
   51MOL   H14732247   0.609   2.479   5.505 -1.0339 -1.6072  0.5853
   51MOL   H14832248   0.716   2.210   5.407  0.4783 -1.2838  0.7929
   51MOL   H14932249   0.640   2.213   5.559  1.2595  1.9659  2.5326
   51MOL   H15032250   0.848   2.241   5.630  1.6730  1.5226  1.3159
   51MOL   H15132251   0.785   2.402   5.643 -1.5336 -1.5055 -0.0878
   51MOL   H15232252   1.065   2.240   5.552  0.1789 -0.5387 -0.0415
   51MOL   H15332253   1.112   2.414   5.313 -0.3554  0.3626  0.5782
   51MOL   H15432254   1.170   2.263   5.333 -1.6782 -0.3404  0.1485
   51MOL   H15532255   1.327   2.363   5.521 -1.4395 -0.0713  0.8141
   51MOL   H15632256   1.334   2.432   5.367  0.9535 -0.4755  0.5946
   51MOL   H15732257   1.315   2.601   5.592 -1.6095  2.0852  0.4520
   51MOL   H15832258   1.156   2.558   5.603 -1.8694  2.6233 -1.1483
   51MOL   H15932259   1.309   2.726   5.399 -0.3464 -0.8229 -0.7361
   51MOL   H16032260   1.173   2.768   5.508  0.4597  0.4028  0.6741
   51MOL   H16132261   1.030   2.609   5.369  0.1282 -0.0259  0.9443
   51MOL   C16232262   1.122   2.675   5.206 -0.3418  0.8259  0.2218
   51MOL   O16332263   1.217   2.733   5.158 -0.0315 -0.0682  0.0222
   51MOL   C16432264   1.009   2.623   5.116 -0.4169  0.6905  0.3793
   51MOL   C16532265   0.996   2.690   4.977 -0.6965  0.8259  0.1945
   51MOL   C16632266   0.885   2.629   4.889  0.2735  0.4619  0.2591
   51MOL   C16732267   0.903   2.664   4.740 -0.0257 -0.2270  0.1963
   51MOL   C16832268   0.864   2.546   4.648 -0.0672  0.0119 -0.0955
   51MOL   O16932269   0.841   2.432   4.694 -0.0253 -0.8727 -0.0164
   51MOL   N17032270   0.886   2.558   4.516  1.3475 -0.2737 -0.3149
   51MOL   C17132271   0.882   2.686   4.444  0.5330  0.1949  0.5207
   51MOL   C17232272   0.733   2.718   4.418  0.2849 -0.4565  0.0424
   51MOL   C17332273   0.699   2.857   4.364 -0.6468 -0.1643 -0.2381
   51MOL   C17432274   0.544   2.874   4.370 -0.2749  0.2504 -0.4787
   51MOL   N17532275   0.501   2.995   4.312 -0.4693 -0.2502  0.3195
   51MOL   H17632276   1.032   2.518   5.097 -0.2670  0.5723  1.2232
   51MOL   H17732277   0.915   2.644   5.166 -0.1380 -1.9001  2.1112
   51MOL   H17832278   0.994   2.799   4.976  1.5557  0.8855 -0.2007
   51MOL   H17932279   1.088   2.668   4.923 -1.9782  1.1794 -2.2237
   51MOL   H18032280   0.794   2.677   4.924 -0.2412 -0.5234  0.2745
   51MOL   H18132281   0.869   2.522   4.903  2.7280  0.0687  0.3007
   51MOL   H18232282   1.003   2.704   4.720 -0.0627 -0.3325 -0.2012
   51MOL   H18332283   0.836   2.749   4.727 -2.1698 -1.2363  4.0836
   51MOL   H18432284   0.883   2.475   4.459 -1.1291 -1.2590  1.1763
   51MOL   H18532285   0.938   2.698   4.351 -3.8405  0.7932 -2.1790
   51MOL   H18632286   0.914   2.769   4.508 -2.3328  1.2982  0.6258
   51MOL   H18732287   0.691   2.642   4.352  0.8339  0.8437 -1.8569
   51MOL   H18832288   0.670   2.720   4.507 -1.7694 -1.9372 -1.3150
   51MOL   H18932289   0.746   2.854   4.266  0.2849  0.1440  0.1996
   51MOL   H19032290   0.744   2.942   4.416  1.1188 -1.5078  0.4907
   51MOL   H19132291   0.508   2.883   4.472  1.4917  1.0469  0.0902
   51MOL   H19232292   0.497   2.782   4.334 -1.2285  0.2082  0.8346
   51MOL   H19332293   0.456   3.064   4.371  1.1822  1.1762 -0.0489
   51MOL   C19432294   0.539   3.053   4.197  0.3972  0.8507 -0.5214
   51MOL   O19532295   0.587   2.994   4.104  0.0245  0.0449  0.0052
   51MOL   C19632296   0.495   3.201   4.181  0.2084 -0.2719 -0.0955
   51MOL   C19732297   0.575   3.315   4.239  0.0343 -0.3390 -0.9768
   51MOL   C19832298   0.685   3.379   4.150 -0.4699 -0.3517  0.0209
   51MOL   C19932299   0.765   3.494   4.219 -0.3701  0.4648  0.2323
   51MOL   C20032300   0.823   3.460   4.358 -0.7605  0.2414 -0.2239
   51MOL   O20132301   0.939   3.428   4.359 -0.4151  0.4567 -0.5396
   51MOL   N20232302   0.750   3.463   4.467  0.1965  0.4796 -0.1801
   51MOL   C20332303   0.795   3.455   4.608  0.1785  0.4048  0.2014
   51MOL   C20432304   0.770   3.324   4.678  0.0259  0.0957  0.3418
   51MOL   C20532305   0.837   3.202   4.616 -0.2897 -0.5015  0.4647
   51MOL   C20632306   0.842   3.080   4.714 -0.1015  0.4881 -0.1092
   51MOL   N20732307   0.958   3.087   4.805  0.0326 -0.0444  0.9804
   51MOL   H20832308   0.476   3.230   4.077 -2.0399  0.1794  0.4175
   51MOL   H20932309   0.398   3.206   4.231  1.1364 -0.5899  1.7605
   51MOL   H21032310   0.502   3.392   4.264 -1.1993 -1.2274 -1.8033
   51MOL   H21132311   0.621   3.288   4.334  0.5308  0.2928 -1.0382
   51MOL   H21232312   0.646   3.421   4.058  0.5165 -0.9508 -0.6855
   51MOL   H21332313   0.754   3.300   4.119 -2.3005 -1.4089 -1.4423
   51MOL   H21432314   0.703   3.582   4.238 -1.2423 -0.4410  1.6579
   51MOL   H21532315   0.844   3.519   4.149 -0.4371 -1.0145 -0.3925
   51MOL   H21632316   0.653   3.487   4.449 -0.3171 -0.1725  1.5451
   51MOL   H21732317   0.742   3.536   4.659 -0.1508 -1.1090  2.3329
   51MOL   H21832318   0.901   3.479   4.619  0.5403 -0.9222 -0.2959
   51MOL   H21932319   0.806   3.344   4.779 -0.9990  0.1204  0.7086
   51MOL   H22032320   0.666   3.301   4.703  0.4674 -1.1805  0.9909
   51MOL   H22132321   0.939   3.218   4.582 -0.3808  0.2001  0.5255
   51MOL   H22232322   0.778   3.168   4.530  0.0460 -1.8470  0.7456
   51MOL   H22332323   0.853   2.988   4.657 -0.5256  0.3002  0.1130
   51MOL   H22432324   0.746   3.076   4.764  0.1383 -1.2398  0.2480
   51MOL   H22532325   0.956   3.157   4.878  0.0192  0.7174  0.2535
   51MOL   C22632326   1.077   3.026   4.788 -0.1076  0.2073 -0.3835
   51MOL   O22732327   1.100   2.935   4.708  0.5019 -0.0863 -0.2434
   51MOL   C22832328   1.193   3.085   4.860 -0.8641  0.7077  0.1880
   51MOL   C22932329   1.335   3.021   4.839 -0.1806  0.4855 -0.6279
   51MOL   C23032330   1.366   2.879   4.903 -0.2920  0.2664  0.0750
   51MOL   C23132331   1.420   2.766   4.806 -0.2733 -0.2773 -0.3618
   51MOL   C23232332   1.482   2.652   4.889  0.5542 -0.0518 -0.6284
   51MOL   O23332333   1.585   2.601   4.853  0.2409  0.2283 -0.1927
   51MOL   N23432334   1.420   2.617   4.998 -0.4042  0.2549 -0.0170
   51MOL   C23532335   1.461   2.495   5.079 -0.3703 -0.6161  0.0181
   51MOL   C23632336   1.585   2.511   5.167 -0.0119 -0.3026  0.0467
   51MOL   C23732337   1.569   2.640   5.254 -0.8327 -0.1751  0.6576
   51MOL   C23832338   1.677   2.647   5.366  0.2560 -0.0254 -0.3811
   51MOL   N23932339   1.639   2.743   5.466 -0.3604 -0.5900  0.4052
   51MOL   H24032340   1.199   3.191   4.839  1.4977  0.6874  0.6969
   51MOL   H24132341   1.175   3.083   4.967  2.0944 -0.6591  0.7035
   51MOL   H24232342   1.352   3.015   4.731  1.8689 -1.3777 -0.2368
   51MOL   H24332343   1.410   3.093   4.871  0.7083  0.2961 -2.2323
   51MOL   H24432344   1.274   2.837   4.945  0.3182  0.2819  1.4634
   51MOL   H24532345   1.440   2.882   4.983 -0.2437 -1.2162  0.0878
   51MOL   H24632346   1.493   2.816   4.742  0.2216 -0.5518 -0.0229
   51MOL   H24732347   1.347   2.722   4.738  3.5644 -2.5150 -3.2692
   51MOL   H24832348   1.347   2.682   5.027  0.3410  0.7669  0.7452
   51MOL   H24932349   1.486   2.423   5.000  2.1232  0.4537 -0.2195
   51MOL   H25032350   1.378   2.459   5.140 -0.8306 -0.3585 -0.4522
   51MOL   H25132351   1.607   2.421   5.225  0.0427 -0.2712  0.0742
   51MOL   H25232352   1.678   2.521   5.110 -0.5302  1.1774 -0.5592
   51MOL   H25332353   1.469   2.645   5.299 -1.4784  2.0618 -0.9270
   51MOL   H25432354   1.592   2.732   5.199  0.0975 -1.0012 -0.3530
   51MOL   H25532355   1.778   2.671   5.335 -0.4402  2.1883 -1.0653
   51MOL   H25632356   1.683   2.553   5.420  1.3969 -1.0267 -2.2159
   51MOL   H25732357   1.636   2.837   5.429  1.4303  0.0973  1.9368
   51MOL   C25832358   1.595   2.723   5.592 -0.5770 -0.1805  0.3656
   51MOL   O25932359   1.597   2.611   5.638  0.4099  0.4101  0.3421
   51MOL   C26032360   1.558   2.841   5.676 -0.1526 -0.7288  0.5323
   51MOL   C26132361   1.555   2.806   5.826 -0.6657 -0.1776 -0.2607
   51MOL   C26232362   1.448   2.721   5.885  0.7526  0.3737  0.2404
   51MOL   C26332363   1.311   2.800   5.890 -0.5175 -0.8786 -0.0319
   51MOL   C26432364   1.273   2.856   6.028  0.3611  0.2974  0.0788
   51MOL   O26532365   1.357   2.876   6.115 -0.9268  0.0562 -0.2445
   51MOL   N26632366   1.147   2.885   6.045 -0.0411  0.0082 -0.2167
   51MOL   C26732367   1.099   2.995   6.128 -0.5084  0.1596  0.3309
   51MOL   C26832368   1.103   2.963   6.281 -0.1901  0.0523  0.9678
   51MOL   C26932369   1.023   3.065   6.365 -0.3203 -0.1410  0.3600
   51MOL   C27032370   1.055   3.214   6.334 -0.2409  0.5337 -0.3797
   51MOL   N27132371   0.994   3.290   6.441 -0.1325  0.1904  0.0381
   51MOL   H27232372   1.618   2.930   5.660 -0.0279 -0.9096 -0.0483
   51MOL   H27332373   1.462   2.886   5.649 -0.0901 -1.9436 -1.9044
   51MOL   H27432374   1.654   2.763   5.845 -1.2319 -2.6869 -2.7065
   51MOL   H27532375   1.545   2.901   5.879 -0.6077  0.5824 -1.5955
   51MOL   H27632376   1.463   2.685   5.986 -0.1337 -1.8515 -0.3973
   51MOL   H27732377   1.434   2.631   5.826 -0.9558 -0.6241  2.1223
   51MOL   H27832378   1.228   2.731   5.873  0.0271 -1.7195  0.6507
   51MOL   H27932379   1.287   2.870   5.810  0.8097  0.5908  0.8385
   51MOL   H28032380   1.078   2.861   5.975 -0.4649 -0.5628  0.3904
   51MOL   H28132381   1.000   3.026   6.096  0.0276  0.1987 -1.3251
   51MOL   H28232382   1.165   3.082   6.132 -0.7636  0.3456  0.4652
   51MOL   H28332383   1.076   2.859   6.299 -1.7561  0.3199  0.3027
   51MOL   H28432384   1.207   2.975   6.310 -0.6866  3.3251  1.5997
   51MOL   H28532385   1.037   3.042   6.470  2.2866 -1.5952 -0.2529
   51MOL   H28632386   0.920   3.045   6.336  0.2364 -0.3845 -1.5502
   51MOL   H28732387   1.015   3.248   6.238  0.3967  0.0485 -0.8170
   51MOL   H28832388   1.159   3.244   6.339  0.4864 -1.9763  0.1697
   51MOL   H28932389   1.019   3.276   6.538  0.9485 -0.0770 -0.2728
   51MOL   C29032390   0.930   3.408   6.430 -0.6358  0.4207 -0.0166
   51MOL   O29132391   0.896   3.468   6.325 -0.0362  0.1603 -0.3519
   51MOL   C29232392   0.909   3.474   6.561  0.2531  0.1034 -0.3145
   51MOL   C29332393   0.787   3.567   6.557  0.2737 -0.0821  0.2224
   51MOL   C29432394   0.733   3.607   6.691 -0.0624  0.1968  0.0945
   51MOL   C29532395   0.593   3.669   6.677 -0.3550 -0.4146 -0.2052
   51MOL   C29632396   0.587   3.806   6.612  0.1339  0.1225 -0.2019
   51MOL   O29732397   0.575   3.905   6.688 -0.5909 -0.5993 -0.2576
   51MOL   N29832398   0.598   3.823   6.483  0.0175  0.2645 -0.1222
   51MOL   C29932399   0.633   3.950   6.428 -0.2359  0.0084 -0.2634
   51MOL   C30032400   0.586   3.953   6.286 -0.1006 -0.4012 -0.3080
   51MOL   C30132401   0.606   4.096   6.224  0.5424 -0.4790  1.1718
   51MOL   C30232402   0.538   4.117   6.083  0.2668  0.2651  0.3701
   51MOL   N30332403   0.400   4.090   6.091 -0.2131 -0.9405 -0.3093
   51MOL   H30432404   0.885   3.406   6.644  1.8213  0.0046  0.0647
   51MOL   H30532405   1.000   3.529   6.583  1.1099  0.2599 -3.9267
   51MOL   H30632406   0.815   3.654   6.498  0.8336  0.2450  0.9622
   51MOL   H30732407   0.707   3.524   6.496  0.6068  1.2631 -1.2138
   51MOL   H30832408   0.804   3.679   6.733  1.6353 -1.4661  0.1671
   51MOL   H30932409   0.719   3.524   6.761  3.5822 -2.2554 -1.8971
   51MOL   H31032410   0.540   3.689   6.770 -1.7495  1.5891 -1.3807
   51MOL   H31132411   0.531   3.609   6.610 -0.5603 -2.8623  2.1025
   51MOL   H31232412   0.602   3.740   6.426 -0.0789  0.8155 -0.9353
   51MOL   H31332413   0.739   3.974   6.438 -1.1486  3.5831  1.6396
   51MOL   H31432414   0.589   4.037   6.477  1.8950  1.6366 -1.1675
   51MOL   H31532415   0.646   3.886   6.224  0.2444  0.6930 -1.1781
   51MOL   H31632416   0.485   3.913   6.294  0.3681 -1.7689 -1.0649
   51MOL   H31732417   0.710   4.127   6.213  0.0574  0.8316  0.1267
   51MOL   H31832418   0.566   4.175   6.288  0.6280 -0.1528  0.8249
   51MOL   H31932419   0.590   4.046   6.019  0.9878  1.0373  0.0805
   51MOL   H32032420   0.553   4.216   6.040 -0.3600 -0.0193 -0.5250
   51MOL   H32132421   0.355   4.139   6.167  1.9813 -0.6940  0.8662
   51MOL   C32232422   0.326   4.009   6.010  0.1644  0.5192 -0.1626
   51MOL   O32332423   0.378   3.951   5.912  0.3870 -0.0539  0.0482
   51MOL   C32432424   0.180   3.987   6.043 -0.2758  0.7502 -0.3344
   51MOL   C32532425   0.109   4.124   6.016  0.0183  1.1059 -0.0544
   51MOL   C32632426   0.066   4.143   5.873  0.4928  0.0631  0.0608
   51MOL   C32732427   7.685   4.268   5.853 -0.2598  0.1116  0.0696
   51MOL   C32832428   7.622   4.280   5.712  0.1558 -0.6145  0.0075
   51MOL   O32932429   7.532   4.202   5.681 -0.0812 -0.7371 -0.6740
   51MOL   N33032430   7.660   4.383   5.633  0.0950 -0.3793  0.0658
   51MOL   C33132431   7.593   4.406   5.506 -0.3604  0.1857  0.1301
   51MOL   C33232432   7.660   4.502   5.403 -0.1573 -0.2451  0.6461
   51MOL   C33332433   7.575   4.516   5.274  0.8597 -0.1754 -0.6489
   51MOL   C33432434   7.637   4.596   5.160 -0.7823 -0.0514  0.1411
   51MOL   N33532435   0.058   4.531   5.117 -0.1642 -0.4646 -1.0439
   51MOL   H33632436   0.128   3.903   5.997  0.3376 -0.6131  1.4189
   51MOL   H33732437   0.165   3.957   6.146 -4.2843 -2.2568 -1.6689
   51MOL   H33832438   0.021   4.132   6.080  0.4195 -0.3640  0.7151
   51MOL   H33932439   0.156   4.217   6.046 -0.4732  1.0091  1.0228
   51MOL   H34032440   0.028   4.049   5.832 -0.7412 -0.2591  1.8963
   51MOL   H34132441   0.149   4.166   5.806  0.6610 -1.5630 -0.3226
   51MOL   H34232442   0.036   4.358   5.885 -1.2568 -0.0089  2.1566
   51MOL   H34332443   7.605   4.267   5.928  0.8642 -1.3954  1.2712
   51MOL   H34432444   0.036   4.441   5.662  0.8211 -0.7203 -1.1590
   51MOL   H34532445   7.504   4.455   5.544 -0.6357 -0.9119  0.9169
   51MOL   H34632446   7.554   4.311   5.470  0.7789 -0.2040 -0.0956
   51MOL   H34732447   7.678   4.593   5.459  1.6109  0.2415 -0.6430
   51MOL   H34832448   0.056   4.454   5.392  0.2293  0.4726  0.9460
   51MOL   H34932449   7.483   4.566   5.303  1.1368 -0.3970  0.6640
   51MOL   H35032450   7.533   4.420   5.245 -0.4928 -0.1815  1.2320
   51MOL   H35132451   7.661   4.699   5.186  2.2187 -1.0263  1.5749
   51MOL   H35232452   7.572   4.598   5.073 -0.0319 -0.5202 -0.4474
   51MOL   H35332453   0.063   4.430   5.124 -1.9999 -0.6529 -2.2172
   51MOL   C35432454   0.161   4.597   5.072  0.4648 -0.0879 -0.4048
   51MOL   O35532455   0.164   4.716   5.042  0.2390 -0.0335 -0.2122
   51MOL   C35632456   0.287   4.512   5.040 -1.1905  0.2613 -0.1331
   51MOL   C35732457   0.394   4.573   4.938 -0.7119 -1.2268 -0.2037
   51MOL   C35832458   0.501   4.478   4.889  0.2295  0.3540  0.1038
   51MOL   C35932459   0.642   4.533   4.852  0.1817 -0.2142 -0.1848
   51MOL   C36032460   0.711   4.592   4.975  0.0145  0.0443 -0.4974
   51MOL   O36132461   0.728   4.516   5.069  0.0919 -0.0616 -0.2377
   51MOL   N36232462   0.748   4.726   4.977 -0.6569  0.0875  0.2872
   51MOL   C36332463   0.804   4.795   5.093 -0.3096  0.9134  1.6800
   51MOL   C36432464   0.924   4.878   5.051  0.3561 -0.4070 -0.1002
   51MOL   C36532465   1.022   4.820   4.946 -0.5654 -0.1842 -0.4754
   51MOL   C36632466   1.088   4.692   4.994 -0.8669  0.3895  0.1451
   51MOL   N36732467   1.195   4.646   4.906 -0.0471 -0.1943  0.2597
   51MOL   H36832468   0.343   4.491   5.131 -1.3384 -3.4025 -0.8350
   51MOL   H36932469   0.246   4.425   4.989 -0.7908  0.3554 -0.6245
   51MOL   H37032470   0.350   4.608   4.844  0.1478  0.6910  0.0749
   51MOL   H37132471   0.442   4.664   4.975 -1.7129 -0.1514 -1.4891
   51MOL   H37232472   0.474   4.419   4.801  2.1615 -2.8727  1.5688
   51MOL   H37332473   0.519   4.397   4.960  1.0500  1.5413  1.2719
   51MOL   H37432474   0.637   4.615   4.781 -0.2219 -0.3850 -0.3534
   51MOL   H37532475   0.696   4.456   4.797  0.1649 -0.6133  0.3475
   51MOL   H37632476   0.756   4.771   4.887 -1.9809 -0.1641  0.0421
   51MOL   H37732477   0.839   4.723   5.167  0.4641  0.0197  0.4580
   51MOL   H37832478   0.720   4.853   5.133 -0.7312  2.8950 -1.8821
   51MOL   H37932479   0.894   4.974   5.009  2.4348 -0.4121 -1.7243
   51MOL   H38032480   0.975   4.895   5.146 -2.0517 -1.5842  1.4548
   51MOL   H38132481   1.105   4.891   4.934  3.3313 -3.9833  2.7542
   51MOL   H38232482   0.967   4.798   4.855  0.2276 -2.7129 -0.3642
   51MOL   H38332483   1.014   4.612   5.003 -0.1432 -0.3207 -0.1162
   51MOL   H38432484   1.127   4.697   5.095 -0.4460 -1.1297  0.0665
   51MOL   H38532485   1.291   4.662   4.932  0.5449 -4.1875  0.9313
   51MOL   C38632486   1.178   4.575   4.791  0.1130 -0.5691  0.3236
   51MOL   O38732487   1.073   4.519   4.759  0.1692 -0.2820 -0.5002
   51MOL   C38832488   1.297   4.554   4.704 -0.0473 -0.1437  1.2819
   51MOL   C38932489   1.298   4.617   4.563 -0.2192  0.1079  0.0108
   51MOL   C39032490   1.328   4.764   4.553 -0.4623  0.0169  0.3473
   51MOL   C39132491   1.371   4.810   4.405 -0.2902  0.4977 -0.5961
   51MOL   C39232492   1.254   4.872   4.326 -0.7724 -1.0057  0.0272
   51MOL   O39332493   1.245   5.000   4.323 -0.1793  0.4496  0.0243
   51MOL   N39432494   1.166   4.791   4.272  0.2430 -0.3192  0.1402
   51MOL   C39532495   1.046   4.835   4.205  0.4121  0.1651  0.1663
   51MOL   C39632496   1.035   4.790   4.059 -0.8576 -0.4647  0.6734
   51MOL   C39732497   0.927   4.866   3.981  0.1484 -0.4466  0.9858
   51MOL   C39832498   0.951   5.013   3.936  0.4110 -0.8727  0.4571
   51MOL   N39932499   1.066   5.033   3.855  0.3082  0.3798 -0.1450
   51MOL   H40032500   1.387   4.591   4.754  0.9563  0.0375 -0.6182
   51MOL   H40132501   1.314   4.447   4.705  1.3488  0.0700  1.5099
   51MOL   H40232502   1.382   4.570   4.512  1.0498  1.4670  0.7951
   51MOL   H40332503   1.212   4.585   4.505  1.7799 -0.7647 -2.5814
   51MOL   H40432504   1.407   4.798   4.621 -1.4210  1.2954  0.8478
   51MOL   H40532505   1.234   4.811   4.579 -1.0315  0.7546 -2.8648
   51MOL   H40632506   1.414   4.729   4.347 -0.2920 -1.2986  1.8312
   51MOL   H40732507   1.460   4.873   4.404  1.1092 -1.4466 -1.2324
   51MOL   H40832508   1.179   4.691   4.273 -1.4002 -0.5548  1.7098
   51MOL   H40932509   1.034   4.943   4.199 -2.0429 -0.1318 -0.6386
   51MOL   H41032510   0.956   4.798   4.253 -0.0114 -0.4472 -1.0692
   51MOL   H41132511   1.133   4.810   4.016 -1.0334 -2.5486 -0.8078
   51MOL   H41232512   1.021   4.682   4.058 -1.4268 -0.3891 -0.3256
   51MOL   H41332513   0.830   4.871   4.031 -0.2273 -0.7135  0.3051
   51MOL   H41432514   0.908   4.811   3.889  1.8752  1.0752 -0.3110
   51MOL   H41532515   0.961   5.080   4.021  0.6233 -0.7444  0.3301
   51MOL   H41632516   0.858   5.037   3.885  1.1585  0.3941 -0.3389
   51MOL   H41732517   1.141   4.972   3.883 -0.4104 -0.5538 -0.2138
   51MOL   C41832518   1.086   5.125   3.754 -0.2414  0.5957 -1.1100
   51MOL   O41932519   1.002   5.201   3.712 -0.1253  0.1890 -0.6613
   51MOL   C42032520   1.223   5.119   3.689  0.1913  0.2901  0.5358
   51MOL   C42132521   1.221   5.109   3.538 -0.6049  0.5414 -0.5419
   51MOL   C42232522   1.368   5.107   3.482  0.0032  0.0011 -0.0707
   51MOL   C42332523   1.385   5.085   3.332  0.5482  0.1573 -0.1196
   51MOL   C42432524   1.400   5.218   3.258 -0.2506  0.5951 -0.1943
   51MOL   O42532525   1.335   5.322   3.285  0.4078  0.3116  0.2072
   51MOL   N42632526   1.490   5.208   3.156 -0.2599 -0.0068  0.0459
   51MOL   C42732527   1.565   5.306   3.081 -0.4775 -0.4943 -0.7303
   51MOL   C42832528   1.515   5.323   2.943 -0.1411  0.4253  0.4254
   51MOL   C42932529   1.571   5.434   2.855  0.7194 -0.3972 -0.1435
   51MOL   C43032530   1.701   5.389   2.795 -0.0409  0.6479  0.1299
   51MOL   N43132531   1.685   5.297   2.681 -0.1255  0.8060 -0.3774
   51MOL   H43232532   1.275   5.208   3.723 -0.2880  1.7358 -2.4118
   51MOL   H43332533   1.277   5.032   3.728 -0.1720 -0.6067 -0.9131
   51MOL   H43432534   1.172   5.014   3.516 -0.9928  0.9012 -1.2429
   51MOL   H43532535   1.154   5.188   3.504 -2.5675  0.3822  2.7715
   51MOL   H43632536   1.414   5.027   3.540 -1.1252 -1.1502 -0.7623
   51MOL   H43732537   1.432   5.188   3.517 -1.2108  0.9230  0.0390
   51MOL   H43832538   1.302   5.041   3.278 -0.5833  3.8025 -1.5102
   51MOL   H43932539   1.468   5.015   3.319 -0.0791 -0.8998  1.5173
   51MOL   H44032540   1.517   5.118   3.119  0.7207  0.1404  0.3710
   51MOL   H44132541   1.674   5.292   3.083 -0.3865  0.2628  0.4559
   51MOL   H44232542   1.566   5.405   3.127  1.5086 -1.7907  2.2149
   51MOL   H44332543   1.520   5.226   2.893  0.3122  1.1887 -1.0365
   51MOL   H44432544   1.407   5.333   2.936 -0.0360  0.8927 -0.5050
   51MOL   H44532545   1.587   5.532   2.901  0.5270 -0.0577 -0.7868
   51MOL   H44632546   1.500   5.458   2.775 -0.2585 -0.9342  0.5557
   51MOL   H44732547   1.770   5.348   2.868  2.0877  1.6494 -1.2620
   51MOL   H44832548   1.761   5.471   2.755  0.2403  0.1771 -0.4310
   51MOL   H44932549   1.642   5.336   2.599  0.0400  1.7650 -0.0187
   51MOL   C45032550   1.734   5.166   2.669  0.1154  0.7309  0.5639
   51MOL   O45132551   1.787   5.107   2.768  0.5155 -0.4853  0.1097
   51MOL   C45232552   1.728   5.113   2.525  0.7855 -0.0117 -0.2330
   51MOL   C45332553   1.811   4.980   2.504 -0.3130  0.6295  0.0492
   51MOL   C45432554   1.731   4.862   2.550  0.0342 -0.5143 -0.0526
   51MOL   C45532555   1.793   4.729   2.502  0.2593  0.0786  0.2092
   51MOL   C45632556   1.705   4.605   2.530  0.9734  0.1743  0.6089
   51MOL   O45732557   1.734   4.537   2.630  0.1688 -0.2474 -0.5609
   51MOL   N45832558   1.622   4.555   2.435 -0.7837  0.5102  0.3845
   51MOL   C45932559   1.559   4.640   2.331  0.0156  0.6050  0.0572
   51MOL   C46032560   1.426   4.697   2.379  0.4680 -0.0269 -0.0740
   51MOL   C46132561   1.375   4.789   2.264 -0.2312  0.1989 -0.1167
   51MOL   C46232562   1.230   4.837   2.296 -0.2264 -0.5686 -1.2602
   51MOL   N46332563   1.191   4.951   2.210 -0.0989  1.2811 -0.5307
   51MOL   H46432564   1.622   5.099   2.503 -0.3717  2.8718  2.9973
   51MOL   H46532565   1.765   5.193   2.461 -1.5446  1.3419  0.0695
   51MOL   H46632566   1.829   4.966   2.397 -1.8810 -0.7774 -0.0548
   51MOL   H46732567   1.902   4.998   2.561 -0.1900  2.8309 -0.7833
   51MOL   H46832568   1.632   4.870   2.505 -1.1230  1.7902  2.7581
   51MOL   H46932569   1.710   4.858   2.657  2.0762 -3.5718  0.3049
   51MOL   H47032570   1.889   4.708   2.550  1.0222  2.3846 -0.2303
   51MOL   H47132571   1.823   4.744   2.398 -1.7548  1.3468 -0.2101
   51MOL   H47232572   1.572   4.470   2.454 -1.0373  0.1076 -2.0334
   51MOL   H47332573   1.555   4.579   2.241 -0.8868 -0.4205  0.7928
   51MOL   H47432574   1.617   4.727   2.300  1.1937  0.0545  0.6979
   51MOL   H47532575   1.354   4.616   2.390  1.3041 -0.5618  1.7688
   51MOL   H47632576   1.433   4.748   2.475 -3.9757 -0.1082  0.4021
   51MOL   H47732577   1.383   4.740   2.167  0.9716 -0.9905  0.5790
   51MOL   H47832578   1.446   4.871   2.256 -0.7144  0.5300 -1.1558
   51MOL   H47932579   1.217   4.869   2.399  1.3560 -0.4905 -1.0803
   51MOL   H48032580   1.168   4.749   2.281 -2.0259  0.7373 -1.7149
   51MOL   H48132581   1.207   5.039   2.257 -1.3705  1.0025  0.4656
   51MOL   C48232582   1.147   4.946   2.083 -0.2727  0.0280 -0.2623
   51MOL   O48332583   1.129   4.841   2.017  0.3248 -0.1021  0.4191
   51MOL   C48432584   1.113   5.078   2.008  0.1051  0.0267 -0.3076
   51MOL   C48532585   0.971   5.118   2.009  0.0365 -0.5045  0.7795
   51MOL   C48632586   0.926   5.179   2.144 -0.0235  0.4239  0.2180
   51MOL   C48732587   0.770   5.173   2.149 -0.1423  0.2654  0.4203
   51MOL   C48832588   0.719   5.242   2.280  0.5553 -0.6239  0.0330
   51MOL   O48932589   0.760   5.350   2.308  0.2094 -0.4419 -0.1064
   51MOL   N49032590   0.628   5.174   2.344 -0.3237 -0.6605  0.2416
   51MOL   C49132591   0.577   5.224   2.468 -0.4902  0.0900 -0.2416
   51MOL   C49232592   0.582   5.125   2.578 -0.3045 -0.1973  0.1702
   51MOL   C49332593   0.546   5.185   2.716  0.4328  0.4252  0.0389
   51MOL   C49432594   0.392   5.190   2.747  0.0273 -0.5600 -0.1035
   51MOL   N49532595   0.341   5.308   2.680 -0.2077 -0.1915  0.0207
   51MOL   H49632596   1.185   5.154   2.040  0.7167 -0.6420 -0.1010
   51MOL   H49732597   1.136   5.064   1.903 -1.0726 -1.8791 -0.3258
   51MOL   H49832598   0.964   5.188   1.925  0.2950 -1.2240  0.1587
   51MOL   H49932599   0.911   5.029   1.990 -0.6247  0.6487 -2.8818
   51MOL   H50032600   0.967   5.280   2.140  2.6540 -0.6608 -0.7244
   51MOL   H50132601   0.968   5.121   2.226  2.3601  1.4559 -0.2475
   51MOL   H50232602   0.734   5.071   2.146 -0.9954  0.5780 -0.5295
   51MOL   H50332603   0.732   5.231   2.065  1.0396 -1.4631 -1.3537
   51MOL   H50432604   0.598   5.084   2.309  1.2710 -1.0923 -0.0681
   51MOL   H50532605   0.477   5.256   2.439  0.1759 -0.7223 -3.6672
   51MOL   H50632606   0.616   5.322   2.496 -0.2857  0.0549 -0.4042
   51MOL   H50732607   0.516   5.041   2.554 -1.5231  0.5792  0.7980
   51MOL   H50832608   0.689   5.102   2.573 -0.4550 -0.7988 -0.2901
   51MOL   H50932609   0.581   5.288   2.721 -0.6808  0.8179 -0.1520
   51MOL   H51032610   0.605   5.127   2.788 -1.5091 -2.0974 -0.3361
   51MOL   H51132611   0.378   5.205   2.854  1.4049 -0.6221  0.1039
   51MOL   H51232612   0.329   5.101   2.741 -3.2401  1.6682 -0.0980
   51MOL   H51332613   0.279   5.280   2.605  1.0622 -0.6956 -0.8857
   51MOL   C51432614   0.349   5.438   2.707  0.2650 -0.0627  0.5167
   51MOL   O51532615   0.424   5.476   2.800 -0.5558 -0.2368  0.2186
   51MOL   C51632616   0.277   5.540   2.615  0.6363 -0.4074 -0.1233
   51MOL   C51732617   0.156   5.599   2.689 -0.5712  0.0481  0.7375
   51MOL   C51832618   0.036   5.505   2.688 -0.3251  0.1898 -0.0887
   51MOL   C51932619   7.604   5.562   2.747 -0.5470  0.4573 -0.0228
   51MOL   C52032620   7.520   5.451   2.809 -0.0156  0.0498 -0.1823
   51MOL   O52132621   7.448   5.383   2.740 -0.4631  0.3609  0.2839
   51MOL   N52232622   7.548   5.426   2.934 -0.4305 -0.0984  0.2391
   51MOL   C52332623   7.505   5.300   3.000  0.4071  0.1552  0.0680
   51MOL   C52432624   7.607   5.186   2.976 -0.2654  0.4743 -0.3657
   51MOL   C52532625   7.615   5.130   2.835  0.7781  0.6876 -0.2920
   51MOL   C52632626   7.666   4.980   2.843  0.6702 -0.2007  0.4106
   51MOL   N52732627   0.002   4.919   2.717 -0.8612  0.2634  0.3600
   51MOL   H52832628   0.335   5.629   2.589 -0.6745 -0.3008 -2.8679
   51MOL   H52932629   0.234   5.502   2.522  4.0976 -1.8049 -1.2266
   51MOL   H53032630   0.176   5.627   2.793 -0.8126  0.6420  0.6308
   51MOL   H53132631   0.124   5.691   2.638 -1.2208  1.4151  3.4983
   51MOL   H53232632   0.074   5.424   2.750 -0.2096  1.1848  1.1487
   51MOL   H53332633   0.018   5.456   2.592 -1.3044 -0.2842  0.3278
   51MOL   H53432634   7.550   5.616   2.669 -1.6580  0.8786  1.0105
   51MOL   H53532635   7.624   5.637   2.823  0.3246  0.2948 -0.0928
   51MOL   H53632636   7.616   5.485   2.980  1.2778  0.5196 -2.8895
   51MOL   H53732637   7.407   5.278   2.957  0.4480  0.1325 -0.0130
   51MOL   H53832638   7.485   5.325   3.104 -1.3056 -0.7958 -0.0106
   51MOL   H53932639   0.005   5.196   3.021  0.1422  0.0282 -1.1531
   51MOL   H54032640   7.568   5.112   3.046 -0.8030 -1.9200 -3.1094
   51MOL   H54132641   7.681   5.192   2.774  0.6884  2.7769  1.6940
   51MOL   H54232642   7.516   5.127   2.789 -0.4396  0.2525  2.2764
   51MOL   H54332643   7.586   4.918   2.884  1.7732 -0.1307  2.7453
   51MOL   H54432644   0.050   4.978   2.911 -1.3357  0.8507  3.0040
   51MOL   H54532645   0.090   4.872   2.702 -1.4564 -0.6231 -0.3486
   51MOL   C54632646   7.619   4.884   2.626 -0.1289  0.1528 -0.0502
   51MOL   O54732647   7.500   4.919   2.628  0.2730  0.1929 -0.0716
   51MOL   C54832648   7.668   4.800   2.503 -0.2345  0.7250  0.3386
   51MOL   C54932649   7.623   4.652   2.514  0.0113  0.1009 -0.3005
   51MOL   C55032650   7.593   4.577   2.386  0.6492  0.3847  0.6984
   51MOL   C55132651   7.538   4.432   2.409 -0.1652  0.3536 -0.2274
   51MOL   C55232652   7.655   4.334   2.409 -0.5338 -0.6615  0.5169
   51MOL   O55332653   0.049   4.359   2.332  0.0385 -0.4793 -0.3255
   51MOL   N55432654   7.644   4.230   2.490 -0.1315 -0.2797  0.6555
   51MOL   C55532655   0.041   4.124   2.495 -0.5974 -0.4968  0.1949
   51MOL   C55632656   7.684   3.986   2.524 -0.9054 -0.3396  0.1266
   51MOL   C55732657   7.566   3.952   2.440  0.1365 -0.2140  0.0298
   51MOL   C55832658   7.589   3.881   2.307 -0.5277 -0.2736 -1.0500
   51MOL   N55932659   7.671   3.963   2.220 -0.0122 -0.3495  0.3247
   51MOL   H56032660   7.638   4.841   2.407  1.5213  2.2375  0.3955
   51MOL   H56132661   0.076   4.795   2.504 -0.0814  3.5583  0.4587
   51MOL   H56232662   0.007   4.607   2.564 -0.6584 -0.2440  0.5423
   51MOL   H56332663   7.533   4.644   2.574  0.5048 -2.2468  0.1634
   51MOL   H56432664   7.680   4.579   2.321  0.8627  0.3262  0.9845
   51MOL   H56532665   7.512   4.635   2.341 -1.3339 -2.1987  0.7582
   51MOL   H56632666   7.482   4.393   2.325  1.0421  0.4645 -1.0965
   51MOL   H56732667   7.482   4.427   2.502 -0.5630  0.0614 -0.4879
   51MOL   H56832668   7.561   4.218   2.547  1.0250  2.0378  2.9601
   51MOL   H56932669   0.107   4.144   2.579  1.4808 -1.6700 -1.1216
   51MOL   H57032670   0.112   4.125   2.412 -0.2472 -0.1979  0.4966
   51MOL   H57132671   0.053   3.903   2.532  0.0478  0.5369  1.1050
   51MOL   H57232672   7.649   3.984   2.628  2.1173 -0.1205  1.1932
   51MOL   H57332673   7.493   4.032   2.430 -0.1625 -0.4541  0.2446
   51MOL   H57432674   7.511   3.872   2.490 -1.1087  0.5651 -0.0651
   51MOL   H57532675   7.495   3.847   2.265 -0.2892 -0.6990 -1.2444
   51MOL   H57632676   7.634   3.783   2.325  0.1674  0.0428 -1.0478
   51MOL   H57732677   0.068   3.960   2.241  0.6288  1.5267 -2.2602
   51MOL   C57832678   7.622   4.038   2.116  0.0917  1.0145  0.0294
   51MOL   O57932679   7.507   4.030   2.072  0.6412 -0.8928 -0.9321
   51MOL   C58032680   0.015   4.121   2.034 -0.3944  0.0972 -1.1301
   51MOL   C58132681   7.699   4.097   1.880  0.1988 -0.2015 -0.0736
   51MOL   C58232682   0.113   4.159   1.800 -0.6242 -0.3578 -0.5086
   51MOL   C58332683   0.122   4.135   1.648 -0.0814  0.2744  0.3689
   51MOL   C58432684   0.164   4.001   1.608 -0.8576 -0.0025 -0.1152
   51MOL   O58532685   0.246   3.939   1.679 -0.4535 -0.4763  0.8706
   51MOL   N58632686   0.117   3.964   1.490 -0.1561  0.2140 -0.7298
   51MOL   C58732687   0.151   3.831   1.433 -0.1391 -0.6092  0.1608
   51MOL   C58832688   0.115   3.827   1.288 -0.4923  0.1357  0.1018
   51MOL   C58932689   0.154   3.706   1.197  0.3217 -0.5885 -0.2288
   51MOL   C59032690   0.127   3.724   1.048  0.0321 -0.1110 -0.3922
   51MOL   N59132691   7.692   3.759   1.012  0.6441 -0.2642 -0.0474
   51MOL   H59232692   0.003   4.227   2.057  0.5927  0.1649 -0.8733
   51MOL   H59332693   0.114   4.090   2.068 -0.4523  0.6287 -0.4569
   51MOL   H59432694   0.002   3.988   1.870 -0.7776 -0.2834  0.3272
   51MOL   H59532695   7.604   4.131   1.840  0.2904 -1.9761 -1.9082
   51MOL   H59632696   0.207   4.139   1.850  0.0170 -0.7994 -1.8830
   51MOL   H59732697   0.106   4.267   1.812  0.0053 -0.3478 -0.2490
   51MOL   H59832698   0.199   4.198   1.604 -0.0045  0.5174  0.8441
   51MOL   H59932699   0.031   4.161   1.594 -0.3640 -0.1513  0.6390
   51MOL   H60032700   0.064   4.023   1.427  0.9941  2.0762 -0.0052
   51MOL   H60132701   0.106   3.756   1.498 -2.8381 -0.5681 -1.5674
   51MOL   H60232702   0.255   3.805   1.450  0.3404  1.3694  0.3756
   51MOL   H60332703   0.006   3.833   1.280 -0.4710  0.5524  0.1006
   51MOL   H60432704   0.142   3.917   1.232  0.3877 -0.3375 -0.2535
   51MOL   H60532705   0.118   3.611   1.238  0.5532 -0.3201  0.6095
   51MOL   H60632706   0.263   3.711   1.209  0.2738  2.7589 -0.8477
   51MOL   H60732707   0.135   3.629   0.995  0.8581 -0.8462  1.0130
   51MOL   H60832708   0.193   3.798   1.003  1.4194 -1.5307 -0.7329
   51MOL   H60932709   7.623   3.685   1.019 -0.7661  0.9508 -0.8493
   51MOL   C61032710   7.646   3.885   1.000 -0.4044  0.5133  0.2591
   51MOL   O61132711   0.018   3.986   0.993 -0.5119  0.1539 -0.3328
   51MOL   C61232712   7.497   3.897   0.994  0.3643 -0.0723  0.4613
   51MOL   C61332713   7.433   4.037   1.019  0.1959 -0.1090 -0.1350
   51MOL   C61432714   7.464   4.084   1.164  0.2769 -0.4987 -0.1194
   51MOL   C61532715   7.407   4.227   1.198  1.4005 -0.2742 -0.6046
   51MOL   C61632716   7.251   4.226   1.222 -0.7581  0.3471 -0.6411
   51MOL   O61732717   7.193   4.122   1.249 -0.5765 -0.4224  0.1500
   51MOL   N61832718   7.196   4.344   1.207  0.1521 -0.0193 -0.0513
   51MOL   C61932719   7.051   4.368   1.215 -0.8801  0.2590 -1.0909
   51MOL   C62032720   6.972   4.328   1.088  0.3918 -0.1176  0.8071
   51MOL   C62132721   6.822   4.362   1.111 -0.4783  0.1476  0.6109
   51MOL   C62232722   6.744   4.256   1.188 -0.5864  0.2372  0.5117
   51MOL   N62332723   6.600   4.280   1.183  0.1186  0.1206 -0.0369
   51MOL   H62432724   7.474   3.868   0.891 -1.2878 -0.0972  0.8195
   51MOL   H62532725   7.452   3.827   1.064  1.0066  1.4964  2.4768
   51MOL   H62632726   7.474   4.109   0.948 -0.7593  0.5703 -0.0124
   51MOL   H62732727   7.325   4.031   1.009  0.1328  0.0610  0.4012
   51MOL   H62832728   7.571   4.081   1.186  0.6323  0.5166 -1.6410
   51MOL   H62932729   7.430   4.009   1.236  2.4031  1.1046  2.6633
   51MOL   H63032730   7.428   4.294   1.115  2.6458  0.3630  0.2032
   51MOL   H63132731   7.450   4.267   1.290 -0.6955 -0.7163  0.5842
   51MOL   H63232732   7.251   4.414   1.159 -0.0706 -1.5432 -2.6679
   51MOL   H63332733   7.037   4.474   1.235 -0.5512 -0.2713  2.2814
   51MOL   H63432734   7.001   4.324   1.301 -1.0218 -1.4677 -2.0241
   51MOL   H63532735   7.013   4.373   0.998 -2.7029 -0.1722 -0.7149
   51MOL   H63632736   6.976   4.221   1.066 -1.2045  0.3765 -2.2176
   51MOL   H63732737   6.773   4.384   1.017 -0.4843 -0.0993  0.5569
   51MOL   H63832738   6.813   4.453   1.170  0.7064 -0.0543  1.1365
   51MOL   H63932739   6.785   4.250   1.289  2.6798 -1.3715 -0.8413
   51MOL   H64032740   6.764   4.155   1.151 -0.3213  0.1911  0.7731
   51MOL   H64132741   6.594   4.377   1.208 -1.7378 -0.1368  0.5884
   51MOL   H64232742   6.567   4.261   1.089  1.4665 -0.7235 -0.3500
   52MOL     C132743   4.928   0.228   5.654  0.1118 -0.4443  0.0180
   52MOL     O232744   4.916   0.243   5.774 -0.4384 -0.1624 -0.2732
   52MOL     C332745   5.037   0.141   5.599  0.0472 -0.5305 -0.5991
   52MOL     C432746   5.174   0.151   5.674 -0.7978  0.1330 -0.3675
   52MOL     C532747   5.251   0.285   5.667 -0.4892 -0.1793  0.5200
   52MOL     C632748   5.293   0.329   5.527  0.2984 -0.3747  0.2632
   52MOL     C732749   5.330   0.475   5.522 -0.5744 -0.0951 -0.3883
   52MOL     O832750   5.327   0.541   5.621  0.4289  0.2992  0.3448
   52MOL     N932751   5.380   0.523   5.409 -0.5620  0.1951 -0.1442
   52MOL    C1032752   5.435   0.658   5.399 -0.1682 -0.4573 -0.7277
   52MOL    C1132753   5.338   0.759   5.338  0.0254  0.1537 -0.2941
   52MOL    C1232754   5.392   0.903   5.322 -0.4181 -0.7492  0.0042
   52MOL    C1332755   5.428   0.956   5.180 -0.0757 -0.8835 -0.2189
   52MOL    N1432756   5.532   0.872   5.114 -0.2996 -0.4742  0.0152
   52MOL    H1532757   5.001   0.038   5.591 -0.4577 -0.3477 -0.7148
   52MOL    H1632758   5.041   0.178   5.496  1.1863 -0.8235 -0.6592
   52MOL    H1732759   5.157   0.139   5.781  0.7862 -0.6563 -0.1951
   52MOL    H1832760   5.241   0.073   5.637  0.2993 -0.2349  2.2765
   52MOL    H1932761   5.333   0.275   5.738  0.0884  1.8609  0.1968
   52MOL    H2032762   5.187   0.364   5.705  0.3588  2.1997 -2.7699
   52MOL    H2132763   5.212   0.301   5.459 -1.3442  0.6786  1.7628
   52MOL    H2232764   5.383   0.270   5.508 -0.2739 -1.3538  0.5306
   52MOL    H2332765   5.407   0.448   5.346 -2.0880  0.8868 -1.6774
   52MOL    H2432766   5.524   0.644   5.338 -1.7768 -3.3966 -2.5106
   52MOL    H2532767   5.455   0.696   5.500  1.4573 -0.7708 -0.9179
   52MOL    H2632768   5.292   0.727   5.244  0.7078 -0.3877 -0.4457
   52MOL    H2732769   5.255   0.773   5.407  1.7062  0.4703  1.6747
   52MOL    H2832770   5.485   0.906   5.379 -0.3963  0.9274 -0.0864
   52MOL    H2932771   5.329   0.965   5.385 -0.0498 -0.1438 -0.2133
   52MOL    H3032772   5.461   1.059   5.189 -0.4820 -0.5549 -2.2366
   52MOL    H3132773   5.335   0.961   5.123 -1.4045  2.6697  2.0866
   52MOL    H3232774   5.597   0.824   5.174 -0.7082 -0.1061  0.7642
   52MOL    H3332775   4.865   0.264   5.571 -1.1575  1.7068  1.8527
   52MOL    C3432776   5.538   0.839   4.981 -0.4669 -0.3852 -0.2117
   52MOL    O3532777   5.468   0.893   4.897 -0.2370  0.2419  0.0857
   52MOL    C3632778   5.645   0.736   4.941 -0.1173  0.1530 -0.3085
   52MOL    C3732779   5.580   0.600   4.931  1.0652  0.2203  0.0445
   52MOL    C3832780   5.676   0.504   4.867  0.1961 -0.5987  0.1868
   52MOL    C3932781   5.626   0.363   4.882 -0.6369  0.7147  0.2481
   52MOL    C4032782   5.714   0.246   4.833  0.9495 -0.6384  0.5364
   52MOL    O4132783   5.806   0.205   4.903 -0.0810 -0.3382  1.2561
   52MOL    N4232784   5.684   0.206   4.705  0.2432  0.2106  0.4993
   52MOL    C4332785   5.751   0.091   4.640  0.6311 -0.3580  0.0126
   52MOL    C4432786   5.826   0.131   4.516 -0.4132 -0.0045 -0.2262
   52MOL    C4532787   5.936   0.229   4.545  0.9756 -0.1640 -0.4429
   52MOL    C4632788   6.006   0.291   4.422 -0.5722 -0.7998 -0.0767
   52MOL    N4732789   6.126   0.355   4.461  0.1287 -0.5441 -0.2288
   52MOL    H4832790   5.693   0.764   4.847  0.8559 -1.7937 -0.4379
   52MOL    H4932791   5.720   0.738   5.020 -2.4706 -0.5059  2.0151
   52MOL    H5032792   5.541   0.584   5.031  2.3665 -0.2487  0.4951
   52MOL    H5132793   5.492   0.602   4.867  0.0440  0.3098  1.4314
   52MOL    H5232794   5.781   0.501   4.896  0.2778 -2.0905 -0.2280
   52MOL    H5332795   5.666   0.515   4.759 -0.1276 -0.6669  0.2077
   52MOL    H5432796   5.529   0.356   4.832 -0.3639  0.2985 -0.2300
   52MOL    H5532797   5.613   0.356   4.990 -0.7098 -0.1004  0.1835
   52MOL    H5632798   5.601   0.240   4.657  0.9189  1.1800 -0.0100
   52MOL    H5732799   5.672   0.022   4.610 -0.8339  0.8671  1.0289
   52MOL    H5832800   5.811   0.036   4.713  1.5918  0.2183 -0.3249
   52MOL    H5932801   5.870   0.047   4.462 -0.9796 -0.8628  0.6327
   52MOL    H6032802   5.753   0.174   4.447  0.2133 -0.4790 -1.1843
   52MOL    H6132803   6.003   0.177   4.613  0.1893 -0.8187 -0.1539
   52MOL    H6232804   5.905   0.320   4.596  1.2626  0.2836 -1.0683
   52MOL    H6332805   5.940   0.361   4.371 -0.8483 -0.6072  0.5451
   52MOL    H6432806   6.031   0.208   4.356  2.1609  0.9283 -1.3453
   52MOL    H6532807   6.126   0.422   4.537  1.6611 -0.3834 -0.3469
   52MOL    C6632808   6.237   0.341   4.390  0.3245  0.3255  0.0286
   52MOL    O6732809   6.243   0.267   4.287  0.4170 -0.0004 -0.7949
   52MOL    C6832810   6.366   0.407   4.455  0.1659  0.1378  0.2725
   52MOL    C6932811   6.345   0.541   4.528 -0.1437  0.1751 -1.0652
   52MOL    C7032812   6.304   0.655   4.435  0.2078  0.0286  0.1250
   52MOL    C7132813   6.431   0.703   4.361  0.4314 -0.8086  0.1601
   52MOL    C7232814   6.414   0.845   4.300 -1.2074  0.6747 -0.5459
   52MOL    O7332815   6.423   0.841   4.179 -0.7271 -0.0356 -0.5588
   52MOL    N7432816   6.431   0.954   4.376 -0.2825  0.0559 -0.0217
   52MOL    C7532817   6.468   1.088   4.332  0.2032  1.1843  0.2647
   52MOL    C7632818   6.380   1.147   4.222  0.1292 -0.1227 -0.1200
   52MOL    C7732819   6.427   1.290   4.201  0.7223  0.1926  0.3617
   52MOL    C7832820   6.345   1.363   4.094 -0.4123 -1.0579  0.2669
   52MOL    N7932821   6.328   1.506   4.121 -0.2370  0.1337 -0.1513
   52MOL    H8032822   6.401   0.334   4.527 -0.8731 -0.2348  0.4155
   52MOL    H8132823   6.442   0.422   4.378 -2.2854 -0.9446 -2.4566
   52MOL    H8232824   6.269   0.524   4.604  0.8954  0.1254 -0.0330
   52MOL    H8332825   6.438   0.565   4.580 -0.7286 -1.6970  0.9115
   52MOL    H8432826   6.262   0.731   4.501  1.0459 -1.1456  2.0502
   52MOL    H8532827   6.233   0.625   4.358 -0.2982 -0.2756  0.7120
   52MOL    H8632828   6.470   0.629   4.291  0.7805  0.8431 -1.4065
   52MOL    H8732829   6.517   0.715   4.428 -0.6309  1.4521  1.1607
   52MOL    H8832830   6.439   0.946   4.477  0.0901 -0.2677 -0.0740
   52MOL    H8932831   6.574   1.099   4.310  1.0108 -0.0248  3.3004
   52MOL    H9032832   6.449   1.150   4.420  0.1676  1.2152  0.2359
   52MOL    H9132833   6.407   1.108   4.123  1.0764  1.6147 -0.5689
   52MOL    H9232834   6.272   1.141   4.231  0.2584 -1.3282  0.6897
   52MOL    H9332835   6.533   1.293   4.177  1.2916 -3.6302  1.9976
   52MOL    H9432836   6.415   1.342   4.296  0.8232 -0.6097  0.8129
   52MOL    H9532837   6.249   1.314   4.079  1.1223 -4.1910  0.2800
   52MOL    H9632838   6.395   1.360   3.997  2.6059  1.9579  1.6254
   52MOL    H9732839   6.383   1.583   4.085  0.8043  0.1625  1.4253
   52MOL    C9832840   6.228   1.547   4.207 -0.7191 -0.1638 -0.0464
   52MOL    O9932841   6.164   1.460   4.275  0.3487 -0.0653  0.0632
   52MOL   C10032842   6.208   1.696   4.232 -0.2949  0.0159 -0.3988
   52MOL   C10132843   6.255   1.736   4.377 -0.9676 -0.0381  0.1414
   52MOL   C10232844   6.407   1.756   4.389 -0.2972 -0.2257 -0.0871
   52MOL   C10332845   6.461   1.808   4.527 -0.0951  0.8300 -0.5510
   52MOL   C10432846   6.452   1.701   4.634  0.6078  0.2759 -0.2896
   52MOL   O10532847   6.531   1.615   4.633 -0.1717  0.3789  0.2213
   52MOL   N10632848   6.368   1.712   4.738  0.1534 -0.2204 -0.1526
   52MOL   C10732849   6.374   1.646   4.864 -0.5680 -0.1805  0.0563
   52MOL   C10832850   6.327   1.741   4.980 -0.1575  0.9253 -0.4402
   52MOL   C10932851   6.415   1.861   4.993 -0.0116 -0.0540  0.4061
   52MOL   C11032852   6.361   1.970   5.080  0.3642  0.4154 -0.4321
   52MOL   N11132853   6.265   2.056   5.005  0.1894 -0.1734 -0.3642
   52MOL   H11232854   6.257   1.763   4.162  1.7826 -2.4692 -1.4276
   52MOL   H11332855   6.099   1.704   4.231 -0.3307 -0.3966 -1.7957
   52MOL   H11432856   6.211   1.833   4.399  1.3806  1.6973 -2.5116
   52MOL   H11532857   6.230   1.665   4.456 -2.1158  1.4585  1.1464
   52MOL   H11632858   6.443   1.819   4.308 -1.7615 -0.3407 -0.8571
   52MOL   H11732859   6.458   1.664   4.363 -0.6741 -0.7506  0.9611
   52MOL   H11832860   6.403   1.892   4.565  1.2761  1.6733 -0.2980
   52MOL   H11932861   6.564   1.844   4.520  0.9287 -1.5850  1.1962
   52MOL   H12032862   6.303   1.789   4.741 -0.2721 -0.5573 -0.7492
   52MOL   H12132863   6.467   1.594   4.888 -0.5034  0.3848  1.1127
   52MOL   H12232864   6.294   1.572   4.856 -1.8970  0.8069  3.3245
   52MOL   H12332865   6.226   1.774   4.954  0.1473  0.3333 -2.5197
   52MOL   H12432866   6.326   1.696   5.079  0.4037  0.4957 -0.6289
   52MOL   H12532867   6.442   1.909   4.899 -0.4815 -0.5372  0.0223
   52MOL   H12632868   6.504   1.817   5.037 -0.1759 -0.5865  0.2120
   52MOL   H12732869   6.443   2.038   5.103 -0.4070  1.4573 -0.7042
   52MOL   H12832870   6.319   1.932   5.172 -0.6113 -0.9301 -1.4131
   52MOL   H12932871   6.260   2.031   4.907 -1.5283  0.0635 -0.3404
   52MOL   C13032872   6.180   2.146   5.048  0.1040 -0.1250 -0.1735
   52MOL   O13132873   6.150   2.156   5.168  0.2771  0.2918 -0.5588
   52MOL   C13232874   6.112   2.242   4.941  0.2427 -0.5141 -0.7852
   52MOL   C13332875   6.011   2.336   5.002  0.5750  0.1215 -0.7094
   52MOL   C13432876   5.866   2.301   5.019 -0.4559  0.1607 -0.1238
   52MOL   C13532877   5.828   2.188   5.122 -1.0411  0.8752 -0.2372
   52MOL   C13632878   5.824   2.054   5.049  0.0370  1.2792  0.1723
   52MOL   O13732879   5.732   2.042   4.968 -0.0161 -0.3878  0.6748
   52MOL   N13832880   5.910   1.961   5.083  0.0185 -0.1045  0.7841
   52MOL   C13932881   5.937   1.832   5.032  0.0876 -0.2423 -0.4669
   52MOL   C14032882   5.986   1.740   5.148  0.0085  0.4410 -0.1684
   52MOL   C14132883   6.002   1.592   5.107 -0.3683  0.1716 -0.3033
   52MOL   C14232884   6.002   1.483   5.212 -0.0407 -0.0541  0.3007
   52MOL   N14332885   5.884   1.500   5.294 -0.4287  0.1900 -0.0147
   52MOL   H14432886   6.198   2.301   4.906  0.6331  0.2024  1.2604
   52MOL   H14532887   6.078   2.179   4.860  0.7501  1.8000 -2.8770
   52MOL   H14632888   6.057   2.375   5.092  0.4996 -0.9184 -0.2117
   52MOL   H14732889   6.019   2.427   4.943  0.7049  1.2753  1.0573
   52MOL   H14832890   5.821   2.280   4.922  2.4737  0.5342 -1.6167
   52MOL   H14932891   5.818   2.390   5.059 -0.5776 -0.7546  1.8289
   52MOL   H15032892   5.738   2.211   5.180 -1.1761  0.3495 -0.2354
   52MOL   H15132893   5.899   2.190   5.204 -1.7090  0.2186  0.3682
   52MOL   H15232894   5.972   1.982   5.161 -0.4257 -1.6398  1.5724
   52MOL   H15332895   6.006   1.826   4.948  0.3002 -0.1215 -0.3016
   52MOL   H15432896   5.841   1.798   4.993  0.4472 -2.2267  0.3176
   52MOL   H15532897   6.085   1.776   5.175  0.6576 -1.3174 -0.1422
   52MOL   H15632898   5.913   1.757   5.227  2.2241  4.3073  1.1794
   52MOL   H15732899   6.095   1.565   5.057  0.0831  0.2183  0.5073
   52MOL   H15832900   5.923   1.567   5.035 -0.3298  1.4085 -0.7790
   52MOL   H15932901   6.094   1.478   5.269  0.2787  0.3222 -0.1758
   52MOL   H16032902   6.006   1.384   5.168 -0.2946 -0.0028  0.1600
   52MOL   H16132903   5.797   1.474   5.249 -0.5530  0.1776  0.2313
   52MOL   C16232904   5.881   1.568   5.408  0.2641  0.6062  0.1455
   52MOL   O16332905   5.983   1.609   5.463  0.6382  0.2782 -1.0923
   52MOL   C16432906   5.741   1.606   5.459  0.1684  0.2178  0.2145
   52MOL   C16532907   5.714   1.589   5.609  0.3232  0.1317 -0.0843
   52MOL   C16632908   5.583   1.652   5.658 -0.1434  1.0465  0.1608
   52MOL   C16732909   5.596   1.801   5.713  0.0019 -0.0761 -0.1568
   52MOL   C16832910   5.641   1.904   5.609  0.6869  0.2309 -0.0229
   52MOL   O16932911   5.579   1.913   5.505  0.1375 -0.7259 -0.1493
   52MOL   N17032912   5.746   1.973   5.633 -0.4060 -0.3504  0.2387
   52MOL   C17132913   5.792   2.072   5.536 -0.6805 -0.3721 -0.2639
   52MOL   C17232914   5.946   2.065   5.539 -0.2961 -0.3021  0.3250
   52MOL   C17332915   6.005   1.940   5.483  0.6773  0.4159 -0.1644
   52MOL   C17432916   6.159   1.951   5.467  0.1508 -0.6825  0.1696
   52MOL   N17532917   6.217   1.821   5.431  0.4511  0.1982 -0.8488
   52MOL   H17632918   5.732   1.713   5.442  2.8924  0.2740 -1.1581
   52MOL   H17732919   5.662   1.556   5.403 -0.2606  2.5872 -1.3612
   52MOL   H17832920   5.723   1.486   5.642  0.3759 -0.1089 -0.8299
   52MOL   H17932921   5.797   1.632   5.664 -0.0054  0.4732  0.1462
   52MOL   H18032922   5.541   1.590   5.736  0.5968 -0.2998 -0.4981
   52MOL   H18132923   5.506   1.645   5.581 -0.5078 -2.5519  0.7775
   52MOL   H18232924   5.668   1.809   5.795  0.3053 -2.5056 -0.1280
   52MOL   H18332925   5.498   1.833   5.746 -0.2486 -0.5674 -0.4168
   52MOL   H18432926   5.789   1.971   5.724  0.4402 -0.5304 -0.1674
   52MOL   H18532927   5.761   2.173   5.560  0.3612 -0.5710  2.0494
   52MOL   H18632928   5.758   2.051   5.434 -0.4877 -2.8643  0.1612
   52MOL   H18732929   5.974   2.145   5.471 -0.1440  1.1660  2.0746
   52MOL   H18832930   5.984   2.077   5.640  2.7823 -1.1045 -0.7033
   52MOL   H18932931   5.957   1.916   5.388  3.3118  0.1638 -1.4640
   52MOL   H19032932   5.994   1.870   5.565 -1.0519  1.0388  0.1713
   52MOL   H19132933   6.200   2.002   5.554 -1.4764 -1.6348  1.5322
   52MOL   H19232934   6.177   2.022   5.386  0.4026 -0.6420  0.2590
   52MOL   H19332935   6.153   1.744   5.426 -1.0776  1.3604  0.2859
   52MOL   C19432936   6.346   1.794   5.421  0.2201 -0.8746  1.1049
   52MOL   O19532937   6.435   1.884   5.441 -0.5559  0.0828 -0.0535
   52MOL   C19632938   6.386   1.658   5.372 -0.6464 -0.1260  0.5076
   52MOL   C19732939   6.526   1.649   5.312  0.3946 -0.1513  0.1867
   52MOL   C19832940   6.637   1.633   5.411 -0.5433  0.3378  0.5505
   52MOL   C19932941   6.777   1.626   5.354  0.6354 -0.1237  0.0122
   52MOL   C20032942   6.833   1.767   5.304  0.7446 -0.1662 -0.3629
   52MOL   O20132943   6.826   1.806   5.186  0.1118 -0.2869 -0.6908
   52MOL   N20232944   6.884   1.839   5.401  0.2895 -0.1161 -0.1314
   52MOL   C20332945   6.940   1.971   5.400  0.1055  0.6056 -0.3282
   52MOL   C20432946   6.866   2.051   5.502 -0.1285 -0.3123 -0.5069
   52MOL   C20532947   6.712   2.075   5.482  0.5603  0.0175 -0.0328
   52MOL   C20632948   6.685   2.171   5.366  0.5194 -0.1093  0.6757
   52MOL   N20732949   6.545   2.216   5.350  0.6028  0.0614  0.3675
   52MOL   H20832950   6.389   1.581   5.449 -1.6305 -2.5423 -1.8216
   52MOL   H20932951   6.322   1.629   5.289 -0.8264 -1.0395  0.9570
   52MOL   H21032952   6.524   1.566   5.242 -2.0607 -0.1473  0.2040
   52MOL   H21132953   6.543   1.737   5.249 -1.8350 -0.4090 -0.8214
   52MOL   H21232954   6.619   1.535   5.455  1.4567  0.3113  1.3664
   52MOL   H21332955   6.636   1.704   5.494 -0.9667  0.1537  0.7034
   52MOL   H21432956   6.785   1.557   5.270  4.0167  0.5648 -0.3250
   52MOL   H21532957   6.846   1.600   5.433  0.1051 -3.8887 -0.6910
   52MOL   H21632958   6.892   1.791   5.489  2.3778 -0.6074 -0.5676
   52MOL   H21732959   6.922   2.011   5.300  2.3332  0.0643 -0.9742
   52MOL   H21832960   7.048   1.963   5.417  0.1192  3.7512  1.3825
   52MOL   H21932961   6.882   2.003   5.599 -0.9434 -0.7061 -0.5669
   52MOL   H22032962   6.915   2.146   5.522 -0.7271 -0.0587 -0.2388
   52MOL   H22132963   6.678   2.132   5.568  1.7076 -1.1812  1.2310
   52MOL   H22232964   6.656   1.982   5.471 -0.1683  0.2835  1.3080
   52MOL   H22332965   6.717   2.109   5.282 -1.7061  1.2701 -1.2683
   52MOL   H22432966   6.747   2.260   5.362  1.7215 -0.9138  1.1626
   52MOL   H22532967   6.488   2.175   5.277  0.1082  2.8634 -0.8532
   52MOL   C22632968   6.482   2.311   5.422  0.0013  0.3260 -0.4227
   52MOL   O22732969   6.540   2.371   5.508 -0.2241 -0.1383  0.4325
   52MOL   C22832970   6.334   2.340   5.375 -0.1426 -0.2701  0.4211
   52MOL   C22932971   6.297   2.478   5.419 -0.4548  0.0431  0.4864
   52MOL   C23032972   6.167   2.529   5.352  0.3762  0.1673 -0.5177
   52MOL   C23132973   6.043   2.448   5.393 -0.3996 -0.2925  0.4087
   52MOL   C23232974   5.909   2.492   5.334  0.0016  0.0026  0.3107
   52MOL   O23332975   5.907   2.566   5.237  0.1984  0.2683  0.0471
   52MOL   N23432976   5.797   2.447   5.386 -0.0554  0.0345  0.0633
   52MOL   C23532977   5.658   2.482   5.344  0.0688 -0.7300  0.5645
   52MOL   C23632978   5.606   2.593   5.433  0.0339 -0.0435  0.6620
   52MOL   C23732979   5.609   2.555   5.579 -0.2086  0.6181 -0.4826
   52MOL   C23832980   5.549   2.655   5.676 -0.1558  0.6229 -0.0866
   52MOL   N23932981   5.585   2.617   5.812 -0.2039  0.8082  0.1234
   52MOL   H24032982   6.332   2.328   5.267  2.3281  0.3483  0.2639
   52MOL   H24132983   6.272   2.261   5.417  0.4648 -1.0673 -0.1659
   52MOL   H24232984   6.307   2.504   5.525 -1.3436 -1.5358  0.9747
   52MOL   H24332985   6.378   2.541   5.381 -0.0910  1.2557  3.1214
   52MOL   H24432986   6.173   2.524   5.244 -1.5231 -0.7535 -0.5948
   52MOL   H24532987   6.155   2.634   5.379  1.4986 -0.2774  1.8552
   52MOL   H24632988   6.027   2.455   5.501 -0.1963  1.9428  0.3302
   52MOL   H24732989   6.050   2.342   5.368  3.9006  0.2812 -1.2719
   52MOL   H24832990   5.807   2.404   5.476  2.3857  2.0968  0.8509
   52MOL   H24932991   5.596   2.393   5.338 -2.8561  1.4071 -2.0403
   52MOL   H25032992   5.661   2.523   5.243 -0.6453  0.7141  1.1197
   52MOL   H25132993   5.670   2.681   5.428 -0.3119  0.1097 -1.3464
   52MOL   H25232994   5.505   2.615   5.397 -0.3596 -0.0494  1.7341
   52MOL   H25332995   5.714   2.546   5.604 -0.1129  0.6032 -0.8856
   52MOL   H25432996   5.571   2.454   5.597 -2.3018  1.3257 -0.8275
   52MOL   H25532997   5.442   2.668   5.662 -0.4195 -1.6830 -0.3693
   52MOL   H25632998   5.581   2.757   5.655  2.5278 -0.1350  0.0878
   52MOL   H25732999   5.551   2.525   5.835  0.5235 -0.2534 -2.8651
   52MOL   C25833000   5.672   2.692   5.886  1.1474  0.5373  0.1132
   52MOL   O25933001   5.716   2.806   5.853  0.0228  0.5355 -0.4590
   52MOL   C26033002   5.714   2.623   6.013  0.4005 -0.3535  0.3519
   52MOL   C26133003   5.833   2.692   6.078  0.5612 -0.1108 -0.5388
   52MOL   C26233004   5.795   2.803   6.182 -0.7441  0.5819  0.8181
   52MOL   C26333005   5.916   2.878   6.232  0.8492  0.6049 -0.1145
   52MOL   C26433006   5.889   3.011   6.299  0.1235  0.1166 -0.7634
   52MOL   O26533007   5.781   3.033   6.354 -0.3610  0.4810  0.0947
   52MOL   N26633008   5.986   3.113   6.300  0.2667 -0.3432 -0.0477
   52MOL   C26733009   5.977   3.228   6.394 -0.1126 -0.6842 -0.3339
   52MOL   C26833010   6.118   3.258   6.451  0.2685 -0.7637 -0.4111
   52MOL   C26933011   6.125   3.375   6.551 -0.2566 -0.1023 -0.1437
   52MOL   C27033012   6.155   3.508   6.483  0.5202 -0.4055 -0.0905
   52MOL   N27133013   6.172   3.611   6.582  0.6385 -0.3328  0.4665
   52MOL   H27233014   5.627   2.619   6.079 -0.3364  1.3586 -0.4894
   52MOL   H27333015   5.747   2.520   6.001  2.1936  0.3547 -1.0968
   52MOL   H27433016   5.886   2.619   6.138  0.0443  0.5838  0.7885
   52MOL   H27533017   5.900   2.736   6.004  0.8975 -0.4079 -0.4085
   52MOL   H27633018   5.757   2.742   6.263  0.6519  0.0691  1.0962
   52MOL   H27733019   5.715   2.870   6.149 -3.4527 -2.2880  1.3047
   52MOL   H27833020   5.981   2.888   6.145  2.0094  1.7712  0.8836
   52MOL   H27933021   5.963   2.818   6.309  2.0147  0.6698 -0.7719
   52MOL   H28033022   6.071   3.076   6.261 -1.1028 -1.6593 -1.8758
   52MOL   H28133023   5.903   3.203   6.470  0.0597 -1.9169 -0.5560
   52MOL   H28233024   5.954   3.319   6.339 -1.7724 -1.1021 -0.3671
   52MOL   H28333025   6.156   3.172   6.505 -0.3449 -1.0500 -0.4284
   52MOL   H28433026   6.191   3.279   6.373  0.1379  1.1110 -0.0537
   52MOL   H28533027   6.210   3.361   6.617  1.3489  0.1480 -2.1091
   52MOL   H28633028   6.035   3.381   6.612 -0.9255 -2.4170 -0.8660
   52MOL   H28733029   6.085   3.540   6.406  0.8103 -1.8344 -0.9662
   52MOL   H28833030   6.251   3.500   6.432  1.0467 -0.4523  0.8862
   52MOL   H28933031   6.267   3.634   6.610  0.0131  0.5219  1.9191
   52MOL   C29033032   6.075   3.686   6.634  0.2935 -0.0919 -0.2434
   52MOL   O29133033   5.959   3.667   6.619  0.8303  0.8205  0.4724
   52MOL   C29233034   6.125   3.811   6.709 -0.2072 -0.6004  0.0122
   52MOL   C29333035   6.024   3.880   6.804  0.2094  0.0937  0.4042
   52MOL   C29433036   5.988   3.806   6.943 -0.5183 -1.2230  0.4521
   52MOL   C29533037   5.879   3.862   7.027 -0.7791  0.3505 -0.4002
   52MOL   C29633038   5.917   3.993   7.091 -0.9755 -0.7929 -0.5483
   52MOL   O29733039   6.033   4.017   7.124 -0.2665  0.7285 -0.3102
   52MOL   N29833040   5.811   4.076   7.114 -1.0149  0.8499 -0.2696
   52MOL   C29933041   5.810   4.199   7.199 -0.6749  0.6559  0.1466
   52MOL   C30033042   5.880   4.318   7.136  0.2507  0.5386 -0.0739
   52MOL   C30133043   5.842   4.344   6.994  0.3305  0.1652 -0.0662
   52MOL   C30233044   5.891   4.485   6.942  0.0725 -0.0395  0.2738
   52MOL   N30333045   6.039   4.486   6.953  0.4240  0.7263  0.0377
   52MOL   H30433046   6.209   3.773   6.767 -0.5483  0.8139  1.4683
   52MOL   H30533047   6.175   3.870   6.632 -1.3454 -1.7374 -1.6293
   52MOL   H30633048   6.063   3.980   6.820 -0.3752  0.1371  1.6485
   52MOL   H30733049   5.938   3.882   6.737  0.7820 -0.1451 -0.3458
   52MOL   H30833050   6.082   3.796   6.998  1.3651  0.5094 -2.3376
   52MOL   H30933051   5.955   3.704   6.926  0.5394 -1.7088  1.2504
   52MOL   H31033052   5.856   3.789   7.105  1.7826 -0.2081 -0.1358
   52MOL   H31133053   5.792   3.879   6.964 -1.8169  0.1543  0.9570
   52MOL   H31233054   5.720   4.047   7.081 -1.4471  1.5216  0.3240
   52MOL   H31333055   5.856   4.176   7.295  3.2953  1.2323 -1.4938
   52MOL   H31433056   5.710   4.224   7.232 -1.2552  0.0574 -1.1151
   52MOL   H31533057   5.856   4.403   7.200  0.2527 -0.2712  1.0045
   52MOL   H31633058   5.986   4.303   7.155  0.2182  0.6491  0.2057
   52MOL   H31733059   5.737   4.328   6.970 -0.2704  1.1389  1.8167
   52MOL   H31833060   5.890   4.259   6.946 -2.2970 -1.5055  0.1547
   52MOL   H31933061   5.852   4.555   7.015 -0.2231  0.1128 -0.0248
   52MOL   H32033062   5.852   4.518   6.846 -0.6674  0.1895  0.6496
   52MOL   H32133063   6.089   4.485   7.040 -0.1623 -1.9085  0.4074
   52MOL   C32233064   6.121   4.499   6.847  0.2949  0.1086  0.2577
   52MOL   O32333065   6.078   4.507   6.733  0.1416 -0.3621 -0.1685
   52MOL   C32433066   6.271   4.497   6.883 -0.0438  0.3911  0.4071
   52MOL   C32533067   6.323   4.355   6.873 -0.7351  0.1908 -0.4908
   52MOL   C32633068   6.255   4.246   6.954  0.2795 -0.4636 -0.1676
   52MOL   C32733069   6.346   4.142   7.018  0.6896  0.3811  0.2916
   52MOL   C32833070   6.389   4.030   6.927  0.1766 -0.1530 -0.1604
   52MOL   O32933071   6.365   4.035   6.809 -0.2621 -0.1206 -0.1010
   52MOL   N33033072   6.451   3.930   6.987  0.4417  0.3871  0.7635
   52MOL   C33133073   6.496   3.805   6.925 -0.6474  0.5827  0.8854
   52MOL   C33233074   6.413   3.689   6.974  0.6904  0.1121  0.7871
   52MOL   C33333075   6.434   3.557   6.906  0.1523 -0.4755 -0.1196
   52MOL   C33433076   6.333   3.444   6.959 -0.5597 -0.2002  0.0850
   52MOL   N33533077   6.329   3.326   6.867 -0.2329  0.2620 -0.2538
   52MOL   H33633078   6.321   4.568   6.818 -0.7821  2.0097  1.5896
   52MOL   H33733079   6.273   4.529   6.987  1.9647 -0.6798  0.7134
   52MOL   H33833080   6.326   4.332   6.766 -0.2158  1.3968 -0.7347
   52MOL   H33933081   6.428   4.359   6.902 -1.2169  2.8940  1.0038
   52MOL   H34033082   6.171   4.196   6.907 -0.7124  1.3257 -0.3345
   52MOL   H34133083   6.217   4.293   7.045  1.5574  1.3752 -0.5675
   52MOL   H34233084   6.293   4.097   7.102  3.8065 -0.0398  2.1031
   52MOL   H34333085   6.436   4.183   7.063  1.2361  0.2857 -0.6943
   52MOL   H34433086   6.461   3.947   7.086 -0.9432 -0.7340  1.0951
   52MOL   H34533087   6.601   3.795   6.951 -0.1463 -1.2867 -1.6760
   52MOL   H34633088   6.484   3.816   6.817 -1.1288 -0.3282  0.8481
   52MOL   H34733089   6.448   3.673   7.076  0.3553  4.2965  1.6599
   52MOL   H34833090   6.306   3.707   6.978  1.0906  2.3417  2.6185
   52MOL   H34933091   6.538   3.531   6.924  0.2900 -1.1567 -1.7632
   52MOL   H35033092   6.424   3.572   6.798 -1.0578 -1.6483 -0.1757
   52MOL   H35133093   6.231   3.481   6.948 -0.5934 -0.4022 -0.2658
   52MOL   H35233094   6.355   3.409   7.060  0.0938 -1.8338 -0.6032
   52MOL   H35333095   6.243   3.299   6.822  0.3179  0.0381 -1.1787
   52MOL   C35433096   6.435   3.260   6.821  0.2983 -0.1689  0.2633
   52MOL   O35533097   6.550   3.276   6.869  0.0084  0.1827  0.5816
   52MOL   C35633098   6.405   3.166   6.706 -0.6261  0.1268  0.3325
   52MOL   C35733099   6.509   3.054   6.684 -0.2025 -0.1722 -0.5062
   52MOL   C35833100   6.542   2.963   6.805  0.5847 -0.3058 -0.2642
   52MOL   C35933101   6.589   2.822   6.761  0.2200 -0.2115 -0.0082
   52MOL   C36033102   6.645   2.730   6.873  0.4489  0.4122 -0.2408
   52MOL   O36133103   6.745   2.750   6.943 -0.1092 -0.2852  0.7864
   52MOL   N36233104   6.571   2.618   6.897 -0.2453  0.0248 -0.5355
   52MOL   C36333105   6.606   2.508   6.992  0.1167 -0.7457 -0.6528
   52MOL   C36433106   6.595   2.559   7.142  0.3678  0.2794 -0.2724
   52MOL   C36533107   6.453   2.588   7.192 -0.3617  0.4531 -0.2280
   52MOL   C36633108   6.379   2.459   7.234  0.2974 -0.1326 -0.0336
   52MOL   N36733109   6.237   2.498   7.265 -0.0669 -0.4215 -0.4348
   52MOL   H36833110   6.306   3.122   6.719 -0.8797  0.7661  0.5340
   52MOL   H36933111   6.385   3.229   6.619 -1.0021 -1.5660 -0.8361
   52MOL   H37033112   6.474   2.991   6.602  0.1959  1.4510 -1.9651
   52MOL   H37133113   6.602   3.102   6.654  0.3208 -0.1676  1.0476
   52MOL   H37233114   6.450   2.951   6.862 -1.2144 -1.2668 -3.2312
   52MOL   H37333115   6.621   3.010   6.864 -1.1092  2.1702  0.1209
   52MOL   H37433116   6.668   2.828   6.686 -0.0925 -2.3794 -0.5362
   52MOL   H37533117   6.512   2.765   6.709 -0.9021  0.1487  1.2323
   52MOL   H37633118   6.485   2.602   6.847  0.1056 -1.8449 -0.5672
   52MOL   H37733119   6.703   2.462   6.974  0.9135  0.2299  1.0271
   52MOL   H37833120   6.533   2.430   6.971 -0.1614 -1.7586  3.6477
   52MOL   H37933121   6.631   2.474   7.200 -0.6395  0.7206  0.9996
   52MOL   H38033122   6.660   2.645   7.155  0.6783  0.2307 -1.4034
   52MOL   H38133123   6.396   2.644   7.118  1.1977 -0.3614 -2.0701
   52MOL   H38233124   6.474   2.652   7.278  0.1388  1.0289 -0.7761
   52MOL   H38333125   6.422   2.427   7.330 -1.8918 -2.1165  0.3295
   52MOL   H38433126   6.392   2.380   7.160  3.1510 -0.0351  0.3090
   52MOL   H38533127   6.204   2.592   7.253 -1.2210 -0.6635  0.8336
   52MOL   C38633128   6.149   2.403   7.304  1.3378 -0.2568 -0.1344
   52MOL   O38733129   6.182   2.287   7.320  0.2003 -0.2889 -0.2732
   52MOL   C38833130   6.007   2.451   7.320 -0.2581 -0.4883 -0.1494
   52MOL   C38933131   5.904   2.370   7.241 -0.1836 -0.5583 -0.1415
   52MOL   C39033132   5.769   2.423   7.262  0.3250 -0.6200 -0.5432
   52MOL   C39133133   5.662   2.356   7.191  0.8580 -0.3149 -0.0593
   52MOL   C39233134   5.534   2.428   7.218 -0.6628  0.1390 -0.2317
   52MOL   O39333135   5.468   2.407   7.322  0.1012 -0.3863 -0.4610
   52MOL   N39433136   5.490   2.517   7.119 -0.0850  0.5405 -0.0424
   52MOL   C39533137   5.361   2.586   7.116 -0.9298  0.2104  0.0887
   52MOL   C39633138   5.332   2.644   6.982  0.0028  0.2840 -0.2844
   52MOL   C39733139   5.183   2.688   6.979  0.1353  0.1211  0.4393
   52MOL   C39833140   5.138   2.797   7.071 -0.6028  0.5014 -0.0052
   52MOL   N39933141   4.999   2.822   7.067  0.0298  0.4342 -0.3165
   52MOL   H40033142   5.999   2.444   7.428 -1.2501  1.7391 -0.0635
   52MOL   H40133143   5.989   2.552   7.283 -3.7537 -1.3468 -0.8875
   52MOL   H40233144   5.930   2.379   7.135 -0.1811 -0.3046 -0.1211
   52MOL   H40333145   5.907   2.264   7.265 -2.8892 -0.7815 -0.7090
   52MOL   H40433146   5.768   2.529   7.236  0.6399 -0.6996 -0.8974
   52MOL   H40533147   5.752   2.416   7.369  1.4508  2.6356 -0.0857
   52MOL   H40633148   5.653   2.251   7.218  0.4412 -0.0547  0.8261
   52MOL   H40733149   5.690   2.364   7.086  0.6579  0.3531 -0.0681
   52MOL   H40833150   5.548   2.529   7.037 -1.3871  0.4005 -0.9914
   52MOL   H40933151   5.350   2.657   7.198 -1.8134 -1.1903  1.2114
   52MOL   H41033152   5.284   2.511   7.138 -0.8415 -0.8197 -2.9195
   52MOL   H41133153   5.382   2.739   6.961 -1.7276  1.2530 -0.1151
   52MOL   H41233154   5.365   2.578   6.902 -3.6904 -0.3798 -1.3381
   52MOL   H41333155   5.118   2.603   6.995  0.9653 -0.8776 -1.3018
   52MOL   H41433156   5.158   2.722   6.878  0.1918 -0.2081  0.3155
   52MOL   H41533157   5.179   2.885   7.023 -0.1561  0.7813  0.8807
   52MOL   H41633158   5.169   2.776   7.174 -1.5763  1.0967  0.4180
   52MOL   H41733159   4.945   2.803   7.151  0.2747 -2.0389 -0.6847
   52MOL   C41833160   4.931   2.879   6.962  0.3243 -0.1388  0.7614
   52MOL   O41933161   4.985   2.908   6.856 -0.0721 -0.1799  0.2568
   52MOL   C42033162   4.785   2.894   6.983 -0.1543  0.0282 -1.1054
   52MOL   C42133163   4.708   2.791   6.901  0.0776  0.7085  0.1347
   52MOL   C42233164   4.712   2.649   6.966 -1.4526  0.8571  0.5622
   52MOL   C42333165   4.607   2.550   6.900 -0.5861 -0.2180 -0.5471
   52MOL   C42433166   4.462   2.588   6.916  0.5286 -0.8146  0.4868
   52MOL   O42533167   4.427   2.642   7.020  0.0147  0.1505  0.4757
   52MOL   N42633168   4.378   2.548   6.819  0.2994  0.4560  0.2918
   52MOL   C42733169   4.241   2.580   6.814  0.1777  0.0278  0.5850
   52MOL   C42833170   4.169   2.446   6.832 -0.1771  0.4925  0.1946
   52MOL   C42933171   4.021   2.474   6.853  0.3111 -0.2011  0.3450
   52MOL   C43033172   3.946   2.353   6.873  0.0841  0.3974  0.4377
   52MOL   N43133173   3.808   2.375   6.916 -0.5680  0.2112 -1.0283
   52MOL   H43233174   4.763   2.879   7.089  0.7488  1.7175 -0.6559
   52MOL   H43333175   4.753   2.996   6.963  1.0532  0.7281  0.3892
   52MOL   H43433176   4.607   2.825   6.880 -0.1629  1.1725  2.0363
   52MOL   H43533177   4.756   2.789   6.802 -0.4450 -0.7165 -0.1107
   52MOL   H43633178   4.681   2.648   7.071 -2.4911  0.3153  0.2586
   52MOL   H43733179   4.812   2.607   6.959 -0.9442  2.0696  0.3793
   52MOL   H43833180   4.609   2.455   6.954 -2.0367 -0.9067 -1.6834
   52MOL   H43933181   4.628   2.524   6.797  2.4185 -2.9360  0.6414
   52MOL   H44033182   4.428   2.486   6.757  0.1582 -1.3656  1.9674
   52MOL   H44133183   4.209   2.613   6.715  0.4880  0.8770  0.7618
   52MOL   H44233184   4.196   2.649   6.886 -1.6029  0.1105 -0.5772
   52MOL   H44333185   4.182   2.382   6.745  2.1273 -0.8555  1.4832
   52MOL   H44433186   4.198   2.391   6.922 -2.4590 -0.9201  0.0790
   52MOL   H44533187   3.980   2.533   6.771  1.1707 -0.9243 -0.6292
   52MOL   H44633188   4.012   2.538   6.941 -3.2341  0.3988 -0.3835
   52MOL   H44733189   3.982   2.290   6.954  1.3718  0.5191 -0.0281
   52MOL   H44833190   3.952   2.287   6.787 -2.7107  0.2259  0.3011
   52MOL   H44933191   3.777   2.347   7.008  1.7756 -1.6688 -0.7681
   52MOL   C45033192   3.710   2.418   6.840 -0.9940 -0.3621  0.3292
   52MOL   O45133193   3.731   2.455   6.725  0.0958 -0.7992  0.6625
   52MOL   C45233194   3.566   2.398   6.887  0.1574  0.2771  0.2327
   52MOL   C45333195   3.483   2.521   6.858 -0.1781 -0.6898 -0.4029
   52MOL   C45433196   3.512   2.640   6.953 -0.6704 -0.5684 -0.1571
   52MOL   C45533197   3.397   2.742   6.942  0.3437  0.6537 -0.0012
   52MOL   C45633198   3.396   2.850   7.043 -0.0083 -0.5237  0.0143
   52MOL   O45733199   3.480   2.848   7.132  0.1544  0.1449  0.4054
   52MOL   N45833200   3.308   2.944   7.032  0.1438 -0.6699 -0.1417
   52MOL   C45933201   3.312   3.070   7.110  0.1637  0.0532  0.0094
   52MOL   C46033202   3.248   3.183   7.022  0.0701  0.4649 -0.0502
   52MOL   C46133203   3.095   3.173   7.028  0.1069  0.1033  0.4622
   52MOL   C46233204   3.013   3.269   6.942 -0.0647  0.1075 -0.1564
   52MOL   N46333205   3.057   3.403   6.967  0.3895 -0.2647 -0.6783
   52MOL   H46433206   3.524   2.317   6.828 -0.4584  1.5671 -1.1454
   52MOL   H46533207   3.549   2.370   6.991 -0.4506 -1.1609 -0.2405
   52MOL   H46633208   3.492   2.550   6.754  0.5226  1.7234  0.3022
   52MOL   H46733209   3.378   2.490   6.858 -0.1632 -0.7959 -2.0694
   52MOL   H46833210   3.608   2.682   6.926 -0.8981 -0.1925 -0.3942
   52MOL   H46933211   3.525   2.594   7.051 -0.5035 -0.4093 -0.1048
   52MOL   H47033212   3.308   2.680   6.957  0.5498  1.1957  4.0658
   52MOL   H47133213   3.398   2.798   6.849  0.7119 -2.1177 -1.7047
   52MOL   H47233214   3.237   2.932   6.961  0.1326  0.6089 -0.3621
   52MOL   H47333215   3.408   3.095   7.154  0.6297  1.5767 -1.8369
   52MOL   H47433216   3.262   3.053   7.205  4.8729 -2.0607  2.2806
   52MOL   H47533217   3.285   3.280   7.056  0.3326  1.3615 -2.7737
   52MOL   H47633218   3.292   3.174   6.923 -0.1863 -1.7643  0.0156
   52MOL   H47733219   3.077   3.193   7.134 -0.6551 -0.7680  0.5042
   52MOL   H47833220   3.058   3.071   7.020 -0.3516  0.0129  3.4039
   52MOL   H47933221   2.907   3.257   6.963 -0.0755  1.0210  0.3037
   52MOL   H48033222   3.028   3.252   6.835 -1.3796 -0.3162 -0.2732
   52MOL   H48133223   3.074   3.440   7.060 -2.9206 -0.7760  0.1885
   52MOL   C48233224   3.074   3.487   6.870 -0.2389  0.5759  0.1844
   52MOL   O48333225   3.052   3.461   6.746  0.2638  0.3139 -0.2219
   52MOL   C48433226   3.121   3.625   6.913 -0.7386  0.1293  0.1133
   52MOL   C48533227   3.271   3.628   6.955 -0.0737  0.3195 -0.0671
   52MOL   C48633228   3.347   3.764   6.978  0.1302  1.3077 -0.0709
   52MOL   C48733229   3.362   3.849   6.842  0.2115  0.0594 -0.3562
   52MOL   C48833230   3.453   3.788   6.738 -0.7578 -0.6650  0.0207
   52MOL   O48933231   3.557   3.738   6.778 -0.0466 -0.1557  0.0384
   52MOL   N49033232   3.421   3.791   6.607 -0.2383 -0.3128  0.1724
   52MOL   C49133233   3.499   3.732   6.497 -0.2715 -0.2169 -0.3144
   52MOL   C49233234   3.459   3.795   6.364 -0.3395  0.2273  0.2037
   52MOL   C49333235   3.328   3.731   6.307  0.3005 -0.1931 -0.7354
   52MOL   C49433236   3.298   3.783   6.173  0.3991  0.1874 -0.3854
   52MOL   N49533237   3.158   3.746   6.129 -0.3910 -0.0959 -0.3793
   52MOL   H49633238   3.126   3.684   6.821  0.2854 -0.7675 -0.4210
   52MOL   H49733239   3.051   3.672   6.982 -0.7985 -0.8638  0.7379
   52MOL   H49833240   3.276   3.573   7.049 -2.3388  0.6329  0.2614
   52MOL   H49933241   3.324   3.573   6.878 -0.3672 -0.8152  0.5362
   52MOL   H50033242   3.447   3.741   7.016 -0.0825  0.2213 -0.1561
   52MOL   H50133243   3.290   3.814   7.057 -0.6624  0.3923 -0.0477
   52MOL   H50233244   3.400   3.950   6.857  0.2316  0.0764 -0.5257
   52MOL   H50333245   3.265   3.859   6.795 -0.8600 -1.2517  1.4930
   52MOL   H50433246   3.347   3.857   6.588  0.2883 -0.4081 -2.3456
   52MOL   H50533247   3.498   3.623   6.505 -2.3738 -0.1939 -0.1524
   52MOL   H50633248   3.602   3.765   6.513 -0.0630  1.1566 -3.9620
   52MOL   H50733249   3.448   3.903   6.377 -3.7567 -0.1462  0.8410
   52MOL   H50833250   3.544   3.786   6.295 -0.2787  2.2121 -0.0342
   52MOL   H50933251   3.260   3.756   6.388  0.1766  3.3785 -1.8409
   52MOL   H51033252   3.337   3.623   6.309 -0.3936 -0.2894 -2.3167
   52MOL   H51133253   3.375   3.738   6.111  0.1100  0.6413 -1.0731
   52MOL   H51233254   3.320   3.890   6.171 -0.2457  0.2930 -2.1081
   52MOL   H51333255   3.105   3.677   6.179  1.4491  0.0072  1.7909
   52MOL   C51433256   3.107   3.771   6.008  0.2084  0.3262 -1.1156
   52MOL   O51533257   3.155   3.845   5.923 -0.4864 -0.0495  0.2016
   52MOL   C51633258   2.972   3.710   5.975 -0.2392  0.0438  0.1523
   52MOL   C51733259   2.964   3.629   5.844 -0.2643  0.0834  0.5513
   52MOL   C51833260   3.044   3.499   5.830  1.0355 -0.0121 -0.1112
   52MOL   C51933261   3.029   3.395   5.951  0.0596 -1.3937 -0.3381
   52MOL   C52033262   2.887   3.371   5.991 -0.5898 -0.0419  0.3167
   52MOL   O52133263   2.799   3.341   5.909  0.0053 -0.0836  0.6590
   52MOL   N52233264   2.868   3.396   6.115 -0.4994 -0.3100 -0.5655
   52MOL   C52333265   2.734   3.387   6.184  0.1421 -0.3420 -0.5556
   52MOL   C52433266   2.661   3.523   6.186 -0.4231  0.5630  0.6851
   52MOL   C52533267   2.542   3.524   6.282  0.6643 -0.5161  0.5607
   52MOL   C52633268   2.484   3.664   6.286  0.7063 -0.4076  0.1622
   52MOL   N52733269   2.387   3.680   6.403  0.3786 -0.5945  0.0172
   52MOL   H52833270   2.936   3.642   6.052 -2.4002  1.5889  0.5288
   52MOL   H52933271   2.902   3.793   5.973 -0.8367 -0.4677 -0.5673
   52MOL   H53033272   2.861   3.602   5.820 -1.3725  2.9921  1.7204
   52MOL   H53133273   2.989   3.701   5.765  0.0593 -1.0631 -0.3978
   52MOL   H53233274   3.150   3.524   5.826  1.7935 -3.0603 -0.0473
   52MOL   H53333275   3.020   3.441   5.740 -0.2348 -1.6167  1.2248
   52MOL   H53433276   3.091   3.418   6.038  2.2130  1.4989 -2.5516
   52MOL   H53533277   3.059   3.296   5.916  1.1528 -0.5855 -1.7465
   52MOL   H53633278   2.943   3.430   6.174 -2.1719 -1.8712  2.6078
   52MOL   H53733279   2.756   3.369   6.289 -1.4353  2.4361  0.3123
   52MOL   H53833280   2.673   3.307   6.142  1.2961  0.0179 -3.0408
   52MOL   H53933281   2.729   3.598   6.224  0.6710  0.2413 -0.5845
   52MOL   H54033282   2.623   3.552   6.088  0.8459  1.0649  0.3242
   52MOL   H54133283   2.583   3.498   6.380  0.7327  1.1981  0.9964
   52MOL   H54233284   2.464   3.454   6.254  0.9755 -0.6783  0.0857
   52MOL   H54333285   2.438   3.709   6.198  1.1605  0.4404  0.3548
   52MOL   H54433286   2.563   3.736   6.308  0.0507 -0.2100  1.8809
   52MOL   H54533287   2.287   3.684   6.389  0.3545  2.9752  0.7651
   52MOL   C54633288   2.416   3.674   6.536 -0.2043 -0.8341 -0.0117
   52MOL   O54733289   2.535   3.659   6.575  0.3153 -0.0863 -0.1111
   52MOL   C54833290   2.303   3.680   6.635 -0.2616  0.1093  0.3351
   52MOL   C54933291   2.292   3.789   6.750 -0.4234  0.0710 -0.9331
   52MOL   C55033292   2.281   3.937   6.714 -0.2591  0.1597 -0.2193
   52MOL   C55133293   2.160   3.957   6.619  0.0486 -0.0536 -0.0743
   52MOL   C55233294   2.141   4.104   6.594  0.1104  0.2951 -0.5158
   52MOL   O55333295   2.243   4.174   6.565  0.2905  0.0451  0.0077
   52MOL   N55433296   2.021   4.164   6.583  0.1932  0.2969 -0.3503
   52MOL   C55533297   2.010   4.311   6.579  0.6517 -0.8010  0.3419
   52MOL   C55633298   1.875   4.348   6.622 -0.2724 -0.3151  0.0423
   52MOL   C55733299   1.846   4.507   6.620 -0.3336 -0.8035  0.2927
   52MOL   C55833300   1.704   4.565   6.627  0.0248 -0.4097 -0.2356
   52MOL   N55933301   1.708   4.711   6.628  0.0193  0.2866 -0.4043
   52MOL   H56033302   2.209   3.661   6.583 -0.7517  2.0648  0.4480
   52MOL   H56133303   2.320   3.588   6.690  0.1801 -0.5322 -0.8776
   52MOL   H56233304   2.206   3.750   6.804  0.6586 -1.0402  0.0430
   52MOL   H56333305   2.370   3.772   6.824 -1.2337 -1.1088 -0.3236
   52MOL   H56433306   2.380   3.966   6.681 -0.1844 -0.0525 -0.1785
   52MOL   H56533307   2.275   3.986   6.811  0.2687  0.9040 -0.5566
   52MOL   H56633308   2.068   3.909   6.653  0.3922 -0.0475  0.8882
   52MOL   H56733309   2.172   3.908   6.523 -0.7212 -1.3774  0.4954
   52MOL   H56833310   1.937   4.108   6.588  0.9197 -0.7619  0.1656
   52MOL   H56933311   2.038   4.348   6.480  1.3074 -1.2595  0.3479
   52MOL   H57033312   2.092   4.358   6.633 -1.1175  2.4303  0.3176
   52MOL   H57133313   1.797   4.313   6.554  0.7404 -0.8220 -0.8698
   52MOL   H57233314   1.858   4.310   6.722  1.7303 -0.9863  0.1493
   52MOL   H57333315   1.897   4.537   6.529 -1.4748 -1.4307 -0.5604
   52MOL   H57433316   1.896   4.548   6.708  0.0786 -0.8186  0.0665
   52MOL   H57533317   1.643   4.528   6.710 -0.1531  0.8259  0.1926
   52MOL   H57633318   1.649   4.522   6.544 -0.0958 -1.9939  0.6391
   52MOL   H57733319   1.756   4.759   6.703  1.6288 -0.6422 -0.8102
   52MOL   C57833320   1.654   4.795   6.542  0.4861 -0.0421 -0.4752
   52MOL   O57933321   1.599   4.757   6.443 -0.0143  0.1562  0.5759
   52MOL   C58033322   1.660   4.940   6.580  0.0798 -0.6012  0.5516
   52MOL   C58133323   1.613   5.046   6.478  0.4325  0.0853  0.0117
   52MOL   C58233324   1.705   5.053   6.352  0.3118 -0.1809 -0.2455
   52MOL   C58333325   1.837   5.134   6.372 -0.0842  0.3059  0.5118
   52MOL   C58433326   1.938   5.064   6.458 -0.1658  0.4469  0.0379
   52MOL   O58533327   1.949   4.937   6.460  0.5469  0.1797 -0.4242
   52MOL   N58633328   2.005   5.138   6.545  0.0700 -0.0985  0.1762
   52MOL   C58733329   2.105   5.089   6.644 -0.1480 -0.4331 -0.1153
   52MOL   C58833330   2.171   5.201   6.715 -0.3672 -0.3862 -0.2555
   52MOL   C58933331   2.259   5.136   6.825 -0.2466  0.5547  0.3296
   52MOL   C59033332   2.334   5.236   6.918  0.3448  0.0407  0.3115
   52MOL   N59133333   2.425   5.166   7.002 -0.2772 -0.2216 -0.1157
   52MOL   H59233334   1.592   4.955   6.664 -0.2235  0.6744  0.0814
   52MOL   H59333335   1.758   4.960   6.623  0.1757  1.7794 -0.6925
   52MOL   H59433336   1.506   5.040   6.459  0.4324 -1.3711  0.3928
   52MOL   H59533337   1.622   5.143   6.527  0.5652  0.3728 -0.5865
   52MOL   H59633338   1.656   5.116   6.278 -1.1025 -1.3953 -0.3799
   52MOL   H59733339   1.726   4.957   6.305  1.3346  0.6172 -1.4593
   52MOL   H59833340   1.817   5.236   6.405  0.3474  0.7455 -0.5656
   52MOL   H59933341   1.887   5.153   6.277  0.2702 -0.4601  0.5466
   52MOL   H60033342   1.979   5.234   6.564  0.7951 -0.1374  1.4000
   52MOL   H60133343   2.175   5.028   6.587  0.0605  0.8207 -1.2367
   52MOL   H60233344   2.036   5.033   6.706 -0.1242  1.0102  1.2403
   52MOL   H60333345   2.233   5.257   6.644 -3.5045  2.5593 -0.7962
   52MOL   H60433346   2.087   5.259   6.753 -1.4035  0.0278 -3.0502
   52MOL   H60533347   2.326   5.071   6.769 -0.2874  1.8923 -1.3162
   52MOL   H60633348   2.196   5.072   6.887 -1.8635  0.5949 -1.2044
   52MOL   H60733349   2.260   5.292   6.975  1.1273  0.9360  0.4630
   52MOL   H60833350   2.372   5.314   6.852  0.8099  0.4527  1.0566
   52MOL   H60933351   2.524   5.162   6.982 -0.4347  0.5391 -1.0560
   52MOL   C61033352   2.393   5.098   7.107 -0.8497  0.1333  0.3536
   52MOL   O61133353   2.272   5.077   7.142 -0.3941  0.0280  0.4715
   52MOL   C61233354   2.504   5.029   7.192  0.1989 -0.0342 -0.6349
   52MOL   C61333355   2.477   4.878   7.219 -0.6249  0.5187 -0.2712
   52MOL   C61433356   2.484   4.793   7.088  0.5117  0.1080  0.0028
   52MOL   C61533357   2.601   4.812   6.990  0.4495 -0.1173 -0.5495
   52MOL   C61633358   2.607   4.700   6.876  0.3142  0.5853 -1.3125
   52MOL   O61733359   2.504   4.698   6.803 -0.4278  0.0567 -0.1572
   52MOL   N61833360   2.709   4.615   6.865 -0.1019 -0.1411 -0.4955
   52MOL   C61933361   2.736   4.537   6.747 -0.3672  1.0506  0.5759
   52MOL   C62033362   2.882   4.492   6.743 -0.3138 -0.0056  0.3607
   52MOL   C62133363   2.930   4.417   6.626 -0.4778  0.2597 -0.0026
   52MOL   C62233364   3.071   4.365   6.653  0.0338 -0.4451 -0.1255
   52MOL   N62333365   3.171   4.468   6.635 -0.0571  0.2122  0.1055
   52MOL   H62433366   2.599   5.042   7.139  0.8038 -1.9765 -0.0690
   52MOL   H62533367   2.512   5.084   7.285 -2.1209 -1.6473  0.5608
   52MOL   H62633368   2.553   4.847   7.291 -0.0197 -1.5868 -1.7603
   52MOL   H62733369   2.377   4.868   7.260 -0.9069  0.3294 -1.0006
   52MOL   H62833370   2.392   4.819   7.036 -0.1501  0.5747  1.3865
   52MOL   H62933371   2.481   4.686   7.110 -0.3150 -0.1302 -1.1882
   52MOL   H63033372   2.693   4.805   7.049 -0.4271  2.0452  1.1257
   52MOL   H63133373   2.594   4.908   6.940  0.7502  0.8337  1.1991
   52MOL   H63233374   2.782   4.620   6.934 -0.3306  2.2572 -0.3726
   52MOL   H63333375   2.718   4.605   6.663 -1.4223 -0.3067 -0.3339
   52MOL   H63433376   2.671   4.450   6.742  0.5701  0.3995 -0.3779
   52MOL   H63533377   2.947   4.579   6.749  0.5827 -0.7340  1.2718
   52MOL   H63633378   2.910   4.433   6.830  1.4340 -0.0579 -0.2208
   52MOL   H63733379   2.941   4.487   6.543 -1.6692 -0.1072 -0.4733
   52MOL   H63833380   2.870   4.333   6.593 -0.9053  1.5667 -2.6914
   52MOL   H63933381   3.091   4.289   6.577  1.0413 -1.4129  1.0792
   52MOL   H64033382   3.097   4.330   6.753 -0.0092  0.6431  0.2658
   52MOL   H64133383   3.156   4.548   6.695 -1.2352 -1.9395  2.7919
   52MOL   H64233384   3.263   4.437   6.665 -0.1827 -0.7167 -0.4500
   53MOL     C133385   2.017   1.807   2.863 -0.5776 -0.1334 -0.3380
   53MOL     O233386   1.956   1.752   2.960  0.0678  0.8068  0.7546
   53MOL     C333387   2.152   1.751   2.819  0.1678 -0.2488  0.3941
   53MOL     C433388   2.261   1.725   2.921 -0.4909  0.0665  0.6792
   53MOL     C533389   2.272   1.826   3.033 -0.2336 -0.0659 -0.7864
   53MOL     C633390   2.316   1.757   3.170  0.0677 -0.3097  0.1101
   53MOL     C733391   2.362   1.850   3.285 -0.7297 -0.2306 -0.4344
   53MOL     O833392   2.355   1.971   3.277  0.1683  0.5443  0.1205
   53MOL     N933393   2.412   1.782   3.387 -0.0163 -0.6284 -0.1704
   53MOL    C1033394   2.487   1.844   3.496 -0.0191 -0.1523  0.3546
   53MOL    C1133395   2.403   1.906   3.605 -0.5786  0.7225  0.1140
   53MOL    C1233396   2.474   1.949   3.727 -0.5119  0.2602  0.1311
   53MOL    C1333397   2.416   1.920   3.863 -0.3842  0.1691  0.6969
   53MOL    N1433398   2.281   1.979   3.894  0.1741  0.1089 -0.1400
   53MOL    H1533399   2.134   1.666   2.753  1.4673 -0.3475  0.1463
   53MOL    H1633400   2.182   1.830   2.750  0.3724 -1.6112 -1.1084
   53MOL    H1733401   2.236   1.625   2.959  0.6632 -1.2755 -2.0001
   53MOL    H1833402   2.349   1.707   2.860 -0.3758 -0.7642  1.0748
   53MOL    H1933403   2.184   1.888   3.052 -0.2362 -0.5117  0.7170
   53MOL    H2033404   2.354   1.891   3.006 -0.8303  0.6269 -0.9329
   53MOL    H2133405   2.394   1.684   3.150  0.0930 -0.6742  1.4557
   53MOL    H2233406   2.235   1.696   3.209  0.6513 -1.8110 -0.9710
   53MOL    H2333407   2.397   1.682   3.384 -0.4921 -0.5336 -1.0079
   53MOL    H2433408   2.559   1.912   3.450  0.9069 -2.0862 -1.1211
   53MOL    H2533409   2.538   1.764   3.549 -1.3047 -1.0323  0.2807
   53MOL    H2633410   2.341   1.986   3.562  1.9356  2.3002 -0.7093
   53MOL    H2733411   2.329   1.829   3.628  1.1292 -1.2079 -0.7829
   53MOL    H2833412   2.495   2.056   3.716  1.2352 -0.1078 -0.2559
   53MOL    H2933413   2.578   1.916   3.725 -0.0161  1.7844 -1.8489
   53MOL    H3033414   2.488   1.938   3.943  1.6331 -3.8600 -0.0877
   53MOL    H3133415   2.399   1.812   3.870  1.4742 -0.2763 -1.2468
   53MOL    H3233416   2.238   2.031   3.819 -1.1672 -1.3904 -0.4528
   53MOL    H3333417   1.970   1.889   2.809 -1.3946 -0.9593 -0.9126
   53MOL    C3433418   2.222   1.967   4.011  0.3404 -0.4795 -0.0898
   53MOL    O3533419   2.272   1.917   4.108  0.8482  0.0557 -0.0812
   53MOL    C3633420   2.079   2.019   4.029  0.5297 -0.4274 -0.0963
   53MOL    C3733421   2.043   2.074   4.168  0.2120  0.0503 -0.1119
   53MOL    C3833422   2.113   2.208   4.193  0.2439 -0.6030 -0.0912
   53MOL    C3933423   2.112   2.246   4.341 -0.2637  0.2089  0.3010
   53MOL    C4033424   2.177   2.388   4.362  0.7179  0.4405 -0.3669
   53MOL    O4133425   2.154   2.478   4.280  0.2546  0.1575  0.6514
   53MOL    N4233426   2.267   2.400   4.463  0.3907  0.1366 -0.1244
   53MOL    C4333427   2.341   2.523   4.491  0.2104  0.1531  0.4726
   53MOL    C4433428   2.471   2.545   4.400 -0.3248  0.5123  0.8042
   53MOL    C4533429   2.541   2.678   4.424 -0.5755 -0.8755  0.2984
   53MOL    C4633430   2.616   2.749   4.304  0.0111  0.4013 -0.0167
   53MOL    N4733431   2.725   2.673   4.253 -0.3433 -0.2500  0.4972
   53MOL    H4833432   2.064   2.090   3.948  2.9609 -0.0230 -0.2317
   53MOL    H4933433   2.019   1.928   4.016  1.4860 -1.5401  2.8877
   53MOL    H5033434   1.937   2.080   4.194  0.0743 -3.5498  0.4435
   53MOL    H5133435   2.079   1.994   4.233  1.6457  0.6601 -0.1495
   53MOL    H5233436   2.063   2.282   4.130 -1.1777 -2.1758 -0.8259
   53MOL    H5333437   2.216   2.200   4.158 -0.3306  2.1888 -2.6733
   53MOL    H5433438   2.173   2.170   4.390 -0.1099  0.1900  0.0771
   53MOL    H5533439   2.017   2.229   4.390 -0.3324 -0.1423  0.0433
   53MOL    H5633440   2.282   2.318   4.521 -0.9534 -0.2516 -0.3207
   53MOL    H5733441   2.392   2.520   4.588  0.0617  0.7286  0.5712
   53MOL    H5833442   2.271   2.606   4.502  0.2656  0.2346  0.2127
   53MOL    H5933443   2.540   2.460   4.403 -2.5212 -1.3007  1.1119
   53MOL    H6033444   2.434   2.545   4.297 -1.0637  2.5831  1.0528
   53MOL    H6133445   2.613   2.656   4.503 -0.8804  0.7937  1.0581
   53MOL    H6233446   2.482   2.759   4.467  0.7211 -0.3237  1.0637
   53MOL    H6333447   2.654   2.843   4.342  1.6808  0.9566 -2.9037
   53MOL    H6433448   2.548   2.776   4.223  0.0535  1.8235  0.4212
   53MOL    H6533449   2.813   2.679   4.302  2.0184  1.9823 -3.6971
   53MOL    C6633450   2.734   2.602   4.136 -0.6061  0.2123  0.5643
   53MOL    O6733451   2.643   2.600   4.053 -0.0010 -0.7264  0.8927
   53MOL    C6833452   2.865   2.525   4.100 -0.8112 -0.3136 -0.1399
   53MOL    C6933453   2.913   2.560   3.960  0.1360  0.1098 -0.1612
   53MOL    C7033454   3.009   2.688   3.954  0.7885  0.0823 -0.1565
   53MOL    C7133455   2.951   2.830   3.985  0.1484  0.6046  0.3294
   53MOL    C7233456   2.863   2.871   3.872 -0.3205  0.3211 -0.4408
   53MOL    O7333457   2.911   2.939   3.785  0.5706  0.2870 -0.0765
   53MOL    N7433458   2.737   2.839   3.873 -0.4838  0.2678  0.3478
   53MOL    C7533459   2.625   2.866   3.784  0.2600 -0.0191 -0.7341
   53MOL    C7633460   2.501   2.908   3.859 -0.0744 -0.5756  0.3573
   53MOL    C7733461   2.523   3.028   3.950  0.5671 -0.8137  1.1963
   53MOL    C7833462   2.407   3.124   3.961 -0.0683  0.4563  0.2362
   53MOL    N7933463   2.405   3.224   3.855 -0.4924  0.8627  0.8366
   53MOL    H8033464   2.942   2.554   4.172 -0.5880 -1.2401 -0.0069
   53MOL    H8133465   2.856   2.417   4.097  1.2857 -0.6064  2.0964
   53MOL    H8233466   2.983   2.480   3.936  0.8703  0.9525 -0.8821
   53MOL    H8333467   2.832   2.544   3.888 -0.8412  1.7624  0.5570
   53MOL    H8433468   3.064   2.702   3.861  0.7048 -0.8795 -0.3605
   53MOL    H8533469   3.091   2.668   4.024  0.4233  1.5187  0.6965
   53MOL    H8633470   3.029   2.900   4.014 -0.0812  0.9847  0.0336
   53MOL    H8733471   2.889   2.829   4.075 -1.6075 -0.5295 -0.8581
   53MOL    H8833472   2.723   2.776   3.952 -1.0887 -0.4160 -0.3005
   53MOL    H8933473   2.600   2.780   3.721 -0.2199 -1.3472  1.2199
   53MOL    H9033474   2.655   2.946   3.716  0.1355  1.4679  0.9291
   53MOL    H9133475   2.434   2.941   3.779 -1.1271  1.5440  2.0405
   53MOL    H9233476   2.444   2.824   3.900 -1.6985 -0.6739 -2.0199
   53MOL    H9333477   2.608   3.083   3.910 -0.3614  0.0432  0.3592
   53MOL    H9433478   2.543   2.995   4.052 -1.2361 -0.2539  1.7537
   53MOL    H9533479   2.403   3.169   4.060  0.4987 -0.0499  0.4875
   53MOL    H9633480   2.314   3.068   3.966 -1.9283  2.9322 -3.6439
   53MOL    H9733481   2.464   3.306   3.859  1.7518 -0.7850  1.8934
   53MOL    C9833482   2.313   3.225   3.753  0.5656  0.1284  0.5260
   53MOL    O9933483   2.222   3.138   3.744 -0.3438 -0.2328  0.0416
   53MOL   C10033484   2.319   3.335   3.650  0.1942  0.5210 -0.7158
   53MOL   C10133485   2.177   3.391   3.624  0.1071  0.3385 -0.1293
   53MOL   C10233486   2.170   3.490   3.505  0.2345 -0.6877  0.4873
   53MOL   C10333487   2.043   3.575   3.515  1.1804 -0.1703  0.4229
   53MOL   C10433488   1.910   3.508   3.475  0.0986  0.6292  0.1869
   53MOL   O10533489   1.894   3.391   3.492 -0.1900 -0.1038 -0.2347
   53MOL   N10633490   1.809   3.581   3.419  0.9001  1.0185  0.0015
   53MOL   C10733491   1.679   3.534   3.383 -0.1684  1.5401  0.3537
   53MOL   C10833492   1.562   3.613   3.453 -0.0646  1.0610  0.0945
   53MOL   C10933493   1.544   3.577   3.600 -0.8346  0.1104 -0.2457
   53MOL   C11033494   1.444   3.669   3.676 -0.9609 -0.4820  0.1845
   53MOL   N11133495   1.334   3.713   3.589 -0.3098 -0.3406  0.1911
   53MOL   H11233496   2.380   3.417   3.688 -0.6593  1.1418 -0.6735
   53MOL   H11333497   2.354   3.302   3.553  0.3507 -0.6837 -0.2599
   53MOL   H11433498   2.110   3.308   3.599  1.1353 -0.1084 -1.4597
   53MOL   H11533499   2.140   3.429   3.719  1.3249  2.5905 -0.5210
   53MOL   H11633500   2.166   3.447   3.405  0.1287 -2.9468  1.4433
   53MOL   H11733501   2.259   3.553   3.497 -0.6254  0.2538 -2.2171
   53MOL   H11833502   2.046   3.664   3.452 -0.1625 -1.4438 -1.5093
   53MOL   H11933503   2.042   3.615   3.616 -0.6031 -2.4638  1.3615
   53MOL   H12033504   1.828   3.673   3.383 -2.8252  1.5163 -0.8316
   53MOL   H12133505   1.671   3.428   3.407 -1.0083  1.5715  0.2028
   53MOL   H12233506   1.670   3.546   3.275  2.2751  0.5267 -0.0136
   53MOL   H12333507   1.590   3.718   3.447 -3.2626  1.7939 -3.5734
   53MOL   H12433508   1.468   3.611   3.398 -0.7996  1.6033  1.3113
   53MOL   H12533509   1.641   3.586   3.649 -1.1266  3.8818 -0.2679
   53MOL   H12633510   1.508   3.474   3.604  2.0054 -0.8626  2.2466
   53MOL   H12733511   1.509   3.752   3.701  0.7677 -1.2700 -1.5105
   53MOL   H12833512   1.400   3.621   3.763  0.7336  0.7046  1.7114
   53MOL   H12933513   1.290   3.637   3.540 -0.6459  0.0241 -0.0741
   53MOL   C13033514   1.324   3.835   3.536  0.1081  0.5204 -0.3564
   53MOL   O13133515   1.366   3.941   3.587  0.5808  0.8769  0.3266
   53MOL   C13233516   1.260   3.848   3.395 -0.1900  0.9956 -0.2547
   53MOL   C13333517   1.125   3.782   3.387 -0.1139 -0.4067 -0.2205
   53MOL   C13433518   1.055   3.789   3.250  0.0937 -0.3640  0.0335
   53MOL   C13533519   0.911   3.753   3.238  0.2403 -0.4093  0.3791
   53MOL   C13633520   0.883   3.604   3.260 -0.3163  0.3759  0.5684
   53MOL   O13733521   0.950   3.522   3.193 -0.1489 -0.2565 -0.0700
   53MOL   N13833522   0.790   3.570   3.343  0.2536 -0.0612 -0.2889
   53MOL   C13933523   0.730   3.438   3.365  0.4947 -0.1678  0.0220
   53MOL   C14033524   0.594   3.448   3.424  1.4078  0.4951 -0.1066
   53MOL   C14133525   0.584   3.520   3.563  0.6460  0.3633  0.0960
   53MOL   C14233526   0.468   3.466   3.650  0.5102  0.3549 -0.0560
   53MOL   N14333527   0.424   3.562   3.744 -0.7463  0.0273 -0.7632
   53MOL   H14433528   1.252   3.952   3.366 -2.6146  0.7102 -0.7704
   53MOL   H14533529   1.326   3.801   3.322 -0.2233  0.7759 -0.1438
   53MOL   H14633530   1.130   3.675   3.409  0.2117 -0.7762 -2.0262
   53MOL   H14733531   1.064   3.824   3.467 -1.0592  0.1276 -1.2190
   53MOL   H14833532   1.113   3.740   3.172  1.4320 -1.8464  1.9001
   53MOL   H14933533   1.051   3.894   3.221  0.8012 -0.1480  0.6905
   53MOL   H15033534   0.865   3.788   3.145  1.0662  0.2647  0.2207
   53MOL   H15133535   0.852   3.811   3.308  0.1705  0.6127 -0.5062
   53MOL   H15233536   0.746   3.648   3.389 -2.5878 -0.9860 -1.3339
   53MOL   H15333537   0.796   3.386   3.434  0.0858 -2.7226 -1.4567
   53MOL   H15433538   0.729   3.382   3.271 -1.5019  1.0593 -0.7224
   53MOL   H15533539   0.527   3.511   3.365  0.5663  0.6239  0.9477
   53MOL   H15633540   0.554   3.346   3.425  1.8183  0.3314  1.8036
   53MOL   H15733541   0.578   3.628   3.552 -1.9605  0.3631  1.0637
   53MOL   H15833542   0.679   3.506   3.615 -1.3076  1.4145  4.1827
   53MOL   H15933543   0.512   3.383   3.705 -1.5783 -1.2231 -0.7356
   53MOL   H16033544   0.391   3.424   3.585  1.5345  1.1900 -1.8651
   53MOL   H16133545   0.453   3.659   3.742  0.8558 -0.3577  1.4272
   53MOL   C16233546   0.353   3.536   3.859 -0.2395 -0.0992  0.2054
   53MOL   O16333547   0.323   3.419   3.882 -0.3466  0.0501  0.2519
   53MOL   C16433548   0.316   3.654   3.950 -0.0511  0.9617  0.3141
   53MOL   C16533549   0.426   3.688   4.061  0.1047 -0.3790  0.3763
   53MOL   C16633550   0.556   3.749   4.016 -0.3699 -0.7647 -0.3151
   53MOL   C16733551   0.546   3.895   3.976 -0.5312  0.1986  0.4813
   53MOL   C16833552   0.496   3.931   3.843 -0.0868 -0.4254 -0.9434
   53MOL   O16933553   0.473   3.844   3.762  0.2245 -0.1298  0.8958
   53MOL   N17033554   0.481   4.062   3.824 -0.1689 -0.3861  0.3814
   53MOL   C17133555   0.444   4.122   3.701  0.2751  0.4291  0.1250
   53MOL   C17233556   0.404   4.270   3.717 -0.0618  0.2517  0.0184
   53MOL   C17333557   0.343   4.325   3.594 -0.4127  0.2034  0.5326
   53MOL   C17433558   0.277   4.465   3.605 -0.2553  0.0157  0.5590
   53MOL   N17533559   0.245   4.515   3.469  0.5570  0.2288  0.1297
   53MOL   H17633560   0.280   3.744   3.900  0.4959  0.3356 -1.2344
   53MOL   H17733561   0.233   3.609   4.003 -0.9802  1.7117 -0.4961
   53MOL   H17833562   0.390   3.751   4.142 -0.5721  3.4268 -2.7612
   53MOL   H17933563   0.462   3.596   4.109  0.3616  0.6096  2.1193
   53MOL   H18033564   0.601   3.686   3.940 -0.1331 -1.8048  0.6628
   53MOL   H18133565   0.618   3.744   4.106 -0.7090  2.5222  0.1648
   53MOL   H18233566   0.633   3.961   3.977 -1.5343  1.5562 -0.3556
   53MOL   H18333567   0.469   3.938   4.041 -1.0232  0.5009 -0.2846
   53MOL   H18433568   0.500   4.117   3.906 -2.9193 -0.1163  0.8926
   53MOL   H18533569   0.361   4.069   3.654 -0.2802  0.9175  0.5457
   53MOL   H18633570   0.532   4.106   3.640 -1.0280  1.2345 -2.0087
   53MOL   H18733571   0.323   4.270   3.790  1.3531 -0.8688  1.6155
   53MOL   H18833572   0.479   4.336   3.759  1.0893 -1.3958  0.5903
   53MOL   H18933573   0.261   4.264   3.556 -1.0063  2.3842 -1.8531
   53MOL   H19033574   0.416   4.325   3.513  1.4400  0.8931  2.1524
   53MOL   H19133575   0.333   4.540   3.661  1.0446 -1.9615  1.9825
   53MOL   H19233576   0.188   4.448   3.665 -0.1925  1.9280  1.2327
   53MOL   H19333577   0.169   4.463   3.428  1.0080 -0.9278  0.7647
   53MOL   C19433578   0.304   4.614   3.396  0.7925 -0.3874 -0.1015
   53MOL   O19533579   0.412   4.668   3.426  0.6045  0.6593 -0.2482
   53MOL   C19633580   0.242   4.662   3.265 -0.2514 -0.0717  0.1635
   53MOL   C19733581   0.227   4.816   3.264  0.2586  0.6031 -0.3336
   53MOL   C19833582   0.136   4.875   3.166 -0.4634  0.2134  0.7088
   53MOL   C19933583   7.691   4.846   3.191 -0.1021 -0.3891  0.0697
   53MOL   C20033584   7.612   4.937   3.283 -0.0049 -0.5097 -0.1970
   53MOL   O20133585   7.667   5.019   3.358 -0.4683  0.1955  0.4094
   53MOL   N20233586   7.481   4.932   3.269 -0.2667 -0.5357  0.0430
   53MOL   C20333587   7.381   5.022   3.327  1.2136 -0.2191  0.3816
   53MOL   C20433588   7.241   4.981   3.269  0.0182 -0.4366 -0.0293
   53MOL   C20533589   7.123   5.047   3.336  0.4654 -0.4812 -0.7935
   53MOL   C20633590   7.121   5.194   3.297 -0.4447 -0.1005 -0.2439
   53MOL   N20733591   7.018   5.267   3.370 -0.1242  0.1036 -0.1229
   53MOL   H20833592   0.296   4.613   3.184 -0.1113  1.4334 -0.6881
   53MOL   H20933593   0.141   4.622   3.272 -0.0301 -1.0263 -1.6918
   53MOL   H21033594   0.206   4.847   3.367  0.0770  1.7332 -0.7077
   53MOL   H21133595   0.326   4.858   3.246  1.9358 -2.5541  1.1202
   53MOL   H21233596   0.168   4.850   3.064  0.0749 -0.6525  1.0843
   53MOL   H21333597   0.147   4.983   3.168 -0.9663  0.2986 -0.4387
   53MOL   H21433598   7.684   4.745   3.230 -3.4847  0.0458  0.8207
   53MOL   H21533599   7.643   4.836   3.093 -0.7990  2.4175  0.0758
   53MOL   H21633600   7.444   4.845   3.231  0.0536 -1.0478  0.8907
   53MOL   H21733601   7.413   5.125   3.311  3.0871 -0.7186  0.7751
   53MOL   H21833602   7.360   5.006   3.432 -0.0053  1.2345  0.3782
   53MOL   H21933603   7.253   5.008   3.164 -0.2881 -0.4480 -0.0677
   53MOL   H22033604   7.231   4.873   3.284 -1.4908 -0.1335  1.3233
   53MOL   H22133605   7.125   5.030   3.444  1.5634  1.3141 -0.4974
   53MOL   H22233606   7.036   4.998   3.293 -0.4218  1.2729 -1.0282
   53MOL   H22333607   7.094   5.202   3.192 -1.7819 -0.4233  0.0786
   53MOL   H22433608   7.220   5.240   3.298 -0.4685 -0.0469 -0.3633
   53MOL   H22533609   6.950   5.306   3.307 -0.6748 -0.6012  0.0263
   53MOL   C22633610   7.006   5.296   3.504  0.3078 -0.6709  0.3569
   53MOL   O22733611   7.097   5.271   3.585 -0.1280  0.1928  0.0353
   53MOL   C22833612   6.883   5.373   3.551 -0.1720 -0.0539  0.4270
   53MOL   C22933613   6.763   5.284   3.566 -0.5194 -0.3357 -0.3428
   53MOL   C23033614   6.756   5.227   3.704 -0.0780  0.1868 -0.8188
   53MOL   C23133615   6.625   5.146   3.725  0.0895  0.3620 -0.1044
   53MOL   C23233616   6.499   5.239   3.750  0.3048 -0.1196  0.6781
   53MOL   O23333617   6.515   5.355   3.719  0.6027  0.4569 -0.5274
   53MOL   N23433618   6.383   5.182   3.794  1.0289  0.1741 -0.0704
   53MOL   C23533619   6.250   5.242   3.799  0.4848  1.1964 -0.6305
   53MOL   C23633620   6.169   5.195   3.678 -0.1927  0.6418 -0.4130
   53MOL   C23733621   6.227   5.244   3.549 -0.6259  0.5351 -0.3579
   53MOL   C23833622   6.148   5.186   3.434  0.4216 -0.4479 -0.3695
   53MOL   N23933623   6.186   5.249   3.307 -0.3018  0.5739  0.5418
   53MOL   H24033624   6.905   5.422   3.646  3.0159 -0.3196 -0.1086
   53MOL   H24133625   6.875   5.440   3.465  1.3573  0.3127  0.5500
   53MOL   H24233626   6.672   5.341   3.546 -1.2005 -1.3920 -0.2485
   53MOL   H24333627   6.748   5.206   3.491 -2.1675  0.7091 -1.1438
   53MOL   H24433628   6.758   5.299   3.786  2.7594 -0.2121 -0.4822
   53MOL   H24533629   6.840   5.158   3.718  0.5119  1.0144 -0.1782
   53MOL   H24633630   6.630   5.077   3.810 -3.6298  0.5948  0.3515
   53MOL   H24733631   6.604   5.088   3.635  0.0787  1.2153 -0.6596
   53MOL   H24833632   6.385   5.081   3.801  1.2444  0.3170  2.3355
   53MOL   H24933633   6.255   5.351   3.799  0.3568  1.2220 -3.0962
   53MOL   H25033634   6.206   5.210   3.893  2.2343  0.3151 -0.0939
   53MOL   H25133635   6.174   5.086   3.679  2.3446  0.6772 -2.6521
   53MOL   H25233636   6.063   5.215   3.691 -0.5082 -0.9010 -0.5549
   53MOL   H25333637   6.334   5.223   3.543 -0.5973  0.3364  0.7702
   53MOL   H25433638   6.214   5.352   3.544 -2.0791  0.3615 -0.5706
   53MOL   H25533639   6.041   5.193   3.449  0.3991 -2.5268  0.6542
   53MOL   H25633640   6.164   5.080   3.418 -2.6802 -0.9445 -0.3532
   53MOL   H25733641   6.262   5.192   3.272  1.5046  1.7139  2.5555
   53MOL   C25833642   6.138   5.347   3.235  0.2497  0.7110 -0.0999
   53MOL   O25933643   6.030   5.396   3.261  0.1752  0.6971 -0.2278
   53MOL   C26033644   6.208   5.392   3.110 -0.0748  0.4181 -0.2524
   53MOL   C26133645   6.117   5.373   2.986  0.2293 -0.3059 -0.1546
   53MOL   C26233646   6.183   5.423   2.859 -0.5982 -0.5202  0.5295
   53MOL   C26333647   6.083   5.477   2.760  0.5285 -0.5905 -0.4095
   53MOL   C26433648   6.011   5.365   2.682  0.0724  0.0090  0.1415
   53MOL   O26533649   5.906   5.321   2.735  1.0518 -0.1725 -0.5779
   53MOL   N26633650   6.041   5.338   2.560  0.0474 -0.2098 -0.0341
   53MOL   C26733651   5.970   5.225   2.497  0.0686  0.0087  1.1088
   53MOL   C26833652   5.829   5.261   2.442  0.2219  0.2660 -0.4002
   53MOL   C26933653   5.823   5.368   2.327 -0.7474  0.1166  0.4855
   53MOL   C27033654   5.892   5.317   2.196  0.0314  0.1810 -0.6829
   53MOL   N27133655   5.884   5.418   2.089  0.0374 -0.7112 -0.1877
   53MOL   H27233656   6.232   5.498   3.117  2.6026 -0.0709 -1.3079
   53MOL   H27333657   6.305   5.341   3.104  0.4508  1.3074  0.5693
   53MOL   H27433658   6.082   5.270   2.976 -0.7260  0.1265 -1.3131
   53MOL   H27533659   6.022   5.425   3.002 -0.2003 -1.2966  0.5793
   53MOL   H27633660   6.253   5.354   2.812 -0.0718 -0.9379  1.9005
   53MOL   H27733661   6.250   5.502   2.892  1.8943 -2.4937  0.3435
   53MOL   H27833662   6.131   5.537   2.682  2.8355 -2.0996 -0.1864
   53MOL   H27933663   6.007   5.538   2.809 -1.0743 -3.1556  0.4140
   53MOL   H28033664   6.112   5.388   2.509  0.6737  0.1760  1.2014
   53MOL   H28133665   5.959   5.134   2.556 -0.4509 -0.1546  0.7648
   53MOL   H28233666   6.035   5.191   2.417  0.6662 -0.4371  1.7798
   53MOL   H28333667   5.782   5.174   2.397 -1.4110  1.7228 -1.5521
   53MOL   H28433668   5.770   5.290   2.529 -0.5461 -1.5552 -0.2749
   53MOL   H28533669   5.886   5.452   2.355 -1.3550  0.7943 -0.1577
   53MOL   H28633670   5.723   5.406   2.303  0.0174  0.9808 -1.3672
   53MOL   H28733671   5.826   5.235   2.168 -0.3907  0.0999  0.5168
   53MOL   H28833672   5.997   5.299   2.218  0.0172 -1.6200 -2.0044
   53MOL   H28933673   5.805   5.480   2.099  1.0571  0.6329 -0.3609
   53MOL   C29033674   5.960   5.416   1.978 -0.5001  0.3291 -0.1158
   53MOL   O29133675   6.059   5.344   1.954 -0.0227 -0.4347  0.0499
   53MOL   C29233676   5.925   5.518   1.869  0.5306 -0.3292  0.5764
   53MOL   C29333677   5.952   5.657   1.932 -0.0295  0.0451 -0.5063
   53MOL   C29433678   5.944   5.773   1.816 -0.1829  0.3080  0.0202
   53MOL   C29533679   5.967   5.922   1.856 -0.2650  1.2361 -0.4237
   53MOL   C29633680   5.850   5.996   1.898  0.5541  0.0728  0.0198
   53MOL   O29733681   5.751   5.942   1.940 -0.2477  0.5387  0.3297
   53MOL   N29833682   5.858   6.133   1.912 -0.1141 -0.3229  0.1716
   53MOL   C29933683   5.970   6.223   1.884 -0.1758 -0.1057 -0.0760
   53MOL   C30033684   6.056   6.258   1.999  0.1894  0.5786  0.6824
   53MOL   C30133685   6.204   6.277   1.962  0.2730  0.4523  0.5372
   53MOL   C30233686   6.286   6.320   2.086  0.4550  0.2491  0.0359
   53MOL   N30333687   6.411   6.375   2.038  0.1694  0.3108 -0.1681
   53MOL   H30433688   5.989   5.503   1.782 -1.4031 -1.2743 -0.7092
   53MOL   H30533689   5.823   5.499   1.839 -0.6107  3.0255  2.1325
   53MOL   H30633690   5.890   5.669   2.021 -0.9448  1.6700 -1.3303
   53MOL   H30733691   6.054   5.664   1.969 -0.6487  1.0357  1.0625
   53MOL   H30833692   5.862   5.764   1.746 -2.4506  1.4042  2.4368
   53MOL   H30933693   6.038   5.765   1.761  0.1200  1.1684  0.3973
   53MOL   H31033694   6.014   5.972   1.772  0.5937 -0.7317 -1.1442
   53MOL   H31133695   6.035   5.929   1.942 -0.3708 -0.5483 -0.1624
   53MOL   H31233696   5.773   6.170   1.952 -0.9857  1.0288 -2.7360
   53MOL   H31333697   5.954   6.321   1.837  0.7871  0.0863 -0.0027
   53MOL   H31433698   6.043   6.187   1.812  1.2716  2.0843  0.2265
   53MOL   H31533699   6.015   6.345   2.049  2.3462  1.2031  1.4314
   53MOL   H31633700   6.046   6.166   2.057 -2.5982  0.1729 -0.3849
   53MOL   H31733701   6.205   6.351   1.882  1.3949  0.2656  0.3686
   53MOL   H31833702   6.251   6.193   1.910 -0.6741  1.0701 -1.3646
   53MOL   H31933703   6.295   6.236   2.154  1.5684  1.3168  1.2189
   53MOL   H32033704   6.234   6.395   2.145 -1.5398 -0.0091 -1.3215
   53MOL   H32133705   6.442   6.367   1.942  0.9746  1.8299 -0.0483
   53MOL   C32233706   6.509   6.414   2.125  0.0785 -0.7090 -0.1554
   53MOL   O32333707   6.490   6.431   2.248 -0.1726  0.3098  0.4590
   53MOL   C32433708   6.637   6.450   2.055 -0.1844  0.6142  0.4252
   53MOL   C32533709   6.757   6.364   2.090  0.5327  0.0566 -0.4164
   53MOL   C32633710   6.747   6.210   2.053 -0.3782  0.3639 -0.6441
   53MOL   C32733711   6.777   6.128   2.181  0.5963 -0.7531  0.6411
   53MOL   C32833712   6.767   5.975   2.178  0.1345 -0.1064 -0.3878
   53MOL   O32933713   6.693   5.914   2.094 -0.7547 -0.0424  0.8699
   53MOL   N33033714   6.822   5.921   2.283 -0.0981  0.6903 -0.1976
   53MOL   C33133715   6.805   5.778   2.319  0.2458  0.0313  0.4136
   53MOL   C33233716   6.713   5.776   2.447 -0.1234 -0.0363  0.6725
   53MOL   C33333717   6.752   5.853   2.570  0.1819  0.1011 -0.0349
   53MOL   C33433718   6.636   5.858   2.670  0.1272 -0.0958 -0.1116
   53MOL   N33533719   6.682   5.911   2.802 -0.0081  0.0567  0.6959
   53MOL   H33633720   6.629   6.451   1.946  1.6584  0.3269  0.2604
   53MOL   H33733721   6.658   6.555   2.074  1.0297  0.3494  0.6188
   53MOL   H33833722   6.850   6.398   2.045  1.9514 -0.7843  1.7750
   53MOL   H33933723   6.775   6.378   2.197  0.0427 -1.5174 -0.1084
   53MOL   H34033724   6.814   6.176   1.975 -0.4065  1.9972 -1.4080
   53MOL   H34133725   6.649   6.184   2.012  0.3812 -2.3314 -0.8336
   53MOL   H34233726   6.713   6.155   2.265  0.6799  1.8935 -0.1156
   53MOL   H34333727   6.875   6.158   2.217 -0.4674  1.2618  1.9452
   53MOL   H34433728   6.885   5.975   2.340  2.5866 -1.5547 -0.8911
   53MOL   H34533729   6.901   5.731   2.342  0.6447  0.1401 -0.9870
   53MOL   H34633730   6.765   5.715   2.240 -0.9679  0.4282  0.7008
   53MOL   H34733731   6.620   5.811   2.402  1.0127  1.8902 -0.2453
   53MOL   H34833732   6.685   5.675   2.477  0.1812 -0.1325  0.6442
   53MOL   H34933733   6.774   5.955   2.540 -1.8916 -0.3698 -3.4640
   53MOL   H35033734   6.843   5.814   2.616 -1.3582  0.9094  3.8930
   53MOL   H35133735   6.587   5.761   2.681 -1.0477  0.5457  0.4767
   53MOL   H35233736   6.552   5.916   2.632  1.5509  1.3664 -1.1236
   53MOL   H35333737   6.712   6.008   2.800  2.0490 -0.5497  0.0625
   53MOL   C35433738   6.709   5.831   2.907  0.1784  0.4335  0.1782
   53MOL   O35533739   6.698   5.709   2.903 -0.2440  0.4839 -0.2452
   53MOL   C35633740   6.747   5.902   3.036 -0.4953  0.6824  0.3994
   53MOL   C35733741   6.896   5.894   3.078  0.2581 -0.1954  0.3935
   53MOL   C35833742   6.988   5.993   3.004 -1.1546  0.1998 -0.8495
   53MOL   C35933743   7.139   5.967   3.023 -0.5752 -0.0340  0.1801
   53MOL   C36033744   7.200   5.836   2.967  0.7192 -0.1422  0.0784
   53MOL   O36133745   7.229   5.834   2.845  0.0078  0.3649 -0.5419
   53MOL   N36233746   7.217   5.740   3.055  0.1075 -0.3301 -0.1222
   53MOL   C36333747   7.277   5.610   3.031  0.6277  0.0326 -0.3056
   53MOL   C36433748   7.205   5.541   2.912 -0.3836 -0.7214  0.2309
   53MOL   C36533749   7.049   5.544   2.909 -0.5143 -0.0119 -0.1221
   53MOL   C36633750   6.988   5.491   3.042 -1.0776 -0.0052 -0.3227
   53MOL   N36733751   6.842   5.501   3.039 -0.3017  0.7877  0.0595
   53MOL   H36833752   6.722   6.007   3.047  0.1662  0.9054 -0.1962
   53MOL   H36933753   6.681   5.853   3.108  0.6005  0.8472  1.5287
   53MOL   H37033754   6.902   5.917   3.185 -0.6339  2.9230 -0.1662
   53MOL   H37133755   6.919   5.789   3.063  1.0936 -0.0114  0.3373
   53MOL   H37233756   6.967   6.094   3.041  0.6115 -0.4482  2.0631
   53MOL   H37333757   6.962   5.989   2.898 -1.5351  1.0842 -0.7967
   53MOL   H37433758   7.180   5.979   3.124  3.5901 -2.0113 -1.1576
   53MOL   H37533759   7.187   6.053   2.976  1.0969 -0.6245  0.7483
   53MOL   H37633760   7.189   5.754   3.151 -0.8147 -0.9629 -0.2999
   53MOL   H37733761   7.259   5.546   3.118  3.4941 -0.7572 -0.2102
   53MOL   H37833762   7.386   5.621   3.028  0.2554  4.0542 -4.4184
   53MOL   H37933763   7.256   5.565   2.819 -0.4400  0.0895  0.4030
   53MOL   H38033764   7.234   5.436   2.914 -0.7427 -0.8562 -1.2091
   53MOL   H38133765   7.010   5.477   2.832 -0.6452  0.6729 -0.6550
   53MOL   H38233766   7.009   5.644   2.889  0.6310  0.7485  1.2973
   53MOL   H38333767   7.011   5.555   3.127  0.7807 -1.6083  0.4379
   53MOL   H38433768   7.021   5.393   3.077  0.0696  0.8616  1.0845
   53MOL   H38533769   6.806   5.583   2.991  0.3378  0.7556 -0.4704
   53MOL   C38633770   6.765   5.418   3.115  0.5009  0.7895  0.0555
   53MOL   O38733771   6.814   5.335   3.195  0.8928  0.4079  0.2869
   53MOL   C38833772   6.613   5.443   3.117 -0.1156 -0.3593 -0.2181
   53MOL   C38933773   6.557   5.461   3.258  0.2078  0.1372  0.0164
   53MOL   C39033774   6.547   5.608   3.301 -0.4590 -0.2369 -0.9156
   53MOL   C39133775   6.496   5.621   3.442 -0.5468 -0.7416 -0.0051
   53MOL   C39233776   6.601   5.677   3.537 -0.4277  1.0374  0.2201
   53MOL   O39333777   6.644   5.789   3.513  0.4378 -0.0875 -0.4491
   53MOL   N39433778   6.636   5.614   3.651  0.3839  0.3473  0.2329
   53MOL   C39533779   6.717   5.672   3.752 -0.3744 -0.0013 -0.0367
   53MOL   C39633780   6.742   5.586   3.870 -0.0105  0.7539 -0.0228
   53MOL   C39733781   6.792   5.658   3.998 -1.1555 -0.2458 -0.4932
   53MOL   C39833782   6.805   5.564   4.121  0.0473  0.0529  0.1952
   53MOL   N39933783   6.841   5.640   4.240  0.2373  0.5039  0.3315
   53MOL   H40033784   6.581   5.514   3.041 -1.1825 -0.2586  0.3089
   53MOL   H40133785   6.557   5.359   3.076 -0.4602 -0.0649 -0.3477
   53MOL   H40233786   6.463   5.405   3.257 -0.4710  1.2489  0.4031
   53MOL   H40333787   6.614   5.403   3.330  1.0021  3.1950  1.9579
   53MOL   H40433788   6.497   5.672   3.228 -0.7052 -0.1910 -0.7047
   53MOL   H40533789   6.648   5.646   3.291 -0.2262 -0.5137  0.3838
   53MOL   H40633790   6.444   5.538   3.488  0.1977 -0.9019  0.5437
   53MOL   H40733791   6.422   5.702   3.439 -0.1056 -0.2951  0.8749
   53MOL   H40833792   6.594   5.524   3.668 -1.8121  1.2949  0.0059
   53MOL   H40933793   6.670   5.766   3.781 -0.5199 -0.0537 -0.1007
   53MOL   H41033794   6.807   5.708   3.704 -0.2410  1.8000  1.5137
   53MOL   H41133795   6.650   5.531   3.892  0.0692 -0.1882 -1.9419
   53MOL   H41233796   6.812   5.508   3.841 -0.1575  0.2740  0.9051
   53MOL   H41333797   6.712   5.729   4.021 -1.3710  0.2903 -2.7184
   53MOL   H41433798   6.881   5.718   3.975 -1.8082  1.1891  0.6778
   53MOL   H41533799   6.871   5.479   4.103  2.1108  1.5104  0.6588
   53MOL   H41633800   6.709   5.516   4.142  0.0640 -0.8824 -1.7903
   53MOL   H41733801   6.768   5.693   4.286  0.7773  0.7264  0.9431
   53MOL   C41833802   6.964   5.671   4.290 -1.2684 -0.0526 -0.2073
   53MOL   O41933803   7.072   5.632   4.244 -0.0534 -0.7373 -0.4569
   53MOL   C42033804   6.966   5.757   4.417  0.2892 -0.1252 -0.0232
   53MOL   C42133805   7.102   5.761   4.492 -0.5525  0.6086  0.6574
   53MOL   C42233806   7.086   5.837   4.624 -0.9101 -0.6998 -0.4508
   53MOL   C42333807   7.194   5.798   4.729 -0.1653 -0.7872 -0.4358
   53MOL   C42433808   7.326   5.873   4.713  0.6921  0.0229 -0.0238
   53MOL   O42533809   7.328   5.997   4.702  0.8782  0.0003 -0.2389
   53MOL   N42633810   7.430   5.792   4.703 -0.0577 -0.1466 -0.2247
   53MOL   C42733811   7.563   5.848   4.691 -0.3658  0.0119  0.0466
   53MOL   C42833812   7.651   5.767   4.595  0.4835  0.3514 -0.9446
   53MOL   C42933813   7.614   5.791   4.451  0.2741  0.0921  0.6561
   53MOL   C43033814   0.015   5.745   4.348 -0.2047 -0.1956 -0.9254
   53MOL   N43133815   7.650   5.771   4.222  0.3139 -0.2439  0.6387
   53MOL   H43233816   6.940   5.859   4.389  1.1853  0.4212  1.0604
   53MOL   H43333817   6.896   5.715   4.489  0.9693 -0.6742  0.3245
   53MOL   H43433818   7.137   5.660   4.512  2.1098  1.3623  0.0754
   53MOL   H43533819   7.170   5.814   4.424 -1.1123  0.3196 -0.1312
   53MOL   H43633820   6.988   5.810   4.663 -0.8849 -1.5356 -0.9559
   53MOL   H43733821   7.082   5.942   4.597  0.0225 -1.0064 -1.8653
   53MOL   H43833822   7.209   5.690   4.719  1.5825 -0.5364 -0.6738
   53MOL   H43933823   7.157   5.824   4.828  2.5482 -1.5749  0.8321
   53MOL   H44033824   7.410   5.694   4.719  2.4036 -0.5094  0.8479
   53MOL   H44133825   7.607   5.866   4.789 -1.2581  1.9547  0.1132
   53MOL   H44233826   7.565   5.945   4.642  1.3251  0.0150  0.1023
   53MOL   H44333827   0.050   5.807   4.608  0.4137  0.9272 -2.1041
   53MOL   H44433828   7.651   5.660   4.617 -0.8238  0.3774 -0.8216
   53MOL   H44533829   7.604   5.899   4.438 -0.3527  0.0834  1.0429
   53MOL   H44633830   7.520   5.736   4.439 -0.0274  0.9805 -1.2117
   53MOL   H44733831   0.053   5.643   4.352 -2.4825 -1.0677 -0.9962
   53MOL   H44833832   0.102   5.810   4.360 -1.3160  1.0975  0.2616
   53MOL   H44933833   7.676   5.859   4.181 -0.1800  0.3900  1.6845
   53MOL   C45033834   7.601   5.680   4.141  0.5850  0.1534 -0.1262
   53MOL   O45133835   7.587   5.565   4.171  0.6532 -0.6925 -0.0217
   53MOL   C45233836   7.538   5.734   4.012 -1.3846 -0.0881 -0.6620
   53MOL   C45333837   7.386   5.730   4.027  0.2188 -0.3894 -0.3322
   53MOL   C45433838   7.307   5.782   3.908  0.4672  0.1562  0.5193
   53MOL   C45533839   7.162   5.741   3.896  0.3015 -0.5106  0.7429
   53MOL   C45633840   7.130   5.597   3.867  0.0200 -0.3667  0.9091
   53MOL   O45733841   7.128   5.566   3.752 -0.7932 -0.1872 -0.0320
   53MOL   N45833842   7.112   5.511   3.968  0.0159 -0.2390  0.0767
   53MOL   C45933843   7.100   5.370   3.956 -0.0027  0.4031  0.3120
   53MOL   C46033844   7.127   5.309   4.097  0.5473 -0.1690 -0.5336
   53MOL   C46133845   7.260   5.367   4.162 -0.0789  0.2259 -0.1809
   53MOL   C46233846   7.307   5.288   4.287  0.1163 -0.0051 -0.5764
   53MOL   N46333847   7.415   5.356   4.354  0.1893 -0.2026  0.7711
   53MOL   H46433848   7.578   5.832   3.988 -1.1797 -0.1026 -0.3920
   53MOL   H46533849   7.573   5.674   3.928  0.4423  2.9997 -2.1950
   53MOL   H46633850   7.362   5.627   4.053 -1.9527 -0.4879 -2.5724
   53MOL   H46733851   7.358   5.787   4.116  0.3473  1.5505 -1.4979
   53MOL   H46833852   7.351   5.746   3.815 -3.0476 -1.5455 -0.5781
   53MOL   H46933853   7.318   5.889   3.893  2.4597 -0.4304 -2.7849
   53MOL   H47033854   7.115   5.800   3.818  0.7123 -1.3743 -0.1722
   53MOL   H47133855   7.115   5.758   3.993 -1.6688  0.1620 -0.2960
   53MOL   H47233856   7.103   5.553   4.060 -0.9348  2.7758 -1.3401
   53MOL   H47333857   7.158   5.324   3.876  1.2827  1.1756  0.7691
   53MOL   H47433858   6.998   5.351   3.925  0.1758  0.9256 -0.6058
   53MOL   H47533859   7.044   5.328   4.166  0.4604 -2.0338 -0.0865
   53MOL   H47633860   7.130   5.200   4.104 -0.4165 -0.0901  1.8210
   53MOL   H47733861   7.251   5.471   4.192  1.1272  0.6257 -1.1959
   53MOL   H47833862   7.337   5.367   4.086 -1.7636  1.6206 -1.9381
   53MOL   H47933863   7.352   5.191   4.266  2.6092  0.6521  1.5295
   53MOL   H48033864   7.220   5.262   4.348 -0.0600 -1.3791 -1.3881
   53MOL   H48133865   7.452   5.439   4.309 -0.9167 -0.4268 -0.6124
   53MOL   C48233866   7.448   5.330   4.479  0.4938  0.0874 -0.0694
   53MOL   O48333867   7.395   5.239   4.545 -0.1268  0.4321 -0.2918
   53MOL   C48433868   7.558   5.406   4.540 -0.4490  0.1301 -0.3454
   53MOL   C48533869   7.680   5.314   4.577  0.3454  0.3259 -0.3203
   53MOL   C48633870   0.112   5.341   4.509 -0.4855  0.1268 -0.0567
   53MOL   C48733871   0.133   5.321   4.362  0.9422 -0.0412 -0.8036
   53MOL   C48833872   0.098   5.177   4.312 -0.3539  0.1604  0.0303
   53MOL   O48933873   0.085   5.076   4.386  0.6041  0.4051  0.1850
   53MOL   N49033874   0.062   5.180   4.186 -0.6307 -0.0664  0.4158
   53MOL   C49133875   0.018   5.062   4.114  0.2856 -0.6487 -0.6285
   53MOL   C49233876   7.570   5.029   4.146  0.1629  0.1610  0.0328
   53MOL   C49333877   7.526   4.899   4.078 -0.0873  0.1937 -0.4304
   53MOL   C49433878   7.394   4.839   4.138  0.1082 -0.1115 -0.1667
   53MOL   N49533879   7.337   4.742   4.045  0.1349  0.1652 -0.1483
   53MOL   H49633880   7.578   5.488   4.472 -0.5924  1.1842  0.8565
   53MOL   H49733881   7.523   5.453   4.632 -0.4390  3.1028 -1.8222
   53MOL   H49833882   7.694   5.334   4.683 -1.7272  0.9634 -0.1454
   53MOL   H49933883   7.659   5.208   4.565 -1.8241  0.3389  2.7353
   53MOL   H50033884   0.184   5.283   4.567  0.2378  1.5232  0.4557
   53MOL   H50133885   0.141   5.445   4.523  0.3180 -0.3049  1.7512
   53MOL   H50233886   0.237   5.342   4.340  1.1457  0.7242  0.8390
   53MOL   H50333887   0.066   5.390   4.312 -1.1829 -0.4753  1.3577
   53MOL   H50433888   0.074   5.261   4.126 -1.1848  1.0804  1.8031
   53MOL   H50533889   0.076   4.971   4.133  0.3504 -0.2145  1.3366
   53MOL   H50633890   0.026   5.088   4.009  0.0145 -0.5422 -0.6230
   53MOL   H50733891   7.552   5.019   4.253 -0.8533 -0.7097 -0.2090
   53MOL   H50833892   7.508   5.112   4.112  0.4366  0.6740  0.7818
   53MOL   H50933893   7.608   4.828   4.081  1.5089  2.0528  1.2883
   53MOL   H51033894   7.501   4.928   3.976 -0.1173  0.6262 -0.2985
   53MOL   H51133895   7.324   4.921   4.156 -1.2813 -0.8360 -2.1233
   53MOL   H51233896   7.420   4.809   4.240 -0.2772  2.5299  0.7694
   53MOL   H51333897   7.326   4.770   3.949  1.6413 -1.4585 -0.8207
   53MOL   C51433898   7.310   4.617   4.085  0.6481  0.1559 -0.1037
   53MOL   O51533899   7.344   4.572   4.193 -0.4020  0.3419 -0.3042
   53MOL   C51633900   7.240   4.533   3.979  0.6278  0.8940 -0.3705
   53MOL   C51733901   7.095   4.521   4.013  0.7983  0.3647 -0.5368
   53MOL   C51833902   7.054   4.462   4.151 -0.0136  0.3065 -0.2646
   53MOL   C51933903   6.908   4.431   4.175  0.1692 -0.2314 -0.3551
   53MOL   C52033904   6.834   4.558   4.214  0.1226 -0.4983 -0.5150
   53MOL   O52133905   6.889   4.638   4.297  0.2132  0.5348 -0.1752
   53MOL   N52233906   6.715   4.578   4.154  0.1301  0.4023  0.4934
   53MOL   C52333907   6.611   4.657   4.216 -0.3686  0.5445  0.4320
   53MOL   C52433908   6.530   4.725   4.112  0.0902 -0.5633 -0.3006
   53MOL   C52533909   6.423   4.823   4.162  1.1577 -0.2371  0.0810
   53MOL   C52633910   6.357   4.895   4.045  0.4217 -0.7381 -0.3055
   53MOL   N52733911   6.248   4.976   4.077 -0.0255  0.4280  0.8040
   53MOL   H52833912   7.255   4.570   3.877  1.2857 -1.1436 -1.0388
   53MOL   H52933913   7.285   4.436   3.998 -1.8893 -0.3591 -0.7205
   53MOL   H53033914   7.039   4.610   3.985 -0.2412 -1.0247 -3.0503
   53MOL   H53133915   7.070   4.447   3.937  0.2215  1.3779 -1.3576
   53MOL   H53233916   7.094   4.532   4.224  2.1563 -1.5245  0.3508
   53MOL   H53333917   7.114   4.371   4.149  0.1498  0.4256 -2.0805
   53MOL   H53433918   6.910   4.371   4.266 -0.0528 -1.5428 -1.2026
   53MOL   H53533919   6.857   4.369   4.101  2.6466  0.0183 -2.3061
   53MOL   H53633920   6.684   4.508   4.088  0.8990  1.3654 -0.9246
   53MOL   H53733921   6.655   4.723   4.290  0.6609 -0.4326  0.6970
   53MOL   H53833922   6.545   4.595   4.275 -0.0142 -1.5943 -1.3463
   53MOL   H53933923   6.601   4.786   4.055  0.0525  1.0088  1.2753
   53MOL   H54033924   6.479   4.652   4.050 -0.8480  1.6666 -2.2611
   53MOL   H54133925   6.453   4.884   4.248 -4.3264  0.1221  1.9567
   53MOL   H54233926   6.350   4.755   4.207  0.6961  0.2003 -0.0001
   53MOL   H54333927   6.324   4.827   3.966 -0.1751 -1.9144  0.9371
   53MOL   H54433928   6.430   4.943   3.980 -1.1266  0.3855 -1.2586
   53MOL   H54533929   6.260   5.076   4.074 -3.7384  0.9150 -0.3731
   53MOL   C54633930   6.123   4.933   4.106  0.4429 -0.3340 -0.0708
   53MOL   O54733931   6.084   4.815   4.086  0.3931 -0.1466  0.3697
   53MOL   C54833932   6.033   5.041   4.150  0.2493  0.3603 -0.5466
   53MOL   C54933933   5.882   5.005   4.175  0.5272  0.0910 -1.1118
   53MOL   C55033934   5.808   4.973   4.048  0.5205 -0.0604  0.4261
   53MOL   C55133935   5.659   4.962   4.088 -1.2805 -0.1654  0.4413
   53MOL   C55233936   5.568   5.032   3.987  0.5245 -0.9005 -0.4271
   53MOL   O55333937   5.574   5.015   3.865 -0.0779 -0.1420  0.1998
   53MOL   N55433938   5.487   5.123   4.036  0.0257  0.0771  0.3260
   53MOL   C55533939   5.384   5.193   3.960  0.8001 -0.4074  0.5522
   53MOL   C55633940   5.336   5.315   4.037 -0.0707  0.0432  0.1404
   53MOL   C55733941   5.244   5.404   3.960 -0.2705 -0.1035  0.2932
   53MOL   C55833942   5.113   5.337   3.907 -0.0071 -0.1088 -0.1824
   53MOL   N55933943   5.034   5.436   3.830 -0.3784  0.5297 -0.6336
   53MOL   H56033944   6.081   5.077   4.240  0.6531 -2.0242  0.2356
   53MOL   H56133945   6.051   5.122   4.079  0.4334  0.1724 -0.7153
   53MOL   H56233946   5.871   4.923   4.246  0.7440  0.0723 -1.0979
   53MOL   H56333947   5.838   5.093   4.221 -0.1108 -1.6491  1.7862
   53MOL   H56433948   5.835   4.873   4.013  0.5750 -0.7024  2.2138
   53MOL   H56533949   5.833   5.050   3.976 -0.2470  0.8635  1.1226
   53MOL   H56633950   5.640   4.977   4.194 -1.1718 -0.1980  0.4657
   53MOL   H56733951   5.634   4.857   4.074 -0.2213 -0.0869 -2.4766
   53MOL   H56833952   5.475   5.109   4.135  0.6744 -2.4310  0.0802
   53MOL   H56933953   5.300   5.128   3.935  1.1377 -0.2368 -1.0899
   53MOL   H57033954   5.423   5.233   3.866  1.9726 -0.5342  0.9731
   53MOL   H57133955   5.295   5.277   4.130  2.0004 -0.0083  1.0537
   53MOL   H57233956   5.423   5.371   4.073 -0.9170  0.1639  2.0427
   53MOL   H57333957   5.290   5.438   3.867  0.6054  1.7067  1.3517
   53MOL   H57433958   5.214   5.493   4.016  1.6537 -0.0223  1.2302
   53MOL   H57533959   5.059   5.308   3.998  0.8251 -2.9888 -0.5387
   53MOL   H57633960   5.123   5.244   3.851  1.1050 -1.6189  2.4014
   53MOL   H57733961   5.080   5.500   3.766 -3.0297  2.7351 -0.4531
   53MOL   C57833962   4.900   5.458   3.852 -0.1875 -0.1349  0.1369
   53MOL   O57933963   4.826   5.395   3.929  0.4651 -0.2594 -0.5180
   53MOL   C58033964   4.834   5.577   3.782  0.0292  1.0109  0.3786
   53MOL   C58133965   4.700   5.619   3.831  0.7614  0.1967 -0.0883
   53MOL   C58233966   4.650   5.723   3.733  0.6864  0.8070 -0.6943
   53MOL   C58333967   4.512   5.781   3.792  0.1699  1.0128 -0.5943
   53MOL   C58433968   4.386   5.696   3.753  0.1373 -0.3344  0.5780
   53MOL   O58533969   4.375   5.653   3.633 -0.5004 -0.2405  0.2413
   53MOL   N58633970   4.295   5.673   3.852 -0.7082 -0.1770  0.6121
   53MOL   C58733971   4.159   5.623   3.832 -0.0638 -0.1951  0.5511
   53MOL   C58833972   4.113   5.564   3.962  0.3594 -0.0566 -0.3283
   53MOL   C58933973   4.079   5.666   4.068 -0.3867  1.0041 -0.3603
   53MOL   C59033974   3.940   5.718   4.060 -0.0408 -0.7805  0.0370
   53MOL   N59133975   3.897   5.792   4.176 -0.8463 -0.1121 -0.3153
   53MOL   H59233976   4.910   5.654   3.775  2.2023 -0.9875  1.4329
   53MOL   H59333977   4.824   5.535   3.682 -1.3332 -0.4880  1.1156
   53MOL   H59433978   4.639   5.531   3.849  0.8003  0.3323  0.6993
   53MOL   H59533979   4.707   5.663   3.930  1.8952 -1.2900  0.4960
   53MOL   H59633980   4.623   5.685   3.634 -0.8430  3.7760 -1.4877
   53MOL   H59733981   4.727   5.795   3.707  1.6180  0.7573  1.8224
   53MOL   H59833982   4.495   5.876   3.742  0.5600  1.1131 -0.5324
   53MOL   H59933983   4.511   5.796   3.900 -1.8422 -0.1414 -0.4108
   53MOL   H60033984   4.312   5.730   3.933  0.8152 -2.7330  2.1776
   53MOL   H60133985   4.166   5.535   3.769 -1.6215 -0.6202  0.9534
   53MOL   H60233986   4.086   5.694   3.791 -1.2582 -1.6141  0.1983
   53MOL   H60333987   4.036   5.487   3.950 -0.5044  0.5033  1.4918
   53MOL   H60433988   4.195   5.503   4.000  0.3072 -0.1457 -0.3607
   53MOL   H60533989   4.148   5.750   4.063  1.8856 -0.7026  1.5178
   53MOL   H60633990   4.092   5.614   4.163 -2.9957  3.6135  1.5423
   53MOL   H60733991   3.864   5.643   4.039  0.0720 -0.5146 -1.3734
   53MOL   H60833992   3.935   5.789   3.977 -0.6719 -1.8221 -0.8285
   53MOL   H60933993   3.845   5.737   4.243 -0.6569 -0.8460 -0.7735
   53MOL   C61033994   3.914   5.921   4.201  0.3315  0.1470  0.0242
   53MOL   O61133995   3.964   6.005   4.125  0.4972  0.0485  0.0562
   53MOL   C61233996   3.864   5.973   4.335 -0.1478 -0.6492 -0.1423
   53MOL   C61333997   3.798   6.109   4.332 -0.6729  0.2822 -0.2240
   53MOL   C61433998   3.733   6.156   4.468 -0.5899  0.2349  0.0565
   53MOL   C61533999   3.847   6.173   4.578  0.9823  0.1262 -0.4146
   53MOL   C61634000   3.845   6.053   4.670 -0.3200  1.1577  0.4162
   53MOL   O61734001   3.737   6.014   4.730  0.0321 -0.3909  0.6119
   53MOL   N61834002   3.960   5.997   4.690 -0.2498  0.3349 -0.4681
   53MOL   C61934003   3.993   5.879   4.771  0.3882 -0.0832 -0.0904
   53MOL   C62034004   4.081   5.924   4.883 -0.3854  0.0216  0.5492
   53MOL   C62134005   4.170   5.811   4.945  0.7712 -0.3817  0.2329
   53MOL   C62234006   4.264   5.857   5.055 -0.1379  0.6428 -0.1340
   53MOL   N62334007   4.386   5.914   5.000 -0.2099 -0.1175  0.1542
   53MOL   H62434008   3.796   5.905   4.388 -0.8358  0.3506  0.2631
   53MOL   H62534009   3.946   5.976   4.406 -0.3363 -1.0734  0.1018
   53MOL   H62634010   3.866   6.190   4.303 -0.2656  0.3317  0.8557
   53MOL   H62734011   3.722   6.115   4.254 -1.3236 -0.9065  0.3119
   53MOL   H62834012   3.648   6.097   4.503 -0.9922 -1.1309 -3.0927
   53MOL   H62934013   3.687   6.253   4.450  2.9109  1.6908 -1.5834
   53MOL   H63034014   3.805   6.248   4.646 -0.0591  0.8498 -1.8265
   53MOL   H63134015   3.939   6.213   4.538  0.4036  0.0852 -1.8097
   53MOL   H63234016   4.043   6.046   4.660  0.8103 -0.8793  0.4503
   53MOL   H63334017   4.046   5.817   4.699 -2.6108 -1.6336 -1.0563
   53MOL   H63434018   3.906   5.827   4.812  1.4367 -1.0416  0.9211
   53MOL   H63534019   4.136   6.012   4.849 -0.4102  0.3263  1.2981
   53MOL   H63634020   4.009   5.965   4.954 -0.7844 -0.5935  0.5090
   53MOL   H63734021   4.227   5.775   4.859  0.6871 -0.0150  0.0232
   53MOL   H63834022   4.122   5.720   4.982 -1.3711  1.1521  1.3504
   53MOL   H63934023   4.286   5.776   5.124  1.5108  0.1925 -1.1531
   53MOL   H64034024   4.222   5.938   5.115 -0.0508 -1.4035  2.7729
   53MOL   H64134025   4.451   5.842   4.973  0.4455  0.3793  0.3983
   53MOL   H64234026   4.365   5.969   4.917  0.8780  0.9953  0.5963
   54MOL     C134027   6.713   6.964   4.073 -0.1465  0.0239 -0.4760
   54MOL     O234028   6.707   7.074   4.017 -0.1482  0.6979 -0.0976
   54MOL     C334029   6.585   6.907   4.151  0.0706 -0.3579 -0.2126
   54MOL     C434030   6.471   6.861   4.064 -0.0502 -0.8658 -0.7070
   54MOL     C534031   6.494   6.718   4.015  0.2551 -0.0571  0.1548
   54MOL     C634032   6.453   6.604   4.111 -0.6228 -0.5521  0.1746
   54MOL     C734033   6.306   6.600   4.147  0.1435 -0.1707  0.0318
   54MOL     O834034   6.225   6.557   4.066  0.0161  0.5271  0.2785
   54MOL     N934035   6.270   6.646   4.269 -0.1926 -0.0067 -0.4800
   54MOL    C1034036   6.136   6.679   4.317 -0.5156 -0.0163  0.5285
   54MOL    C1134037   6.119   6.825   4.355  0.0520  0.5228  1.0061
   54MOL    C1234038   5.989   6.845   4.435 -0.1795 -0.3329  0.2382
   54MOL    C1334039   5.933   6.980   4.420  0.6279  0.2199 -0.2571
   54MOL    N1434040   6.016   7.082   4.489 -1.0297 -0.0148  0.2149
   54MOL    H1534041   6.617   6.828   4.219 -2.3289  0.8974  2.4867
   54MOL    H1634042   6.555   6.987   4.219 -1.0558  1.2037 -2.4640
   54MOL    H1734043   6.386   6.878   4.130  2.6085  0.9454  2.3849
   54MOL    H1834044   6.469   6.935   3.983 -1.7029 -0.8489 -0.6719
   54MOL    H1934045   6.597   6.705   3.982 -0.1002  1.0449 -1.4860
   54MOL    H2034046   6.443   6.699   3.921  1.6019  0.6276 -0.7370
   54MOL    H2134047   6.516   6.610   4.200 -0.4371  0.7507 -0.0442
   54MOL    H2234048   6.472   6.507   4.063  0.7389  0.9074 -2.3389
   54MOL    H2334049   6.344   6.677   4.331 -1.6235 -1.6137  2.1032
   54MOL    H2434050   6.122   6.616   4.404  1.6456 -0.7697  0.3746
   54MOL    H2534051   6.062   6.641   4.246 -0.0503  0.5905 -0.2947
   54MOL    H2634052   6.203   6.877   4.402  0.6659  0.7493 -0.3091
   54MOL    H2734053   6.120   6.892   4.268 -0.2184 -1.1575 -0.3264
   54MOL    H2834054   6.014   6.828   4.540 -0.9985 -1.8135  0.2148
   54MOL    H2934055   5.921   6.765   4.404 -1.0880  1.3584 -2.2914
   54MOL    H3034056   5.834   6.983   4.465  1.0384  0.9596  0.6246
   54MOL    H3134057   5.926   7.000   4.313 -0.1512  2.4421  0.1933
   54MOL    H3234058   5.989   7.087   4.586 -1.8718 -0.5668  0.0058
   54MOL    H3334059   6.804   6.907   4.087 -0.1879  0.0838  0.0512
   54MOL    C3434060   6.103   7.172   4.434 -0.1902  0.5635 -0.5334
   54MOL    O3534061   6.120   7.169   4.314  1.0138 -0.1167  0.3036
   54MOL    C3634062   6.170   7.273   4.527 -0.0778 -0.0307  0.3684
   54MOL    C3734063   6.202   7.404   4.456 -0.6850  0.1423 -0.1743
   54MOL    C3834064   6.075   7.480   4.410 -0.0172 -0.3499  0.4331
   54MOL    C3934065   6.108   7.612   4.332 -0.2401  0.3291  0.8906
   54MOL    C4034066   6.190   7.597   4.208 -0.5436 -0.7825  0.0189
   54MOL    O4134067   6.183   7.495   4.139 -0.4095  0.3697 -0.3799
   54MOL    N4234068   6.257   0.004   4.170  0.2812  0.5075 -0.3255
   54MOL    C4334069   6.351   0.024   4.062 -0.3870 -0.1143  0.1175
   54MOL    C4434070   6.296   0.120   3.959  0.6728 -0.0407  0.2515
   54MOL    C4534071   6.190   0.046   3.877  0.1776 -0.6770 -0.9670
   54MOL    C4634072   6.144   0.115   3.748 -0.7826  0.0748 -0.2426
   54MOL    N4734073   6.028   0.048   3.694 -0.4710  0.6474  0.2532
   54MOL    H4834074   6.106   7.294   4.612 -1.7086 -1.3753 -0.5106
   54MOL    H4934075   6.253   7.229   4.582  0.9331  0.9685 -0.3200
   54MOL    H5034076   6.260   7.446   4.538 -0.0540 -0.9350 -0.0542
   54MOL    H5134077   6.260   7.380   4.367 -0.8682 -0.1705 -0.2114
   54MOL    H5234078   6.024   7.515   4.500  0.1724 -0.0758  0.4359
   54MOL    H5334079   6.005   7.423   4.349 -0.8180  1.9774 -0.8984
   54MOL    H5434080   6.171   7.671   4.399 -1.4491  2.7040 -0.0287
   54MOL    H5534081   6.016   7.665   4.310  0.6171  1.1223 -0.9241
   54MOL    H5634082   6.228   0.079   4.231 -2.7787  1.4785 -2.8920
   54MOL    H5734083   6.388   7.637   4.010 -0.4063 -0.4956  0.7604
   54MOL    H5834084   6.439   0.074   4.102 -0.2603  1.8167 -2.4216
   54MOL    H5934085   6.261   0.212   4.006 -2.1118 -0.5499 -0.7430
   54MOL    H6034086   6.367   0.148   3.880  0.3235 -0.0107 -0.0507
   54MOL    H6134087   6.104   0.048   3.943  0.4567 -0.5000 -0.6115
   54MOL    H6234088   6.229   7.647   3.859  1.1360 -0.8156  1.6566
   54MOL    H6334089   6.227   0.125   3.678 -1.9409 -0.0442 -1.6654
   54MOL    H6434090   6.123   0.219   3.769  1.3095  0.3645  0.4413
   54MOL    H6534091   5.936   0.087   3.711 -0.8672 -0.1524 -0.0119
   54MOL    C6634092   6.030   7.634   3.621 -0.0158 -0.2808 -0.2975
   54MOL    O6734093   6.135   7.581   3.587 -0.0863  0.3322 -0.4650
   54MOL    C6834094   5.896   7.565   3.593 -0.8030 -0.0188 -0.0686
   54MOL    C6934095   5.903   7.411   3.570 -0.3267  0.0872 -0.1795
   54MOL    C7034096   5.922   7.330   3.697  0.5908 -0.0213 -0.1159
   54MOL    C7134097   5.928   7.173   3.680  0.3410  0.4807  0.3893
   54MOL    C7234098   5.908   7.106   3.815  0.6030 -0.0440  0.5621
   54MOL    O7334099   5.799   7.095   3.866 -0.1016 -0.1293  0.4472
   54MOL    N7434100   6.027   7.060   3.867  0.4572 -0.3794  0.4610
   54MOL    C7534101   6.033   6.996   3.990 -0.6494  0.3249 -0.4379
   54MOL    C7634102   6.042   6.843   3.984  0.0328  0.6722 -0.3171
   54MOL    C7734103   5.920   6.773   3.915  0.9211 -0.3384 -0.0134
   54MOL    C7834104   5.890   6.627   3.947 -0.3618 -0.2280 -0.0119
   54MOL    N7934105   6.001   6.555   3.890 -0.0125 -0.2582 -0.0564
   54MOL    H8034106   5.822   7.595   3.667 -0.6159 -0.1425  0.1679
   54MOL    H8134107   5.858   7.600   3.497 -0.2997 -1.8606 -0.9513
   54MOL    H8234108   5.807   7.378   3.532 -2.5937  3.1859  2.5987
   54MOL    H8334109   5.976   7.387   3.493  0.2945  2.8279 -0.4917
   54MOL    H8434110   5.851   7.362   3.773 -1.2434 -1.9128 -0.9861
   54MOL    H8534111   6.014   7.352   3.751  0.6094 -0.7619  0.1644
   54MOL    H8634112   6.017   7.143   3.625 -0.6491  1.8064 -2.0604
   54MOL    H8734113   5.854   7.141   3.606  1.6240 -3.3572  0.6637
   54MOL    H8834114   6.111   7.085   3.817  0.7004  2.2559  2.0820
   54MOL    H8934115   5.945   7.023   4.049  0.0188 -0.1848  0.8232
   54MOL    H9034116   6.112   7.030   4.057 -0.3442  0.4553 -0.8621
   54MOL    H9134117   6.136   6.809   3.940  0.4721 -1.1568  1.9155
   54MOL    H9234118   6.044   6.813   4.089 -1.4156 -0.3381 -0.5697
   54MOL    H9334119   5.924   6.778   3.807 -0.8146  0.4677 -0.0515
   54MOL    H9434120   5.834   6.827   3.953  0.0172 -1.5250 -0.3504
   54MOL    H9534121   5.793   6.599   3.906 -0.0073 -3.0040  0.9443
   54MOL    H9634122   5.869   6.616   4.054 -0.1575  2.2736  0.3197
   54MOL    H9734123   6.088   6.563   3.942 -0.2146 -0.3686  0.3020
   54MOL    C9834124   6.018   6.473   3.782  0.5312  0.3680  0.6886
   54MOL    O9934125   5.946   6.470   3.683 -0.1326 -0.1811  0.2742
   54MOL   C10034126   6.143   6.383   3.783 -0.6596  0.0550  0.8077
   54MOL   C10134127   6.265   6.452   3.731 -0.0407 -0.7495  0.1010
   54MOL   C10234128   6.390   6.366   3.705 -0.4241  0.0398 -0.0876
   54MOL   C10334129   6.519   6.453   3.674 -0.3551 -0.6372 -0.4158
   54MOL   C10434130   6.522   6.483   3.528 -0.2275 -0.4924 -0.0630
   54MOL   O10534131   6.473   6.406   3.440 -0.3924  0.0801 -0.9284
   54MOL   N10634132   6.577   6.600   3.492 -0.4373  0.2010  0.0918
   54MOL   C10734133   6.604   6.654   3.361 -0.5057 -0.1818  0.6510
   54MOL   C10834134   6.741   6.616   3.298  0.3572  0.5357  0.0919
   54MOL   C10934135   6.858   6.698   3.347 -0.2738 -0.1487 -0.4743
   54MOL   C11034136   6.873   6.831   3.273 -0.1152  0.4573  0.1580
   54MOL   N11134137   6.995   6.899   3.313 -0.3136 -0.0670 -0.0231
   54MOL   H11234138   6.160   6.351   3.886  1.7301  3.6139  1.6280
   54MOL   H11334139   6.114   6.291   3.732  1.0510 -0.0132 -0.0701
   54MOL   H11434140   6.242   6.490   3.631 -0.2381  0.2388  0.5249
   54MOL   H11534141   6.286   6.540   3.791  0.9644 -0.6535 -0.3738
   54MOL   H11634142   6.368   6.293   3.627  1.5263 -1.2874  0.5533
   54MOL   H11734143   6.420   6.307   3.791  0.6594  0.2625 -0.3079
   54MOL   H11834144   6.602   6.384   3.692 -0.8053 -1.1516 -0.2924
   54MOL   H11934145   6.536   6.530   3.749  1.6660 -0.6410 -0.8313
   54MOL   H12034146   6.604   6.658   3.570  1.6801  0.7919 -1.0191
   54MOL   H12134147   6.617   6.762   3.367  2.1016 -0.3255 -1.3352
   54MOL   H12234148   6.511   6.645   3.304 -0.5821 -0.1652  0.7724
   54MOL   H12334149   6.766   6.510   3.309  2.1726  0.9106 -0.2613
   54MOL   H12434150   6.737   6.633   3.190 -0.6322 -0.2799 -0.0100
   54MOL   H12534151   6.952   6.642   3.342  0.2960  0.7335  0.3176
   54MOL   H12634152   6.850   6.714   3.454 -1.2160 -1.8603 -0.2610
   54MOL   H12734153   6.792   6.901   3.290 -0.5222  0.4426 -1.5829
   54MOL   H12834154   6.864   6.826   3.164 -1.4845  0.3150  0.2695
   54MOL   H12934155   6.984   6.985   3.364 -0.0149 -0.0733  0.0489
   54MOL   C13034156   7.111   6.877   3.256 -0.4705  0.6707 -0.1330
   54MOL   O13134157   7.131   6.785   3.180  0.0468 -0.6491  0.0143
   54MOL   C13234158   7.222   6.976   3.297 -0.0517 -0.5047 -0.5850
   54MOL   C13334159   7.310   6.927   3.412 -0.2750  0.2573  0.1835
   54MOL   C13434160   7.243   6.941   3.553  0.0457 -0.7164 -1.2019
   54MOL   C13534161   7.341   6.931   3.665 -0.3849 -0.1411  0.1114
   54MOL   C13634162   7.263   6.922   3.802  0.4297 -0.1219 -0.7031
   54MOL   O13734163   7.148   6.876   3.811 -0.2737 -0.3161 -0.5434
   54MOL   N13834164   7.325   6.971   3.905 -0.6486 -0.0328  0.1608
   54MOL   C13934165   7.268   6.974   4.043 -0.4938  0.0015  0.2565
   54MOL   C14034166   7.174   7.096   4.062  0.4838 -0.2287  0.5148
   54MOL   C14134167   7.256   7.226   4.033 -0.3169 -0.0477  0.1507
   54MOL   C14234168   7.189   7.308   3.923 -0.0933 -0.3146  0.1098
   54MOL   N14334169   7.263   7.424   3.884  0.3904 -0.8877 -0.0537
   54MOL   H14434170   7.288   7.000   3.214  0.6413 -0.5072 -0.0407
   54MOL   H14534171   7.177   7.072   3.323  1.7666  0.5383 -1.1904
   54MOL   H14634172   7.334   6.823   3.389 -1.7343 -0.5708  2.2442
   54MOL   H14734173   7.399   6.990   3.414  0.0041 -0.0425 -1.6889
   54MOL   H14834174   7.157   6.875   3.562 -0.3817  0.0430  0.4717
   54MOL   H14934175   7.195   7.039   3.560  1.1584 -0.2294 -0.0722
   54MOL   H15034176   7.411   7.014   3.660  1.5433 -1.8369 -1.6453
   54MOL   H15134177   7.406   6.845   3.649 -0.8183 -0.8912  2.1360
   54MOL   H15234178   7.421   6.998   3.888  0.3003 -3.2688 -0.1243
   54MOL   H15334179   7.353   6.972   4.110  3.2682  0.4567 -4.2457
   54MOL   H15434180   7.209   6.883   4.059  0.4085 -0.3089  1.8593
   54MOL   H15534181   7.086   7.100   3.997  1.6017  0.9841 -0.9485
   54MOL   H15634182   7.125   7.106   4.159  1.2488  2.3625  0.6749
   54MOL   H15734183   7.361   7.208   4.008 -0.4718  1.4826 -1.7008
   54MOL   H15834184   7.240   7.287   4.122 -0.8727 -2.3687  1.7026
   54MOL   H15934185   7.086   7.338   3.943  0.4650  1.6054  0.1496
   54MOL   H16034186   7.174   7.258   3.827 -0.6719 -0.3154  0.1966
   54MOL   H16134187   7.357   7.434   3.919  1.0792 -0.5709 -1.9528
   54MOL   C16234188   7.213   7.524   3.810 -1.5456  0.1802 -0.1099
   54MOL   O16334189   7.093   7.532   3.779 -0.0820  0.1515  0.1063
   54MOL   C16434190   7.319   7.636   3.787  0.3226 -0.2976 -0.2698
   54MOL   C16534191   7.311   0.006   3.648  0.0026 -0.4118  0.6961
   54MOL   C16634192   7.192   0.101   3.634 -0.2552  0.2786  0.6172
   54MOL   C16734193   7.204   0.202   3.514 -0.0740 -0.9874 -0.2047
   54MOL   C16834194   7.130   0.165   3.387  0.7398  0.4348 -0.3632
   54MOL   O16934195   7.023   0.101   3.393 -0.2961  0.2672 -0.0619
   54MOL   N17034196   7.176   0.218   3.270 -0.2588 -0.3603 -0.4336
   54MOL   C17134197   7.127   0.183   3.135  0.2583  0.2957  0.5432
   54MOL   C17234198   7.229   0.102   3.052 -1.3110 -0.0699 -0.0656
   54MOL   C17334199   7.156   0.054   2.924 -0.5155 -0.0188 -0.3370
   54MOL   C17434200   7.258   7.675   2.847  0.1562  0.2408  0.2183
   54MOL   N17534201   7.204   7.651   2.711 -0.4516  0.3950 -0.1286
   54MOL   H17634202   7.300   0.005   3.868 -1.9869  0.8415 -1.7719
   54MOL   H17734203   7.419   7.593   3.797  1.2590  1.4479 -1.9475
   54MOL   H17834204   7.404   0.061   3.634  0.8072 -1.9073  0.0377
   54MOL   H17934205   7.307   7.640   3.562 -1.2038  2.0146 -1.2447
   54MOL   H18034206   7.183   0.151   3.731 -0.4618  0.5230  0.4719
   54MOL   H18134207   7.097   0.048   3.631  0.1223 -0.3541 -0.3464
   54MOL   H18234208   7.305   0.225   3.482 -1.0753  1.8450 -1.5441
   54MOL   H18334209   7.171   0.300   3.549  2.4402  0.3231 -1.4072
   54MOL   H18434210   7.259   0.274   3.280 -1.5399  1.4513  0.2073
   54MOL   H18534211   7.081   0.274   3.098 -0.4584 -0.3787 -0.2677
   54MOL   H18634212   7.037   0.122   3.149 -0.2057  1.2336  1.6911
   54MOL   H18734213   7.324   0.153   3.038 -2.5973  2.7155  1.0573
   54MOL   H18834214   7.252   0.010   3.107  2.1015  2.2663  2.6395
   54MOL   H18934215   7.122   0.142   2.869 -0.9312  0.5446  0.8033
   54MOL   H19034216   7.067   7.697   2.947 -1.2135  0.4989 -1.7121
   54MOL   H19134217   7.288   7.585   2.900 -0.3447 -0.9658 -1.5109
   54MOL   H19234218   7.344   0.037   2.823 -0.0572  0.2376 -0.5683
   54MOL   H19334219   7.157   0.027   2.666 -0.0251 -0.4047 -1.9974
   54MOL   C19434220   7.195   7.532   2.647 -0.4578 -0.5457  0.6475
   54MOL   O19534221   7.231   7.427   2.705 -1.0241  0.0523  0.4010
   54MOL   C19634222   7.141   7.521   2.506 -0.3401  0.9964 -0.8076
   54MOL   C19734223   7.170   7.378   2.450  0.3498 -0.4681  0.3972
   54MOL   C19834224   7.099   7.358   2.315  0.4257  0.5709  0.0531
   54MOL   C19934225   7.096   7.217   2.268  0.1026  0.2219  0.5607
   54MOL   C20034226   6.989   7.125   2.325 -0.3927  0.5533 -0.1363
   54MOL   O20134227   6.967   7.120   2.447 -0.0627  0.1059 -0.2414
   54MOL   N20234228   6.910   7.067   2.239 -0.0621 -0.3350  0.7177
   54MOL   C20334229   6.798   6.986   2.281 -0.3077  0.0553  0.5669
   54MOL   C20434230   6.843   6.842   2.314  0.5331  0.1773  0.6671
   54MOL   C20534231   6.722   6.745   2.291  0.3964 -0.3951  0.1474
   54MOL   C20634232   6.627   6.732   2.410  0.0892  0.8657  0.5863
   54MOL   N20734233   6.499   6.675   2.384 -0.2560 -0.1623  0.1586
   54MOL   H20834234   7.033   7.531   2.510 -0.2114  1.7851  2.7361
   54MOL   H20934235   7.195   7.593   2.445  1.0032 -0.3109 -1.2180
   54MOL   H21034236   7.276   7.355   2.438 -0.1222 -1.4886 -2.2098
   54MOL   H21134237   7.127   7.303   2.517 -0.5768  1.7966  2.4219
   54MOL   H21234238   7.149   7.430   2.250  2.0640  1.6426  2.4276
   54MOL   H21334239   6.997   7.396   2.326  0.5931  0.9341  0.3369
   54MOL   H21434240   7.186   7.164   2.299  0.4476 -0.3225 -1.3206
   54MOL   H21534241   7.088   7.217   2.160  0.3163  0.0648  0.5456
   54MOL   H21634242   6.919   7.086   2.140  0.8944 -1.0783  0.6606
   54MOL   H21734243   6.728   6.988   2.198  1.2088 -0.8648 -0.7838
   54MOL   H21834244   6.753   7.034   2.367  0.2415  1.4377  0.1028
   54MOL   H21934245   6.933   6.823   2.255  1.0433 -1.1744  1.8229
   54MOL   H22034246   6.877   6.826   2.417  1.6156 -0.7148  0.1859
   54MOL   H22134247   6.763   6.646   2.274  0.0076 -0.3111 -1.4341
   54MOL   H22234248   6.679   6.779   2.196  1.7590  1.2052  0.0805
   54MOL   H22334249   6.606   6.829   2.453  2.3197  0.1984  3.2891
   54MOL   H22434250   6.670   6.672   2.490 -0.6484 -1.2434 -0.5549
   54MOL   H22534251   6.506   6.581   2.349  0.3857 -0.2910  0.6117
   54MOL   C22634252   6.378   6.728   2.393 -0.5242 -0.1409  0.2421
   54MOL   O22734253   6.361   6.843   2.424  0.4919 -0.0278  0.1575
   54MOL   C22834254   6.253   6.648   2.352 -0.6446  0.1840  0.3641
   54MOL   C22934255   6.183   6.700   2.223 -0.4820  0.1841 -0.1274
   54MOL   C23034256   6.046   6.634   2.204 -0.3625 -0.0906 -0.0135
   54MOL   C23134257   5.974   6.644   2.067 -0.0735 -0.2216  0.0694
   54MOL   C23234258   5.935   6.789   2.044  0.3139 -0.6802  0.6576
   54MOL   O23334259   5.867   6.850   2.127 -0.6210 -0.0779 -0.1135
   54MOL   N23434260   5.959   6.842   1.922 -0.1741 -0.2928 -0.5056
   54MOL   C23534261   5.893   6.965   1.869 -0.4379  0.1537  0.1287
   54MOL   C23634262   5.966   7.090   1.920  0.2839  0.0659  0.0208
   54MOL   C23734263   5.946   7.215   1.831  0.9350  0.0637  0.3488
   54MOL   C23834264   6.015   7.337   1.906  0.4112  0.0145  0.6278
   54MOL   N23934265   6.159   7.321   1.916 -0.7039 -0.1383 -1.0611
   54MOL   H24034266   6.279   6.542   2.349  0.0284  0.3420  0.5262
   54MOL   H24134267   6.178   6.653   2.430 -1.6148  0.3142 -0.5666
   54MOL   H24234268   6.178   6.809   2.226  0.5866  0.2972 -2.0607
   54MOL   H24334269   6.252   6.685   2.140  0.8972 -1.8459  1.3406
   54MOL   H24434270   5.987   6.685   2.280  0.8674  2.3754 -0.6651
   54MOL   H24534271   6.054   6.526   2.216 -2.0963 -0.2793 -0.4103
   54MOL   H24634272   5.886   6.581   2.072 -0.3295  0.0464 -0.8783
   54MOL   H24734273   6.042   6.609   1.989  1.1091  2.4889 -0.1660
   54MOL   H24834274   6.018   6.796   1.854  0.0728 -1.6195  0.5731
   54MOL   H24934275   5.790   6.976   1.902 -0.8095 -1.0015 -0.5885
   54MOL   H25034276   5.902   6.968   1.760 -0.4460  1.4029  0.1645
   54MOL   H25134277   5.927   7.112   2.020 -1.3065 -1.6067 -0.2021
   54MOL   H25234278   6.067   7.058   1.943  0.3745  0.8837  0.8154
   54MOL   H25334279   5.838   7.229   1.829  0.9239  0.1029  1.0121
   54MOL   H25434280   5.993   7.183   1.738  1.0147  1.9807 -0.2973
   54MOL   H25534281   5.983   7.353   2.009  1.1018  1.8392  0.5668
   54MOL   H25634282   6.001   7.430   1.852  1.5161 -0.8559 -1.1990
   54MOL   H25734283   6.193   7.285   2.004 -0.7480 -0.1084 -1.0318
   54MOL   C25834284   6.253   7.350   1.823  0.0220  0.3083 -0.0833
   54MOL   O25934285   6.218   7.384   1.710 -0.2209 -0.4934 -0.1958
   54MOL   C26034286   6.397   7.343   1.868  0.2062  0.4069 -0.2404
   54MOL   C26134287   6.473   7.462   1.797 -0.0811  0.0920 -0.2596
   54MOL   C26234288   6.451   7.596   1.860 -0.1389 -0.7103  0.3534
   54MOL   C26334289   6.532   0.014   1.797  0.3814 -0.3175 -0.3136
   54MOL   C26434290   6.472   0.072   1.670  0.2524 -0.3066  0.6067
   54MOL   O26534291   6.363   0.027   1.629  0.1700  0.2379 -0.2745
   54MOL   N26634292   6.547   0.165   1.610 -0.8290 -0.0304 -0.3511
   54MOL   C26734293   6.525   0.204   1.473  0.5457  0.0304 -0.4630
   54MOL   C26834294   6.534   0.355   1.466 -0.4047  0.2839 -0.1986
   54MOL   C26934295   6.657   0.419   1.536 -0.4309 -0.1905  0.3741
   54MOL   C27034296   6.683   0.572   1.513  0.3195  0.2703 -0.1707
   54MOL   N27134297   6.820   0.607   1.563  0.0869  0.6351 -0.2534
   54MOL   H27234298   6.411   7.341   1.976 -1.5499  1.0726  0.0160
   54MOL   H27334299   6.438   7.248   1.832 -2.4645 -1.0868  0.5431
   54MOL   H27434300   6.577   7.432   1.789 -0.3217 -0.3501 -1.8684
   54MOL   H27534301   6.448   7.461   1.691 -1.5927  1.9568  0.0612
   54MOL   H27634302   6.493   7.580   1.960  2.2714  0.5464 -0.4207
   54MOL   H27734303   6.346   7.625   1.871  0.2868  0.7029  0.7980
   54MOL   H27834304   6.631   7.676   1.776  0.4437 -2.1239  3.0441
   54MOL   H27934305   6.548   0.094   1.868  1.2002 -0.3540 -0.4549
   54MOL   H28034306   6.644   0.178   1.637 -1.6261  0.1523  2.5453
   54MOL   H28134307   6.428   0.183   1.427  1.7745  0.2533 -3.2593
   54MOL   H28234308   6.600   0.149   1.416  0.5550  0.6716 -1.0796
   54MOL   H28334309   6.536   0.382   1.361 -0.0435  0.2815 -0.1924
   54MOL   H28434310   6.441   0.404   1.495  0.4443  0.7816  1.7725
   54MOL   H28534311   6.747   0.370   1.499 -1.8202 -2.2794 -0.3465
   54MOL   H28634312   6.651   0.404   1.644 -0.1257  0.5565  0.4953
   54MOL   H28734313   6.607   0.634   1.561  1.3148  1.4164 -0.0623
   54MOL   H28834314   6.686   0.600   1.408  0.0179  1.6953  0.1795
   54MOL   H28934315   6.894   0.544   1.538 -0.5539  0.8200 -2.7543
   54MOL   C29034316   6.849   0.698   1.658 -0.1594 -0.1355 -0.3466
   54MOL   O29134317   6.764   0.765   1.710  0.4109 -0.0812 -0.1602
   54MOL   C29234318   6.999   0.718   1.696 -0.1954 -0.2917  0.4598
   54MOL   C29334319   7.038   0.852   1.768 -0.3157 -0.4046  0.0744
   54MOL   C29434320   7.009   0.876   1.913 -0.1406  1.0937 -0.2520
   54MOL   C29534321   7.100   0.786   2.003 -0.1182 -0.4073 -0.5501
   54MOL   C29634322   7.248   0.814   1.998 -0.6315 -0.1596 -0.0391
   54MOL   O29734323   7.324   0.717   2.011 -0.1591  0.4188 -0.3961
   54MOL   N29834324   7.297   0.939   1.978 -0.4154 -0.1713 -0.0412
   54MOL   C29934325   7.442   0.960   1.970 -0.3097  0.6139 -0.4075
   54MOL   C30034326   7.484   1.099   1.912  0.1911  0.8796 -0.4957
   54MOL   C30134327   7.380   1.201   1.961 -0.4655 -0.2741  0.1596
   54MOL   C30234328   7.427   1.347   1.961 -0.4372 -0.3005  0.0740
   54MOL   N30334329   7.486   1.382   1.832 -0.6968 -0.2433 -0.1087
   54MOL   H30434330   7.026   0.632   1.757  2.0894  1.3390  1.7959
   54MOL   H30534331   7.061   0.709   1.607 -1.7374  0.2429 -0.6866
   54MOL   H30634332   7.146   0.861   1.752 -0.1708  2.0761  2.2217
   54MOL   H30734333   6.998   0.931   1.705  0.0981 -1.0118 -0.9785
   54MOL   H30834334   6.907   0.864   1.949 -0.0614  2.6831  0.5499
   54MOL   H30934335   7.026   0.982   1.930 -3.1962  1.3396  1.5971
   54MOL   H31034336   7.105   0.680   1.981 -0.5926 -0.9530  1.8684
   54MOL   H31134337   7.073   0.794   2.108  0.8991  0.8204 -0.3651
   54MOL   H31234338   7.225   1.010   1.975  0.5448  0.9103  1.4071
   54MOL   H31334339   7.481   0.895   1.892 -0.1964  1.3839 -1.0070
   54MOL   H31434340   7.486   0.933   2.066 -1.6637 -0.4736 -0.0886
   54MOL   H31534341   7.586   1.128   1.936  1.1034  0.5409 -3.6736
   54MOL   H31634342   7.488   1.107   1.803 -2.3041  2.4635 -0.5276
   54MOL   H31734343   7.344   1.182   2.062  1.9476  0.6808  1.2301
   54MOL   H31834344   7.299   1.191   1.887  1.1203 -2.5129 -1.3396
   54MOL   H31934345   7.489   1.353   2.051  1.0895  0.6489 -1.0149
   54MOL   H32034346   7.344   1.417   1.969  1.5381  2.1392 -0.0539
   54MOL   H32134347   7.437   1.354   1.748 -2.8720  0.1499  0.9798
   54MOL   C32234348   7.606   1.429   1.816  0.6094  0.1446 -0.1646
   54MOL   O32334349   7.674   1.451   1.915 -0.0727  0.1692 -0.1135
   54MOL   C32434350   7.666   1.430   1.676  0.2560 -0.1997  0.2172
   54MOL   C32534351   0.024   1.573   1.644  0.3501  0.6773  0.1364
   54MOL   C32634352   7.683   1.629   1.507  1.1043 -0.2085  0.0388
   54MOL   C32734353   7.539   1.655   1.486 -0.5596  0.4562  0.4368
   54MOL   C32834354   7.488   1.748   1.593  0.9331  0.6573  0.4208
   54MOL   O32934355   7.557   1.843   1.627 -0.0654 -0.1194  0.3073
   54MOL   N33034356   7.367   1.716   1.649 -0.3712 -0.1870 -0.1309
   54MOL   C33134357   7.297   1.793   1.746 -0.4527 -0.8561 -0.7363
   54MOL   C33234358   7.299   1.717   1.887 -0.0183 -0.3422 -0.1642
   54MOL   C33334359   7.252   1.807   2.003 -0.2337  0.0558 -0.4330
   54MOL   C33434360   7.270   1.738   2.137 -0.0304  0.6230  0.0976
   54MOL   N33534361   7.205   1.814   2.247  0.6936  0.0892  0.2393
   54MOL   H33634362   0.038   1.354   1.653 -0.9843 -2.0053  2.0294
   54MOL   H33734363   7.579   1.408   1.614 -0.2391  0.0004  0.8274
   54MOL   H33834364   7.700   1.651   1.715 -1.4254  0.2005  0.0509
   54MOL   H33934365   0.133   1.566   1.651  0.5833  1.5271 -2.1681
   54MOL   H34034366   0.011   1.564   1.424  1.7038 -2.9836  2.3147
   54MOL   H34134367   0.039   1.720   1.492 -0.3639  0.9050  0.9528
   54MOL   H34234368   7.488   1.560   1.490 -1.2640  0.8436  0.6609
   54MOL   H34334369   7.517   1.697   1.388  0.2565  0.5416  0.2830
   54MOL   H34434370   7.332   1.622   1.634  0.5452 -0.5731  0.0726
   54MOL   H34534371   7.200   1.824   1.706 -0.7630 -1.3401 -0.3644
   54MOL   H34634372   7.344   1.891   1.753 -1.5590 -0.2786 -1.1173
   54MOL   H34734373   7.244   1.623   1.884 -0.0448 -0.4147  1.8459
   54MOL   H34834374   7.401   1.688   1.911  0.5646  1.7120 -0.0074
   54MOL   H34934375   7.144   1.822   1.992 -0.6380 -2.5126 -0.4175
   54MOL   H35034376   7.290   1.907   1.982  0.3949 -0.6494 -2.8058
   54MOL   H35134377   7.375   1.732   2.167  0.0772 -2.0507 -0.6923
   54MOL   H35234378   7.233   1.636   2.125 -1.4553  0.8674  2.0994
   54MOL   H35334379   7.238   1.906   2.271 -0.4490 -0.2065  3.2175
   54MOL   C35434380   7.104   1.763   2.322  0.2501 -0.5357  0.2695
   54MOL   O35534381   7.050   1.653   2.314  0.2734 -0.0296  0.0431
   54MOL   C35634382   7.059   1.854   2.436 -0.1810  0.2496  0.0822
   54MOL   C35734383   7.171   1.921   2.516 -0.1467 -0.1840 -0.0960
   54MOL   C35834384   7.271   1.825   2.584  0.5249  0.0848 -0.2598
   54MOL   C35934385   7.345   1.888   2.696  0.4020  0.3393 -0.4541
   54MOL   C36034386   7.415   1.777   2.781  1.2290 -0.1799 -0.0396
   54MOL   O36134387   7.520   1.725   2.742  0.3328  0.1440  0.9152
   54MOL   N36234388   7.355   1.734   2.892 -0.3722 -0.2645  0.1879
   54MOL   C36334389   7.410   1.640   2.992  0.1641 -0.2758  0.3131
   54MOL   C36434390   7.316   1.591   3.102 -0.7243  0.0053 -0.0543
   54MOL   C36534391   7.362   1.464   3.176  0.2539  0.6736  0.6032
   54MOL   C36634392   7.283   1.446   3.305  0.4340  0.7700 -0.6178
   54MOL   N36734393   7.316   1.548   3.403 -0.1984 -0.5583 -0.0821
   54MOL   H36834394   6.983   1.930   2.415 -1.0339  0.0030  2.1919
   54MOL   H36934395   7.016   1.790   2.512  1.2982 -0.9576 -0.0688
   54MOL   H37034396   7.223   1.988   2.448  0.4653 -0.8120 -0.2567
   54MOL   H37134397   7.114   1.978   2.590  0.7722 -0.2625  0.6867
   54MOL   H37234398   7.338   1.800   2.502  0.2281  1.2018 -0.8593
   54MOL   H37334399   7.219   1.732   2.607 -0.2173  0.9002  1.4087
   54MOL   H37434400   7.274   1.942   2.759 -0.7770 -2.4430  0.6765
   54MOL   H37534401   7.433   1.946   2.669  0.6813  0.4124  0.5827
   54MOL   H37634402   7.264   1.767   2.920 -0.0018  1.5563 -0.7422
   54MOL   H37734403   7.500   1.688   3.031 -0.7028 -1.3626  3.8129
   54MOL   H37834404   7.449   1.553   2.938 -0.7428 -0.2249 -0.4328
   54MOL   H37934405   7.310   1.680   3.165  2.4886  0.7623 -0.7182
   54MOL   H38034406   7.220   1.586   3.051  0.8395 -1.1940 -2.9814
   54MOL   H38134407   7.466   1.466   3.206  0.5648 -1.4187 -0.2956
   54MOL   H38234408   7.350   1.372   3.118  0.8624  1.2598 -0.4635
   54MOL   H38334409   7.324   1.353   3.346 -0.6453 -0.5959 -2.5908
   54MOL   H38434410   7.177   1.428   3.292  0.2001  0.3664  1.6336
   54MOL   H38534411   7.398   1.536   3.460 -1.4059 -1.0644  1.6225
   54MOL   C38634412   7.227   1.640   3.442 -0.1635 -0.0719 -0.1369
   54MOL   O38734413   7.128   1.661   3.375  0.0846 -0.3661 -0.5889
   54MOL   C38834414   7.251   1.698   3.577 -0.0887  0.0042 -0.2318
   54MOL   C38934415   7.162   1.816   3.607 -0.5248 -0.2901 -0.4081
   54MOL   C39034416   7.195   1.943   3.527  0.7859  0.0920  0.5209
   54MOL   C39134417   7.113   2.062   3.576  0.3578 -0.4602  0.0655
   54MOL   C39234418   7.167   2.193   3.515  0.1789 -0.0652 -0.1845
   54MOL   O39334419   7.112   2.238   3.415 -0.4797  0.4829  0.1619
   54MOL   N39434420   7.264   2.253   3.580  0.0440 -0.1022  0.8078
   54MOL   C39534421   7.330   2.389   3.547 -0.0252 -0.6363 -0.0567
   54MOL   C39634422   7.260   2.518   3.599  0.0369 -0.4387 -0.3226
   54MOL   C39734423   7.194   2.511   3.736  0.1873 -0.0108 -0.3480
   54MOL   C39834424   7.111   2.626   3.772  0.4351 -1.0798 -0.6401
   54MOL   N39934425   7.038   2.595   3.897 -0.2724 -0.3147  0.7253
   54MOL   H40034426   7.214   1.627   3.652 -1.2131  0.1224 -0.6728
   54MOL   H40134427   7.356   1.726   3.589 -0.1161 -0.3451  0.8983
   54MOL   H40234428   7.057   1.793   3.592 -0.6772  0.8367 -1.1126
   54MOL   H40334429   7.162   1.845   3.712  0.2898  2.0889 -1.0283
   54MOL   H40434430   7.187   1.934   3.418  3.5279 -1.0136  0.3734
   54MOL   H40534431   7.302   1.961   3.541  1.3550 -2.0026 -0.9614
   54MOL   H40634432   7.108   2.061   3.684  0.0298  2.6406  0.1217
   54MOL   H40734433   7.014   2.043   3.535  0.9036 -0.1552 -1.4295
   54MOL   H40834434   7.307   2.198   3.653 -0.2868 -1.2404  0.1573
   54MOL   H40934435   7.338   2.406   3.440  0.5647  3.3144  0.5478
   54MOL   H41034436   7.430   2.380   3.588 -0.0871  0.6291  0.4150
   54MOL   H41134437   7.319   2.610   3.593 -0.0466 -0.4115 -0.7272
   54MOL   H41234438   7.175   2.519   3.532  0.4561 -0.5927 -0.8557
   54MOL   H41334439   7.271   2.484   3.809 -1.1475 -0.6959  0.8211
   54MOL   H41434440   7.122   2.429   3.738  2.2826 -1.8716  1.6227
   54MOL   H41534441   7.040   2.668   3.702  1.4894  1.4793 -0.2505
   54MOL   H41634442   7.174   2.715   3.777  0.8473 -1.4327  0.8297
   54MOL   H41734443   6.997   2.506   3.918  0.0593 -0.2717  1.5427
   54MOL   C41834444   7.015   2.679   3.998 -0.7530 -0.6778 -0.3561
   54MOL   O41934445   7.031   2.799   3.984  0.8244  0.9225 -0.0033
   54MOL   C42034446   6.962   2.617   4.132  0.6557 -0.7661  0.6205
   54MOL   C42134447   7.077   2.609   4.236  0.2504  0.0707 -0.2025
   54MOL   C42234448   7.172   2.486   4.210 -0.1068  1.4637 -0.0072
   54MOL   C42334449   7.254   2.468   4.334 -0.7113 -0.5879 -0.3052
   54MOL   C42434450   7.338   2.338   4.333 -0.3469 -0.2410  0.4621
   54MOL   O42534451   7.288   2.234   4.295 -0.0515  0.1813  0.2855
   54MOL   N42634452   7.464   2.354   4.370 -0.5299 -0.6277 -0.6393
   54MOL   C42734453   7.570   2.258   4.347  0.1311  0.0129  0.6898
   54MOL   C42834454   7.604   2.170   4.469 -0.5035  0.1175 -0.1986
   54MOL   C42934455   0.017   2.070   4.432  0.9205  0.9881 -0.0761
   54MOL   C43034456   0.044   1.971   4.538 -0.1820  0.5500  0.0303
   54MOL   N43134457   0.153   1.888   4.494  0.4481  0.2383  0.4898
   54MOL   H43234458   6.893   2.686   4.178  0.3177  0.4722 -1.6520
   54MOL   H43334459   6.912   2.522   4.113 -1.6535  0.1979  1.7016
   54MOL   H43434460   7.132   2.703   4.233 -0.4737  0.4965  0.0415
   54MOL   H43534461   7.042   2.608   4.339 -0.8410 -2.9122 -0.5264
   54MOL   H43634462   7.222   2.500   4.114 -0.4564 -1.0860 -0.5965
   54MOL   H43734463   7.117   2.397   4.180  0.3447  1.2039 -0.0788
   54MOL   H43834464   7.188   2.470   4.421  1.6411 -0.6458  1.5225
   54MOL   H43934465   7.317   2.555   4.354 -3.4492  0.5535  3.8311
   54MOL   H44034466   7.498   2.447   4.390  0.9603 -1.5031  1.0433
   54MOL   H44134467   7.661   2.311   4.320 -0.1994 -0.1655 -0.8059
   54MOL   H44234468   7.553   2.192   4.262  0.4095 -0.3513  0.9128
   54MOL   H44334469   7.638   2.219   4.561 -1.1522 -1.1959  0.7567
   54MOL   H44434470   7.514   2.130   4.515 -0.0811 -2.5999 -1.6274
   54MOL   H44534471   0.107   2.128   4.411  0.4035  1.4174 -1.1803
   54MOL   H44634472   0.000   2.021   4.336  2.5673  0.4723 -0.1141
   54MOL   H44734473   7.660   1.903   4.545  0.0505  0.2417 -0.1028
   54MOL   H44834474   0.063   2.018   4.634  0.2415 -0.5318  0.4819
   54MOL   H44934475   0.181   1.888   4.397 -3.8705 -0.3996 -0.8428
   54MOL   C45034476   0.225   1.800   4.562 -0.8183 -0.9534 -0.2633
   54MOL   O45134477   0.214   1.783   4.684 -0.2688 -0.0312 -0.0762
   54MOL   C45234478   0.325   1.712   4.479 -0.0238 -0.2148 -0.2756
   54MOL   C45334479   0.404   1.615   4.552 -0.1952 -0.1925 -0.3944
   54MOL   C45434480   0.342   1.473   4.548 -0.3025 -0.2955  0.6938
   54MOL   C45534481   0.413   1.374   4.646  0.6645 -0.6639 -0.4171
   54MOL   C45634482   0.569   1.380   4.638 -0.2515 -0.0020 -0.0568
   54MOL   O45734483   0.634   1.306   4.553  0.1687 -0.5040  0.2705
   54MOL   N45834484   0.625   1.453   4.732 -0.7641 -0.1931 -0.0786
   54MOL   C45934485   0.769   1.471   4.754  0.1658  0.2800 -0.3582
   54MOL   C46034486   0.825   1.347   4.830 -0.0838  0.1414 -0.2348
   54MOL   C46134487   0.972   1.365   4.882 -0.2920 -0.3193 -0.9972
   54MOL   C46234488   1.027   1.252   4.975  0.2984  0.0786 -0.7152
   54MOL   N46334489   1.173   1.254   4.989  0.1052  0.4245 -0.6156
   54MOL   H46434490   0.275   1.671   4.391 -1.5553  0.0435  0.4450
   54MOL   H46534491   0.391   1.785   4.432  2.3860 -1.4612  1.1194
   54MOL   H46634492   0.499   1.606   4.500 -0.2511  0.2204 -0.5714
   54MOL   H46734493   0.405   1.642   4.658  0.0218 -1.5528 -0.0380
   54MOL   H46834494   0.354   1.439   4.446 -2.1553  2.5851 -0.5543
   54MOL   H46934495   0.233   1.474   4.555 -0.3136 -1.5637  0.8665
   54MOL   H47034496   0.380   1.272   4.624 -0.1570  0.0778 -2.6626
   54MOL   H47134497   0.376   1.394   4.747 -1.5384  0.5949 -1.4480
   54MOL   H47234498   0.575   1.490   4.811 -1.6214 -0.6607 -0.4004
   54MOL   H47334499   0.802   1.555   4.814  0.4799  1.1218 -1.6845
   54MOL   H47434500   0.809   1.495   4.656  1.8975 -1.5078 -0.1121
   54MOL   H47534501   0.754   1.342   4.913  0.6205  0.7602  0.4155
   54MOL   H47634502   0.823   1.252   4.776 -0.0974 -0.8758  1.4868
   54MOL   H47734503   0.981   1.453   4.945  1.9634 -0.2661 -1.3374
   54MOL   H47834504   1.039   1.387   4.798 -0.5228  0.2337 -1.0348
   54MOL   H47934505   0.980   1.157   4.950  0.8193  0.3471 -2.8201
   54MOL   H48034506   0.986   1.270   5.074  0.4842 -1.4118 -0.3544
   54MOL   H48134507   1.213   1.347   4.986  1.2821  0.1151  3.0510
   54MOL   C48234508   1.248   1.155   5.026  0.5586 -0.0332  0.2451
   54MOL   O48334509   1.201   1.042   5.046  0.3664  0.1021 -0.4427
   54MOL   C48434510   1.401   1.182   5.042 -0.4204 -0.7100  0.5488
   54MOL   C48534511   1.503   1.076   4.999  0.5671 -0.0426 -0.2778
   54MOL   C48634512   1.498   1.041   4.849 -0.2153  0.1392  0.0089
   54MOL   C48734513   1.579   0.920   4.809 -0.2751  0.2206  0.4458
   54MOL   C48834514   1.729   0.947   4.794  0.0023  0.3999  0.3197
   54MOL   O48934515   1.769   1.061   4.807 -0.0560  0.0042  0.0840
   54MOL   N49034516   1.817   0.847   4.791  0.3640 -0.2106 -0.1467
   54MOL   C49134517   1.784   0.705   4.768 -0.0865  0.1829  1.1505
   54MOL   C49234518   1.814   0.629   4.897  0.4295 -0.9691  0.0290
   54MOL   C49334519   1.745   0.496   4.914 -0.4003 -0.7396 -0.2763
   54MOL   C49434520   1.740   0.447   5.058  0.4341  0.3934  0.0063
   54MOL   N49534521   1.661   0.321   5.060  0.4564  0.2926 -0.4229
   54MOL   H49634522   1.427   1.280   5.002  4.5466 -1.3448  1.8893
   54MOL   H49734523   1.418   1.195   5.149  2.9406 -1.9695  0.2156
   54MOL   H49834524   1.605   1.102   5.027  0.0068 -0.9781  2.8542
   54MOL   H49934525   1.488   0.983   5.055 -2.6396 -0.8342 -2.3108
   54MOL   H50034526   1.540   1.120   4.787 -1.5135 -1.7680 -3.4251
   54MOL   H50134527   1.395   1.019   4.822 -0.5288  0.2047  1.1031
   54MOL   H50234528   1.539   0.891   4.711 -0.9959  1.8516  0.2536
   54MOL   H50334529   1.566   0.834   4.875 -2.3143  1.3725  1.5770
   54MOL   H50434530   1.915   0.865   4.802  0.5262 -0.8226 -0.5455
   54MOL   H50534531   1.833   0.660   4.682 -0.2410  3.1569 -0.5770
   54MOL   H50634532   1.678   0.701   4.746 -0.4868  3.6330  2.1373
   54MOL   H50734533   1.922   0.614   4.904  0.6301 -0.4372 -1.6830
   54MOL   H50834534   1.781   0.689   4.982  1.1010  0.0052 -0.3958
   54MOL   H50934535   1.798   0.420   4.856  4.1288  1.4114  0.8644
   54MOL   H51034536   1.645   0.509   4.874 -0.6593  0.5082  0.7449
   54MOL   H51134537   1.672   0.507   5.119 -0.9545 -1.2166  0.0696
   54MOL   H51234538   1.837   0.429   5.102  1.4477 -0.4290 -2.4560
   54MOL   H51334539   1.560   0.325   5.051  0.6403  2.1851 -1.9020
   54MOL   C51434540   1.714   0.198   5.071 -0.0837  0.3417  0.0158
   54MOL   O51534541   1.836   0.175   5.065  0.1751 -0.3522 -0.3622
   54MOL   C51634542   1.603   0.089   5.063  0.4448  0.2668  0.4389
   54MOL   C51734543   1.603   7.688   5.169  0.7993  0.6572 -0.9395
   54MOL   C51834544   1.624   0.046   5.311  0.0248  0.5476  0.1228
   54MOL   C51934545   1.774   0.039   5.361 -0.1113 -0.1568  0.4823
   54MOL   C52034546   1.804   0.144   5.464  0.2396  0.5468  0.2261
   54MOL   O52134547   1.757   0.133   5.577 -0.6843 -0.1692  0.5121
   54MOL   N52234548   1.874   0.245   5.420  0.6609  0.4165 -0.2393
   54MOL   C52334549   1.917   0.356   5.510  0.1021 -0.1978 -0.1746
   54MOL   C52434550   1.927   0.492   5.425  0.0787  0.0973 -0.0015
   54MOL   C52534551   2.012   0.602   5.500  0.3306 -0.0170  0.7839
   54MOL   C52634552   1.946   0.653   5.627 -0.3507 -0.4335  0.4131
   54MOL   N52734553   2.026   0.759   5.686 -0.6062 -0.0743 -0.0930
   54MOL   H52834554   1.504   0.134   5.060  0.3710  0.2519  2.1914
   54MOL   H52934555   1.624   0.032   4.972 -1.1034  1.9410 -1.0184
   54MOL   H53034556   1.506   7.638   5.166  1.4646 -0.8400  0.9062
   54MOL   H53134557   1.669   7.604   5.148  0.9237  0.7425 -0.8903
   54MOL   H53234558   1.565   7.694   5.386  1.2739 -0.3355  0.4885
   54MOL   H53334559   1.585   0.148   5.309  1.9671  1.2902 -0.4997
   54MOL   H53434560   1.840   0.050   5.275 -0.3142  1.3844  0.5107
   54MOL   H53534561   1.796   7.649   5.416 -0.9658 -0.6780 -0.0188
   54MOL   H53634562   1.904   0.248   5.324 -0.1470  3.0444 -0.4513
   54MOL   H53734563   2.014   0.319   5.545 -0.6038 -0.0546  1.9936
   54MOL   H53834564   1.851   0.371   5.596  0.6662  1.4402  0.0004
   54MOL   H53934565   1.964   0.488   5.323 -1.2571 -2.0951 -0.4326
   54MOL   H54034566   1.826   0.528   5.412  0.1138 -0.4800 -1.9817
   54MOL   H54134567   2.021   0.675   5.419  2.8629 -2.5130 -1.2933
   54MOL   H54234568   2.116   0.569   5.508  0.0416 -1.8790 -2.4373
   54MOL   H54334569   1.929   0.569   5.694  0.1702 -1.3630 -0.5946
   54MOL   H54434570   1.843   0.682   5.608 -0.4657 -0.3327  1.1571
   54MOL   H54534571   2.075   0.730   5.769  0.8902 -0.9655 -1.2614
   54MOL   C54634572   2.030   0.884   5.644  0.5680 -0.4467  0.6917
   54MOL   O54734573   1.963   0.919   5.549 -0.7051  0.4276 -0.1249
   54MOL   C54834574   2.128   0.983   5.720  0.5530  0.2062 -0.0244
   54MOL   C54934575   2.274   0.951   5.679  0.1283 -0.2972  0.2435
   54MOL   C55034576   2.324   1.011   5.543  0.7915  0.2249  0.4272
   54MOL   C55134577   2.273   0.922   5.429  0.5857  0.6174  0.1740
   54MOL   C55234578   2.369   0.928   5.309 -0.4746 -0.4001  0.3355
   54MOL   O55334579   2.452   0.844   5.300 -0.2718  0.4181 -0.2468
   54MOL   N55434580   2.349   1.025   5.221 -0.0267  0.0560  0.6420
   54MOL   C55534581   2.449   1.075   5.121 -0.1538  0.2225 -0.7282
   54MOL   C55634582   2.540   1.185   5.189 -0.9431 -0.1324  0.3687
   54MOL   C55734583   2.623   1.262   5.087  0.3244  0.6546  0.1950
   54MOL   C55834584   2.703   1.376   5.150  0.8177 -0.3348  0.0038
   54MOL   N55934585   2.768   1.459   5.046 -0.3284 -0.5200 -1.2319
   54MOL   H56034586   2.117   1.090   5.706  1.5035  0.6291  2.2382
   54MOL   H56134587   2.116   0.965   5.827 -1.6610 -0.3744 -0.3470
   54MOL   H56234588   2.326   1.002   5.760 -0.4630  2.8245 -1.3067
   54MOL   H56334589   2.300   0.846   5.694  2.0105  0.1162 -0.0512
   54MOL   H56434590   2.433   1.003   5.547  0.8353  1.3484  1.9954
   54MOL   H56534591   2.299   1.116   5.534  0.3551  0.0022 -1.0874
   54MOL   H56634592   2.176   0.957   5.395  0.5889 -0.5677 -1.1026
   54MOL   H56734593   2.274   0.815   5.450  0.6297  1.1627  3.2317
   54MOL   H56834594   2.266   1.083   5.218 -0.6793 -0.9193 -0.7320
   54MOL   H56934595   2.396   1.128   5.043 -2.2729  0.0317  0.5325
   54MOL   H57034596   2.513   0.992   5.090 -0.4447  0.0603 -0.8956
   54MOL   H57134597   2.472   1.243   5.251 -1.1046  0.4549 -0.3460
   54MOL   H57234598   2.612   1.138   5.256 -0.2535 -0.4241 -0.5706
   54MOL   H57334599   2.551   1.306   5.019  1.7885  0.8717 -1.2249
   54MOL   H57434600   2.681   1.192   5.028  1.5159  2.6877 -1.0546
   54MOL   H57534601   2.778   1.346   5.223  0.2012  0.1092  0.8265
   54MOL   H57634602   2.633   1.442   5.202  1.4423 -0.1055  0.5605
   54MOL   H57734603   2.869   1.452   5.038 -0.0730 -0.4159  1.3710
   54MOL   C57834604   2.703   1.555   4.982 -0.0709  0.2486  0.1609
   54MOL   O57934605   2.581   1.552   4.966 -0.4474  0.0683 -0.3459
   54MOL   C58034606   2.786   1.669   4.919  0.1691  0.2118 -0.0874
   54MOL   C58134607   2.708   1.767   4.830  0.1022 -0.2219  0.6152
   54MOL   C58234608   2.668   1.694   4.692 -0.2099 -0.2117 -0.2536
   54MOL   C58334609   2.564   1.777   4.605  0.1227  0.5946 -0.4220
   54MOL   C58434610   2.603   1.908   4.555  0.7540 -0.0222 -0.6559
   54MOL   O58534611   2.716   1.945   4.563 -0.0110 -0.0089 -0.0404
   54MOL   N58634612   2.506   1.980   4.497 -0.2613 -0.8199  0.2135
   54MOL   C58734613   2.509   2.113   4.428  0.1372 -0.3871 -0.6385
   54MOL   C58834614   2.546   2.098   4.279 -0.8040 -0.1847  0.0207
   54MOL   C58934615   2.557   2.237   4.215  0.4341 -0.5833  0.0895
   54MOL   C59034616   2.591   2.237   4.066  0.6695 -0.3731  0.2586
   54MOL   N59134617   2.714   2.167   4.038  0.6450 -0.0734 -0.0079
   54MOL   H59234618   2.823   1.729   5.003  0.7275  1.3323 -1.1124
   54MOL   H59334619   2.874   1.626   4.871  1.0385  2.5800 -0.7006
   54MOL   H59434620   2.628   1.812   4.889 -0.0184  2.8194 -1.7427
   54MOL   H59534621   2.775   1.852   4.817  0.0894 -0.0348  1.7211
   54MOL   H59634622   2.613   1.600   4.701 -3.1618  1.3887 -0.9029
   54MOL   H59734623   2.756   1.683   4.628 -1.2006  0.2552 -1.7112
   54MOL   H59834624   2.466   1.788   4.652 -0.9439 -1.3801 -2.0835
   54MOL   H59934625   2.548   1.714   4.517  1.1440  0.2674 -0.3750
   54MOL   H60034626   2.413   1.947   4.514 -0.4968  0.0564  0.6974
   54MOL   H60134627   2.580   2.181   4.475 -1.7365  1.0608  0.1341
   54MOL   H60234628   2.416   2.166   4.442  0.4285 -0.6504  2.6564
   54MOL   H60334629   2.640   2.042   4.276 -0.8855 -0.3040 -0.3300
   54MOL   H60434630   2.481   2.040   4.214  1.2222 -0.2317 -2.0041
   54MOL   H60534631   2.635   2.294   4.265  1.0148  1.3740 -2.9085
   54MOL   H60634632   2.456   2.276   4.232  0.8670  0.2863  0.6887
   54MOL   H60734633   2.593   2.333   4.015  0.8854 -2.0102 -2.9615
   54MOL   H60834634   2.514   2.174   4.021  0.0192 -1.4184  2.7371
   54MOL   H60934635   2.773   2.152   4.119  1.4882 -1.0284 -0.7924
   54MOL   C61034636   2.761   2.119   3.925 -0.1556  0.4569  0.9316
   54MOL   O61134637   2.711   2.146   3.818  0.5890  0.5712  0.2953
   54MOL   C61234638   2.886   2.031   3.931  0.2752 -0.4695 -0.5194
   54MOL   C61334639   2.866   1.907   3.846  0.0968 -0.2559 -0.3471
   54MOL   C61434640   2.972   1.803   3.853  0.1505  0.8982 -0.0096
   54MOL   C61534641   2.943   1.687   3.760  0.0322 -0.2513  0.1573
   54MOL   C61634642   2.843   1.581   3.818 -0.2539  0.7482 -0.3599
   54MOL   O61734643   2.874   1.520   3.921  0.7900  0.4881  0.4240
   54MOL   N61834644   2.730   1.563   3.748 -0.7562  0.2721 -0.3187
   54MOL   C61934645   2.620   1.479   3.797  0.3386  0.8957  0.2682
   54MOL   C62034646   2.554   1.389   3.698 -0.2965 -0.0844  0.5743
   54MOL   C62134647   2.493   1.459   3.574 -0.2765 -0.3571 -0.0375
   54MOL   C62234648   2.406   1.383   3.486 -0.0006 -0.0129 -0.6772
   54MOL   N62334649   2.356   1.458   3.377 -0.1878 -0.1028  0.0702
   54MOL   H62434650   2.969   2.097   3.905 -2.5625  3.4659 -0.0733
   54MOL   H62534651   2.899   2.008   4.037  0.1860 -0.0454 -0.4164
   54MOL   H62634652   2.772   1.857   3.868  1.4627 -1.5323  2.8816
   54MOL   H62734653   2.860   1.947   3.745 -3.2605 -2.6628 -1.1971
   54MOL   H62834654   2.989   1.775   3.957  0.6466  0.2090 -0.2718
   54MOL   H62934655   3.071   1.843   3.830  1.4416 -1.7093  0.7594
   54MOL   H63034656   3.044   1.650   3.741  1.1889  2.8908 -0.0161
   54MOL   H63134657   2.905   1.732   3.669 -3.7384  1.9164  2.6282
   54MOL   H63234658   2.725   1.606   3.657  0.6554  3.8154  1.2093
   54MOL   H63334659   2.540   1.536   3.844  0.6070  0.4551  1.2619
   54MOL   H63434660   2.660   1.416   3.876  3.7420  1.5039 -0.8527
   54MOL   H63534661   2.628   1.318   3.664 -0.3637 -0.6155  1.5339
   54MOL   H63634662   2.478   1.334   3.752  0.5989 -3.4258 -1.4503
   54MOL   H63734663   2.561   1.505   3.502  1.1662 -1.6277  0.4968
   54MOL   H63834664   2.428   1.534   3.619 -0.4490 -1.0939  0.9583
   54MOL   H63934665   2.326   1.326   3.534  0.9636  1.0506  2.2898
   54MOL   H64034666   2.460   1.299   3.441 -1.8003 -1.9088  0.5949
   54MOL   H64134667   2.327   1.391   3.307 -1.9305  0.7161 -0.0427
   54MOL   H64234668   2.267   1.500   3.399 -0.4204 -1.1044  1.0929
   55MOL     C134669   6.943   0.779   1.213  0.5165  0.0711 -0.7765
   55MOL     O234670   6.906   0.861   1.299 -0.0337 -0.4429 -0.2322
   55MOL     C334671   7.055   0.827   1.126  0.5515  0.0923  0.6027
   55MOL     C434672   7.036   0.964   1.080  0.3390  0.6463 -0.1338
   55MOL     C534673   7.129   0.997   0.958  0.0750  0.1870 -0.7796
   55MOL     C634674   7.087   0.931   0.824  0.8053  0.5033 -0.0070
   55MOL     C734675   7.205   0.932   0.723 -0.6783 -0.8050 -0.0194
   55MOL     O834676   7.295   1.019   0.735  0.6251  0.3924  0.6312
   55MOL     N934677   7.204   0.833   0.635 -0.6863 -0.5743 -0.7444
   55MOL    C1034678   7.310   0.816   0.534  0.5449 -0.0910  0.6808
   55MOL    C1134679   7.277   0.874   0.395 -0.5890 -0.0297  0.0742
   55MOL    C1234680   7.348   0.805   0.280 -0.0235  0.0107 -0.5872
   55MOL    C1334681   7.269   0.802   0.152 -0.0561 -0.0993  0.3397
   55MOL    N1434682   7.154   0.720   0.170  0.5516 -0.2018  0.2598
   55MOL    H1534683   7.149   0.818   1.181  0.6457  0.4879  0.5073
   55MOL    H1634684   7.067   0.756   1.043  1.1425  0.0453  0.7220
   55MOL    H1734685   6.939   0.980   1.034 -0.9256 -1.5120  1.6834
   55MOL    H1834686   7.049   1.035   1.162  2.8572  1.2479 -1.0169
   55MOL    H1934687   7.234   0.989   0.987  0.2164  0.6877 -1.1525
   55MOL    H2034688   7.122   1.104   0.937 -1.2643  0.3900  0.5466
   55MOL    H2134689   6.998   0.977   0.783  0.0626 -0.8630  0.0334
   55MOL    H2234690   7.056   0.827   0.841 -2.3627  1.3003 -0.7040
   55MOL    H2334691   7.132   0.764   0.648  0.1003 -1.4786 -1.0634
   55MOL    H2434692   7.324   0.708   0.535 -1.3062 -0.3805 -1.4283
   55MOL    H2534693   7.406   0.859   0.563  0.5152 -0.3042  1.0988
   55MOL    H2634694   7.169   0.881   0.384 -0.5890 -0.0212  0.0809
   55MOL    H2734695   7.312   0.977   0.391  0.0547 -0.2278  0.5380
   55MOL    H2834696   7.370   0.702   0.308  0.8368  1.0891  2.8668
   55MOL    H2934697   7.435   0.869   0.265  1.4803 -1.1123  2.7560
   55MOL    H3034698   7.328   0.780   0.063  0.6102  0.9491  0.5133
   55MOL    H3134699   7.241   0.906   0.130  0.7743  0.5798  2.4290
   55MOL    H3234700   7.067   0.768   0.187  0.4892 -0.5337  0.8754
   55MOL    H3334701   6.901   0.681   1.189 -1.6481  1.0450 -1.1048
   55MOL    C3434702   7.144   0.587   0.168  0.1048 -0.5692 -0.4531
   55MOL    O3534703   7.244   0.513   0.163  0.1155  0.2642 -0.3771
   55MOL    C3634704   7.004   0.531   0.210 -0.3644 -0.3143  0.4623
   55MOL    C3734705   6.993   0.502   0.363 -0.5437 -0.4616  0.3639
   55MOL    C3834706   7.006   0.629   0.452 -0.0782  0.0623  0.8076
   55MOL    C3934707   6.888   0.729   0.470  0.5616  0.5583 -0.0615
   55MOL    C4034708   6.826   0.790   0.342  0.7647  0.4946  0.4171
   55MOL    O4134709   6.903   0.829   0.254 -0.7530 -0.3413 -0.0739
   55MOL    N4234710   6.690   0.798   0.337 -0.5859 -0.0551 -0.1371
   55MOL    C4334711   6.614   0.839   0.223 -0.2755  0.2678 -0.6377
   55MOL    C4434712   6.498   0.932   0.274 -0.7108  0.4927  1.1351
   55MOL    C4534713   6.439   0.889   0.407  0.0431  0.0635 -0.6201
   55MOL    C4634714   6.333   0.986   0.466  0.2719  0.4816  1.0387
   55MOL    N4734715   6.264   0.930   0.579 -0.1307 -0.4953  0.2363
   55MOL    H4834716   6.919   0.584   0.167 -0.4059 -0.9736 -0.2953
   55MOL    H4934717   6.998   0.442   0.146 -1.4870 -0.3645  0.6380
   55MOL    H5034718   6.895   0.469   0.397 -1.1774  0.7641 -0.2303
   55MOL    H5134719   7.069   0.434   0.402 -0.3034 -0.4388 -0.0604
   55MOL    H5234720   7.092   0.684   0.414 -1.2250  1.4274  0.1457
   55MOL    H5334721   7.033   0.598   0.553  0.0672  0.5273  0.9120
   55MOL    H5434722   6.915   0.809   0.539  1.9160 -2.0198  2.5088
   55MOL    H5534723   6.805   0.675   0.515  3.1390 -2.9804  0.6069
   55MOL    H5634724   6.631   0.753   0.406  0.7493 -0.5480  0.7132
   55MOL    H5734725   6.569   0.747   0.184  0.5231 -0.8412  1.0150
   55MOL    H5834726   6.668   0.875   0.136 -1.4275 -2.1140 -2.4176
   55MOL    H5934727   6.533   1.032   0.296 -2.2298  1.0747  0.9501
   55MOL    H6034728   6.419   0.918   0.199  1.1190 -0.1468 -0.7037
   55MOL    H6134729   6.520   0.887   0.479 -1.5356  2.2990  1.2773
   55MOL    H6234730   6.405   0.785   0.399 -0.2674  0.1983 -1.1114
   55MOL    H6334731   6.268   1.006   0.381  3.3065  1.9729 -1.0141
   55MOL    H6434732   6.378   1.080   0.498  2.0153  1.0505 -2.7535
   55MOL    H6534733   6.192   0.862   0.559  0.9582 -1.5960  0.0138
   55MOL    C6634734   6.318   0.931   0.697 -0.0320 -0.1888  0.2321
   55MOL    O6734735   6.421   0.994   0.715  0.1971  0.4655 -0.1371
   55MOL    C6834736   6.243   0.853   0.809  0.0230 -0.6964 -0.7985
   55MOL    C6934737   6.198   0.934   0.932  0.4811 -0.3036 -0.0007
   55MOL    C7034738   6.104   0.864   1.027 -0.3677 -0.1186  0.0003
   55MOL    C7134739   6.037   0.955   1.134  0.1157 -0.0667  0.6103
   55MOL    C7234740   5.932   0.880   1.216 -0.1101 -0.0888 -0.1345
   55MOL    O7334741   5.971   0.812   1.311  0.0796  0.1166  1.0292
   55MOL    N7434742   5.808   0.897   1.178  0.0632  0.6826  0.8580
   55MOL    C7534743   5.698   0.816   1.225  0.2124  0.4967 -0.6067
   55MOL    C7634744   5.606   0.755   1.114 -0.0519 -0.1272 -0.0530
   55MOL    C7734745   5.671   0.644   1.025 -0.3029  0.6690  0.5983
   55MOL    C7834746   5.703   0.519   1.110  0.5893 -0.0284  0.0603
   55MOL    N7934747   5.793   0.425   1.039 -0.0547 -0.7249  0.2502
   55MOL    H8034748   6.157   0.807   0.762 -0.7204  0.5053 -0.6243
   55MOL    H8134749   6.306   0.774   0.849 -0.7913 -2.1800 -2.4038
   55MOL    H8234750   6.288   0.959   0.989 -0.7817  1.5952  1.2029
   55MOL    H8334751   6.147   1.023   0.898 -0.5993 -1.4589 -1.4773
   55MOL    H8434752   6.151   0.779   1.078 -1.5929 -0.1920  1.0389
   55MOL    H8534753   6.024   0.823   0.967 -0.0801 -0.2675 -0.2830
   55MOL    H8634754   6.003   1.045   1.083  2.2174  1.6016  2.0732
   55MOL    H8734755   6.106   0.990   1.211  2.1669  0.5344 -1.4311
   55MOL    H8834756   5.784   0.957   1.100  0.0365 -0.7157 -0.2320
   55MOL    H8934757   5.636   0.881   1.287 -1.7969 -0.6823 -1.3296
   55MOL    H9034758   5.730   0.737   1.294  1.3997 -0.6885 -2.4683
   55MOL    H9134759   5.511   0.735   1.164  0.0154  1.3499  0.6716
   55MOL    H9234760   5.570   0.829   1.042 -1.8817 -1.3236 -0.4092
   55MOL    H9334761   5.762   0.684   0.980  0.1601 -0.9034  0.1222
   55MOL    H9434762   5.597   0.622   0.948 -2.2385 -1.5741  2.9970
   55MOL    H9534763   5.617   0.463   1.147 -0.5486  1.2928 -0.5554
   55MOL    H9634764   5.757   0.551   1.199 -0.4734  0.3437  0.5873
   55MOL    H9734765   5.893   0.438   1.044 -0.1074  0.2235 -0.9343
   55MOL    C9834766   5.753   0.327   0.955  0.0586  0.3034  0.7258
   55MOL    O9934767   5.634   0.311   0.931  0.0473 -0.0394  0.2263
   55MOL   C10034768   5.862   0.235   0.896  0.4029 -0.5207  0.1033
   55MOL   C10134769   5.816   0.097   0.855 -0.1386 -0.3889 -0.2552
   55MOL   C10234770   5.779   0.008   0.976  0.1765 -0.0462 -0.1428
   55MOL   C10334771   5.899   7.671   1.063 -0.5185  0.1685  0.0147
   55MOL   C10434772   5.861   7.568   1.174  0.2816  0.0307  0.9765
   55MOL   O10534773   5.740   7.551   1.189  0.4517 -0.2768  0.0305
   55MOL   N10634774   5.953   7.501   1.236 -0.0966 -0.4014 -0.1857
   55MOL   C10734775   5.938   7.385   1.321 -0.3353 -0.1581 -0.1436
   55MOL   C10834776   5.955   7.420   1.474 -0.3758  0.1468 -0.1182
   55MOL   C10934777   5.871   7.538   1.518  0.4283  0.6547  0.5238
   55MOL   C11034778   5.715   7.521   1.522 -0.6506 -0.1422  0.0012
   55MOL   N11134779   5.656   7.622   1.609  0.0643 -0.4434 -0.0590
   55MOL   H11234780   5.903   0.297   0.817  1.1380 -1.1656 -0.0354
   55MOL   H11334781   5.947   0.230   0.964  0.5226 -0.1840 -0.0230
   55MOL   H11434782   5.731   0.111   0.789 -1.8737 -2.6118  1.4716
   55MOL   H11534783   5.895   0.047   0.799 -0.3961 -0.6477 -0.3817
   55MOL   H11634784   5.740   7.621   0.926  0.1213  2.0825 -4.0806
   55MOL   H11734785   5.699   0.049   1.038  2.2401 -0.4186  2.8669
   55MOL   H11834786   5.942   0.056   1.115  0.1422 -1.3352  2.0245
   55MOL   H11934787   5.987   7.640   1.007 -0.8717 -0.7490 -0.0391
   55MOL   H12034788   6.049   7.513   1.208 -0.3097  1.6618 -0.1478
   55MOL   H12134789   6.002   7.301   1.294  2.3388  1.2175  1.8066
   55MOL   H12234790   5.838   7.348   1.295 -1.4746  1.7781  1.3520
   55MOL   H12334791   5.932   7.336   1.540 -0.4401  1.0090  0.9808
   55MOL   H12434792   6.059   7.448   1.493 -0.7368  1.2990  0.2217
   55MOL   H12534793   5.903   7.630   1.469 -1.3736  1.4277  0.7835
   55MOL   H12634794   5.907   7.557   1.620  0.0418  0.8454  0.6232
   55MOL   H12734795   5.686   7.425   1.566  1.5788 -0.4480  0.9142
   55MOL   H12834796   5.678   7.527   1.420 -0.9749 -1.1560  0.0496
   55MOL   H12934797   5.607   0.001   1.570 -1.0093 -1.3573 -0.6148
   55MOL   C13034798   5.660   7.609   1.740 -0.6183 -0.5137 -0.6011
   55MOL   O13134799   5.693   7.500   1.792 -0.5841  0.0490  0.4110
   55MOL   C13234800   5.626   0.025   1.836  0.0944  0.6187  0.0418
   55MOL   C13334801   5.571   7.690   1.975  0.2163  0.3196  0.0532
   55MOL   C13434802   5.689   7.651   2.064  0.3343  0.1416  0.5367
   55MOL   C13534803   5.663   7.638   2.214  0.4128  0.1245 -0.4991
   55MOL   C13634804   5.641   0.074   2.279  0.4515  0.2729 -0.0185
   55MOL   O13734805   5.733   0.154   2.281  0.2699  0.1476 -0.6598
   55MOL   N13834806   5.527   0.092   2.342  0.1483 -0.4206 -0.7772
   55MOL   C13934807   5.478   0.211   2.420  0.9957 -0.2101 -0.3507
   55MOL   C14034808   5.322   0.218   2.404  0.9971  0.4012  0.0588
   55MOL   C14134809   5.268   0.340   2.479 -0.2589  0.4506  0.2596
   55MOL   C14234810   5.120   0.348   2.461  0.7981  0.0441  0.1090
   55MOL   N14334811   5.066   0.458   2.538 -0.4883 -0.2673  0.3323
   55MOL   H14434812   5.713   0.091   1.840  0.2349  0.4919 -0.7856
   55MOL   H14534813   5.536   0.073   1.797 -0.6218  0.3668  1.3491
   55MOL   H14634814   5.523   0.082   2.006  0.1620  0.1422  0.5126
   55MOL   H14734815   5.499   7.609   1.983  1.2195 -0.4780  1.2558
   55MOL   H14834816   5.784   0.002   2.050  0.1752  0.2080 -0.3381
   55MOL   H14934817   5.712   7.546   2.047 -2.7650 -0.2166 -1.8683
   55MOL   H15034818   5.750   7.599   2.266  2.2543  2.0213 -2.0774
   55MOL   H15134819   5.585   7.564   2.233 -0.8291  1.4909 -0.1678
   55MOL   H15234820   5.466   0.011   2.341  0.2509 -0.4944 -1.1501
   55MOL   H15334821   5.524   0.301   2.380 -0.3744  0.7845  0.2556
   55MOL   H15434822   5.507   0.200   2.524 -1.6308  0.6547  0.5202
   55MOL   H15534823   5.289   0.222   2.300  1.1358 -1.9361 -0.0902
   55MOL   H15634824   5.265   0.136   2.447 -0.1326 -0.7130 -3.3458
   55MOL   H15734825   5.311   0.428   2.430  1.1300 -1.5614 -2.2306
   55MOL   H15834826   5.294   0.340   2.585 -0.1615  0.1681  0.2358
   55MOL   H15934827   5.077   0.260   2.507 -1.2334  0.7764 -0.3555
   55MOL   H16034828   5.081   0.348   2.359 -2.5565 -1.4797  1.3268
   55MOL   H16134829   5.128   0.518   2.590 -0.5865  0.6726 -0.5985
   55MOL   C16234830   4.936   0.494   2.530 -0.2883 -0.2558  0.1641
   55MOL   O16334831   4.842   0.424   2.485  0.6338 -0.2309 -0.5621
   55MOL   C16434832   4.907   0.627   2.594  0.2177 -0.1457 -0.7075
   55MOL   C16534833   4.759   0.654   2.631 -0.6696 -0.0581 -0.3478
   55MOL   C16634834   4.731   0.744   2.755 -0.6342 -0.0091 -0.0560
   55MOL   C16734835   4.579   0.779   2.760 -0.0316  0.1386  0.4298
   55MOL   C16834836   4.547   0.881   2.869  0.1566 -0.0304 -0.3269
   55MOL   O16934837   4.636   0.915   2.944 -0.6844 -0.0863  0.4177
   55MOL   N17034838   4.422   0.917   2.875 -0.2148  0.3737 -0.3223
   55MOL   C17134839   4.370   1.037   2.947 -0.4143  0.2713 -0.5974
   55MOL   C17234840   4.337   1.150   2.849  0.2992  0.2303 -0.8813
   55MOL   C17334841   4.293   1.284   2.913  0.1778 -0.1563 -0.3358
   55MOL   C17434842   4.296   1.388   2.800 -0.0533  0.5683  0.1251
   55MOL   N17534843   4.286   1.527   2.855  0.2241  0.6305  0.4119
   55MOL   H17634844   4.980   0.653   2.671 -0.3172  3.1643 -1.2427
   55MOL   H17734845   4.934   0.699   2.516  1.4541 -0.2587 -0.3978
   55MOL   H17834846   4.688   0.678   2.552 -2.4191 -0.6309  0.9955
   55MOL   H17934847   4.719   0.555   2.655  0.9935 -0.2015  1.9647
   55MOL   H18034848   4.781   0.840   2.739  2.1125 -1.5525 -1.0287
   55MOL   H18134849   4.769   0.700   2.847  0.6384 -0.8053 -0.9552
   55MOL   H18234850   4.536   0.682   2.786  0.7042  0.3023  2.3702
   55MOL   H18334851   4.534   0.819   2.669  0.1711 -1.5900 -0.4487
   55MOL   H18434852   4.356   0.876   2.811 -0.4814 -0.2700  0.3631
   55MOL   H18534853   4.444   1.078   3.015  0.0980 -1.3115 -0.1664
   55MOL   H18634854   4.288   1.013   3.014  0.1180 -2.0427 -0.7131
   55MOL   H18734855   4.422   1.166   2.782  0.2075  4.4186 -0.1605
   55MOL   H18834856   4.261   1.105   2.785 -1.2268  2.1937 -0.5128
   55MOL   H18934857   4.370   1.306   2.988  0.7546  0.3363 -1.0633
   55MOL   H19034858   4.198   1.269   2.963 -0.1613 -0.5982 -1.1048
   55MOL   H19134859   4.212   1.371   2.734  0.3815 -1.8676  0.1592
   55MOL   H19234860   4.388   1.384   2.742  0.1580 -1.0354  0.5543
   55MOL   H19334861   4.357   1.553   2.921 -0.5633  0.0126  1.5145
   55MOL   C19434862   4.187   1.613   2.823 -0.0739 -0.0133  1.0727
   55MOL   O19534863   4.102   1.582   2.741  0.3610 -0.6919 -0.0515
   55MOL   C19634864   4.194   1.752   2.887 -0.9064 -0.1175 -0.2150
   55MOL   C19734865   4.090   1.858   2.830  0.9464  0.1985 -0.1265
   55MOL   C19834866   4.048   1.965   2.929 -0.1550 -0.5262 -0.3349
   55MOL   C19934867   3.958   2.077   2.871 -0.0646 -0.2722 -0.4862
   55MOL   C20034868   4.034   2.193   2.808 -0.3481 -0.8939  0.0466
   55MOL   O20134869   4.157   2.187   2.801  0.5060 -0.3417 -0.7135
   55MOL   N20234870   3.967   2.293   2.769  0.6011  0.2156  0.0433
   55MOL   C20334871   4.025   2.420   2.732 -0.7705  0.2568  0.1372
   55MOL   C20434872   3.945   2.542   2.786 -0.6749 -0.3826 -0.1094
   55MOL   C20534873   3.943   2.559   2.939  0.7164  0.6589 -0.2367
   55MOL   C20634874   3.857   2.677   2.975 -0.1737 -0.1461  0.4778
   55MOL   N20734875   3.852   2.687   3.120  0.1462  0.6385  0.3842
   55MOL   H20834876   4.159   1.719   2.985 -0.9619 -2.6552 -1.0641
   55MOL   H20934877   4.291   1.793   2.917 -2.4080  2.3302  1.5180
   55MOL   H21034878   4.134   1.907   2.743 -1.6493  1.8649 -0.5396
   55MOL   H21134879   4.005   1.809   2.781 -1.4949  2.6189  1.5625
   55MOL   H21234880   4.138   1.992   2.984 -0.4286  0.2677 -0.2824
   55MOL   H21334881   3.983   1.924   3.006 -0.4924 -1.1343 -0.9351
   55MOL   H21434882   3.886   2.106   2.948  2.6354  0.3872  1.8926
   55MOL   H21534883   3.897   2.032   2.793 -3.0702  2.9689 -0.0987
   55MOL   H21634884   3.867   2.279   2.772  0.5098  0.8652 -0.0783
   55MOL   H21734885   4.024   2.424   2.623  2.9495 -2.3784 -0.1014
   55MOL   H21834886   4.126   2.432   2.772  0.7482 -1.6025 -2.8855
   55MOL   H21934887   3.993   2.624   2.733 -0.2373  0.0399  0.9289
   55MOL   H22034888   3.837   2.541   2.771 -0.2128  0.1437 -3.9877
   55MOL   H22134889   4.046   2.576   2.970  0.0036  2.6691  1.1657
   55MOL   H22234890   3.896   2.472   2.986 -0.9864  0.8590 -1.5243
   55MOL   H22334891   3.755   2.664   2.940  0.2620 -1.7371 -0.2566
   55MOL   H22434892   3.910   2.755   2.921  0.7812  0.2093  1.9017
   55MOL   H22534893   3.788   2.627   3.169 -0.8619 -0.2443 -1.9576
   55MOL   C22634894   3.936   2.755   3.194  0.0005 -0.1736  0.0524
   55MOL   O22734895   4.024   2.828   3.153  0.5550  0.3769 -0.2605
   55MOL   C22834896   3.900   2.755   3.340 -0.0973  0.1868  0.7023
   55MOL   C22934897   4.020   2.763   3.436 -0.2882  0.5249 -0.0679
   55MOL   C23034898   3.981   2.788   3.582  0.6892  0.4047  0.3685
   55MOL   C23134899   4.091   2.799   3.680 -0.1894 -0.0993 -0.2231
   55MOL   C23234900   4.180   2.915   3.674 -0.5702  0.1655 -0.3161
   55MOL   O23334901   4.297   2.909   3.715  0.1832  0.1347 -0.0994
   55MOL   N23434902   4.129   3.028   3.627 -0.3612  0.7811  0.3527
   55MOL   C23534903   4.200   3.158   3.614 -0.1737 -0.1353 -0.0083
   55MOL   C23634904   4.111   3.277   3.647  0.0963  0.4916 -0.1994
   55MOL   C23734905   4.180   3.410   3.604  0.1184  1.1722 -0.0444
   55MOL   C23834906   4.112   3.531   3.654  0.6741  0.1358 -1.1267
   55MOL   N23934907   3.982   3.551   3.600 -0.4160 -0.0674  0.2151
   55MOL   H24034908   3.833   2.839   3.355  0.2707  0.5548  0.2822
   55MOL   H24134909   3.841   2.667   3.368 -1.2610  0.4555 -0.7980
   55MOL   H24234910   4.092   2.681   3.433 -0.5623  0.1519  2.4260
   55MOL   H24334911   4.069   2.856   3.405  0.2329 -0.0226 -0.8890
   55MOL   H24434912   3.918   2.706   3.617  0.3270  0.2211 -0.6895
   55MOL   H24534913   3.918   2.876   3.592  2.6261  2.1898 -2.5844
   55MOL   H24634914   4.154   2.710   3.687  1.5396  1.1463  0.2800
   55MOL   H24734915   4.038   2.795   3.775  0.4425  0.2736  0.1472
   55MOL   H24834916   4.038   3.018   3.585  0.2209  2.7264 -1.4597
   55MOL   H24934917   4.256   3.177   3.522 -1.5114  0.8942 -0.6366
   55MOL   H25034918   4.278   3.160   3.689 -0.6183 -0.1626  0.4553
   55MOL   H25134919   4.023   3.279   3.582  2.1586  1.2207 -3.0548
   55MOL   H25234920   4.096   3.281   3.755 -2.2037 -1.7789 -0.3712
   55MOL   H25334921   4.199   3.419   3.497  0.3997 -0.1711 -0.1152
   55MOL   H25434922   4.279   3.409   3.649  0.0903  0.1338  0.0065
   55MOL   H25534923   4.166   3.623   3.632  0.7980  1.0806  2.6358
   55MOL   H25634924   4.098   3.532   3.763 -0.5750 -0.6488 -1.2718
   55MOL   H25734925   3.907   3.540   3.666 -1.9246  1.1477 -1.2492
   55MOL   C25834926   3.955   3.593   3.478  0.2969 -0.6173  0.8322
   55MOL   O25934927   4.038   3.602   3.389  0.3398 -0.2484 -0.2131
   55MOL   C26034928   3.812   3.644   3.455  0.0773  0.2642 -0.4340
   55MOL   C26134929   3.780   3.729   3.330  0.7375 -0.2726 -0.8639
   55MOL   C26234930   3.828   3.875   3.335 -0.6607 -0.4011 -0.1723
   55MOL   C26334931   3.818   3.937   3.192  0.2368  0.0268 -0.0468
   55MOL   C26434932   3.917   4.047   3.165 -0.0908  0.5553 -0.8528
   55MOL   O26534933   3.958   4.114   3.262  0.5794  0.0505  0.0593
   55MOL   N26634934   3.941   4.070   3.038  0.1760  0.1476  0.2252
   55MOL   C26734935   4.021   4.179   2.977 -0.0081  0.7993 -0.1076
   55MOL   C26834936   4.154   4.130   2.927  0.6916  0.1344  0.2193
   55MOL   C26934937   4.162   4.034   2.809 -0.8025  0.7506  1.0347
   55MOL   C27034938   4.298   3.997   2.759 -0.5051  0.2209  0.7445
   55MOL   N27134939   4.291   3.940   2.626  0.6465 -0.0464 -0.1787
   55MOL   H27234940   3.741   3.562   3.447  0.1196  0.3164 -1.4001
   55MOL   H27334941   3.767   3.699   3.538 -1.4908 -1.4774 -0.0953
   55MOL   H27434942   3.806   3.679   3.237  0.3360 -0.6450 -0.7807
   55MOL   H27534943   3.672   3.729   3.310  0.4282  0.1516  0.7330
   55MOL   H27634944   3.935   3.884   3.357 -0.7389  0.3323 -0.0844
   55MOL   H27734945   3.769   3.922   3.413  0.6149  1.3851 -0.2420
   55MOL   H27834946   3.719   3.970   3.162  0.9000  0.8218 -1.3948
   55MOL   H27934947   3.850   3.872   3.112  0.2952 -3.1065  2.4294
   55MOL   H28034948   3.901   4.003   2.975 -0.7280  1.2619 -0.3944
   55MOL   H28134949   4.026   4.255   3.054  0.6063  0.6227  0.0306
   55MOL   H28234950   3.970   4.236   2.900 -0.8148  0.6911  0.3438
   55MOL   H28334951   4.207   4.223   2.902  0.7411 -0.4081 -1.7689
   55MOL   H28434952   4.212   4.101   3.014 -0.8586  0.2575  1.3188
   55MOL   H28534953   4.097   4.073   2.731  0.8418  1.5714  0.0432
   55MOL   H28634954   4.113   3.941   2.838  2.1722 -0.5541  2.1211
   55MOL   H28734955   4.343   3.923   2.825  0.3064  0.2875  0.2757
   55MOL   H28834956   4.363   4.084   2.759 -1.9216  1.2936  0.6594
   55MOL   H28934957   4.279   4.006   2.551 -0.6227  1.5149  1.3706
   55MOL   C29034958   4.263   3.818   2.591  0.3006 -0.8756 -0.1207
   55MOL   O29134959   4.259   3.726   2.672 -0.2597 -0.0345 -0.3028
   55MOL   C29234960   4.225   3.800   2.444  0.2418 -0.1684  0.0735
   55MOL   C29334961   4.339   3.813   2.344  0.7631 -0.1826 -0.2097
   55MOL   C29434962   4.437   3.692   2.360 -0.6535 -0.2989  0.4032
   55MOL   C29534963   4.523   3.668   2.239  0.8041  1.0635 -0.2602
   55MOL   C29634964   4.591   3.530   2.238  0.0882 -0.0917  0.8659
   55MOL   O29734965   4.595   3.461   2.334 -0.3078  0.6854  0.3029
   55MOL   N29834966   4.641   3.499   2.121  0.6942  0.5919  0.1845
   55MOL   C29934967   4.700   3.377   2.093 -0.2271  0.0671 -0.3298
   55MOL   C30034968   4.601   3.287   2.024  0.4291 -0.3898  1.1432
   55MOL   C30134969   4.668   3.174   1.941 -0.2206 -0.2351 -0.8424
   55MOL   C30234970   4.579   3.106   1.843  0.3051 -0.1835 -0.3609
   55MOL   N30334971   4.650   3.002   1.770 -0.1148  0.0019  0.2993
   55MOL   H30434972   4.191   3.698   2.426 -3.4027  0.7429  1.5784
   55MOL   H30534973   4.142   3.869   2.428  1.2899  0.9663 -0.5775
   55MOL   H30634974   4.311   3.838   2.242  2.1780  1.0054 -0.3294
   55MOL   H30734975   4.404   3.896   2.373 -0.5212  1.3554 -1.6014
   55MOL   H30834976   4.390   3.594   2.372  1.4135 -1.1167  2.0173
   55MOL   H30934977   4.500   3.708   2.447  1.6327  1.3164 -1.4663
   55MOL   H31034978   4.604   3.741   2.244  0.5894  1.3401 -0.8556
   55MOL   H31134979   4.461   3.682   2.151 -0.1804 -0.5716  0.1457
   55MOL   H31234980   4.656   3.577   2.059  1.0232  0.7976  0.5209
   55MOL   H31334981   4.745   3.327   2.179  0.1000  2.5996  1.0354
   55MOL   H31434982   4.783   3.408   2.028  2.0095 -0.0895  2.3612
   55MOL   H31534983   4.533   3.236   2.092  1.3887  0.4245  2.7404
   55MOL   H31634984   4.528   3.342   1.965  0.9316 -0.6745  0.2365
   55MOL   H31734985   4.731   3.103   1.994 -0.8020 -1.8557 -2.2663
   55MOL   H31834986   4.749   3.221   1.885  2.5479 -2.8194  0.8292
   55MOL   H31934987   4.535   3.179   1.775 -1.0630 -1.0765 -0.4564
   55MOL   H32034988   4.493   3.060   1.891  0.0168  0.2441 -0.4616
   55MOL   H32134989   4.749   3.013   1.759 -0.0069 -1.4841 -0.3954
   55MOL   C32234990   4.596   2.895   1.712  0.2474 -0.2842  0.4987
   55MOL   O32334991   4.477   2.863   1.728 -0.1646 -0.3681  0.2646
   55MOL   C32434992   4.698   2.795   1.649 -0.2863  0.1687 -0.2114
   55MOL   C32534993   4.741   2.678   1.747  0.4050  0.6363 -0.1876
   55MOL   C32634994   4.812   2.560   1.673 -0.2441 -0.0462 -0.2035
   55MOL   C32734995   4.880   2.445   1.757  0.3416  0.0532  0.2442
   55MOL   C32834996   5.000   2.495   1.841 -0.5113  0.2611 -0.5363
   55MOL   O32934997   5.114   2.501   1.796 -0.1847  0.1511 -0.3914
   55MOL   N33034998   4.975   2.510   1.976  0.3714  0.5875 -0.1505
   55MOL   C33134999   5.073   2.553   2.070  0.2245 -0.0692 -0.1766
   55MOL   C33235000   5.049   2.706   2.104 -0.5980  0.0740 -0.0089
   55MOL   C33335001   5.054   2.799   1.991  0.3580 -0.1365  0.0111
   55MOL   C33435002   4.985   2.933   2.006  0.4225 -0.0347  0.7789
   55MOL   N33535003   5.062   3.027   1.928  0.2835  0.4262 -0.1935
   55MOL   H33635004   4.649   2.750   1.562  1.0044  0.7215 -1.2282
   55MOL   H33735005   4.779   2.858   1.613 -0.6732 -0.6572 -2.6781
   55MOL   H33835006   4.802   2.727   1.823 -2.3709  2.5202  0.9254
   55MOL   H33935007   4.652   2.637   1.794  1.3110 -1.2386 -0.0713
   55MOL   H34035008   4.886   2.588   1.598 -0.7875 -1.2723 -1.2047
   55MOL   H34135009   4.728   2.503   1.634 -0.4883 -0.6317  1.1592
   55MOL   H34235010   4.913   2.376   1.679 -0.6991  0.9114 -0.9883
   55MOL   H34335011   4.802   2.395   1.815 -0.7380 -0.3206 -1.4825
   55MOL   H34435012   4.884   2.491   2.014  1.1513  2.2318  2.6671
   55MOL   H34535013   5.174   2.539   2.032  0.5071 -0.3268  0.6448
   55MOL   H34635014   5.057   2.495   2.161 -1.0994  1.5656  0.6537
   55MOL   H34735015   4.951   2.690   2.150 -1.9541 -0.4394 -2.9503
   55MOL   H34835016   5.108   2.742   2.189 -2.8111  0.6333  1.3435
   55MOL   H34935017   5.015   2.754   1.900 -2.0021 -1.6899  1.7093
   55MOL   H35035018   5.160   2.819   1.978  1.0854 -3.2465  0.6944
   55MOL   H35135019   4.989   2.971   2.108  1.9285 -1.5267  1.2926
   55MOL   H35235020   4.883   2.930   1.969  1.1950 -3.8411 -1.3070
   55MOL   H35335021   5.154   3.030   1.969 -0.2788  0.7624  1.0758
   55MOL   C35435022   5.037   3.089   1.814  0.8418 -0.1664  0.5972
   55MOL   O35535023   4.931   3.072   1.755  0.2646  0.0852 -0.1363
   55MOL   C35635024   5.137   3.187   1.747 -0.5832 -0.0521 -0.9330
   55MOL   C35735025   5.075   3.263   1.631  0.5596  0.6392 -0.1733
   55MOL   C35835026   5.180   3.342   1.552 -0.1305 -0.1390  0.3640
   55MOL   C35935027   5.123   3.408   1.428  0.2824  0.0757 -0.5493
   55MOL   C36035028   5.233   3.467   1.341 -0.1131 -0.4911  0.3638
   55MOL   O36135029   5.321   3.388   1.311  0.0211  0.5734 -0.0255
   55MOL   N36235030   5.229   3.590   1.298 -0.0483  0.0456  0.9427
   55MOL   C36335031   5.340   3.641   1.215 -0.5250 -0.5296 -0.3823
   55MOL   C36435032   5.297   3.712   1.089 -0.6629 -0.0754 -0.2361
   55MOL   C36535033   5.182   3.657   1.009  0.0724 -0.0412  0.2326
   55MOL   C36635034   5.227   3.551   0.905 -0.1315  0.1977  0.2230
   55MOL   N36735035   5.296   3.437   0.972 -0.3574 -0.5025 -0.3671
   55MOL   H36835036   5.154   3.254   1.831  0.4776 -3.0869  1.3466
   55MOL   H36935037   5.225   3.125   1.730  0.2499  1.3553 -1.8236
   55MOL   H37035038   5.023   3.191   1.568  3.2070 -0.8781 -0.7108
   55MOL   H37135039   4.996   3.330   1.664 -0.8354 -0.1158 -1.9238
   55MOL   H37235040   5.265   3.281   1.521  0.8464  0.5819  1.5794
   55MOL   H37335041   5.219   3.421   1.616 -0.1991  0.8152 -0.7478
   55MOL   H37435042   5.056   3.490   1.454  2.7153  1.6729  0.8799
   55MOL   H37535043   5.059   3.339   1.373 -0.1191  0.5584 -0.6941
   55MOL   H37635044   5.156   3.650   1.332 -1.5212 -1.7566  1.0358
   55MOL   H37735045   5.415   3.569   1.182  0.7285  0.7258 -0.3315
   55MOL   H37835046   5.409   3.702   1.274  1.0433 -2.2799 -0.3365
   55MOL   H37935047   5.269   3.812   1.124  1.0886 -0.1261  1.3673
   55MOL   H38035048   5.381   3.748   1.030 -0.2976  1.0915  0.9590
   55MOL   H38135049   5.135   3.745   0.964 -1.5799 -1.7431 -1.4394
   55MOL   H38235050   5.109   3.611   1.075 -1.0596 -0.0406 -1.0013
   55MOL   H38335051   5.291   3.583   0.823  0.7654  2.1936  1.6660
   55MOL   H38435052   5.135   3.515   0.857 -0.1071  0.0671  0.2730
   55MOL   H38535053   5.328   3.452   1.067 -1.6981 -2.0799  0.3549
   55MOL   C38635054   5.348   3.334   0.909  0.3459 -0.4205 -0.1414
   55MOL   O38735055   5.298   3.292   0.802 -0.0307 -0.5873  0.1193
   55MOL   C38835056   5.464   3.278   0.975  0.1331 -0.5239  0.0252
   55MOL   C38935057   5.489   3.128   0.948  0.5989 -0.4548 -0.7358
   55MOL   C39035058   5.376   3.040   1.008  0.3309  0.0675 -0.5255
   55MOL   C39135059   5.424   2.899   1.005 -0.2763  0.4931  0.2988
   55MOL   C39235060   5.333   2.810   1.089 -0.4939 -0.2940 -0.4860
   55MOL   O39335061   5.212   2.835   1.093  0.1787  0.6231 -0.2736
   55MOL   N39435062   5.381   2.704   1.144  0.0590  0.2613 -0.5729
   55MOL   C39535063   5.293   2.602   1.202 -0.1382 -0.3831 -0.3239
   55MOL   C39635064   5.349   2.537   1.327 -0.2305 -0.1867 -0.3849
   55MOL   C39735065   5.265   2.440   1.414 -0.4381  0.0540 -0.0036
   55MOL   C39835066   5.335   2.392   1.540  0.1165  0.4860 -0.7121
   55MOL   N39935067   5.467   2.337   1.517  0.3415  0.3356  0.6747
   55MOL   H40035068   5.560   3.322   0.946  0.9664 -2.5594 -0.3737
   55MOL   H40135069   5.463   3.307   1.080  0.3922  0.5879 -0.2706
   55MOL   H40235070   5.505   3.107   0.842 -0.3720 -0.4333 -0.8859
   55MOL   H40335071   5.584   3.114   1.000  0.6757  0.3336 -0.6619
   55MOL   H40435072   5.285   3.045   0.949  0.9145  1.9281 -1.3057
   55MOL   H40535073   5.368   3.073   1.112 -0.6582  0.7196 -0.7979
   55MOL   H40635074   5.531   2.885   1.021 -0.3616 -1.9863 -1.0276
   55MOL   H40735075   5.411   2.869   0.901  1.6298  0.9746 -0.0838
   55MOL   H40835076   5.480   2.689   1.131 -0.1025 -0.3804 -1.0763
   55MOL   H40935077   5.278   2.526   1.125 -0.1910 -1.3157  0.6002
   55MOL   H41035078   5.192   2.640   1.220  0.6428  0.0519  3.5142
   55MOL   H41135079   5.432   2.481   1.285 -0.5251 -2.0022  1.3940
   55MOL   H41235080   5.385   2.620   1.388 -0.8249  0.7446 -1.2672
   55MOL   H41335081   5.245   2.357   1.346  1.7359  1.3573 -2.3184
   55MOL   H41435082   5.165   2.478   1.437  0.2810  0.6237  2.3240
   55MOL   H41535083   5.266   2.318   1.580  1.2280 -0.0663  0.2185
   55MOL   H41635084   5.342   2.473   1.613  0.1335  0.5742 -0.8120
   55MOL   H41735085   5.471   2.287   1.430  2.0819  0.2966  0.7603
   55MOL   C41835086   5.580   2.371   1.574  0.2869 -0.3725  0.3937
   55MOL   O41935087   5.577   2.453   1.658  0.5323  0.4560 -0.8590
   55MOL   C42035088   5.712   2.316   1.511  0.4422  0.1134 -0.5304
   55MOL   C42135089   5.811   2.427   1.464 -0.3471  0.1714 -0.4485
   55MOL   C42235090   5.743   2.530   1.373  0.3588  0.4707 -0.3414
   55MOL   C42335091   5.834   2.626   1.287  0.6185  0.0655  0.0398
   55MOL   C42435092   5.757   2.743   1.234  0.1796 -0.0227 -0.7349
   55MOL   O42535093   5.674   2.735   1.144 -0.0362  0.6060  0.5987
   55MOL   N42635094   5.775   2.856   1.305  0.3823 -0.6578  0.1150
   55MOL   C42735095   5.695   2.972   1.283 -0.4130  0.0472 -0.0918
   55MOL   C42835096   5.768   3.099   1.318  0.2056  0.2238  0.9607
   55MOL   C42935097   5.692   3.233   1.315  0.5506  0.2364 -0.1528
   55MOL   C43035098   5.782   3.338   1.367  0.1479  0.4923  0.6212
   55MOL   N43135099   5.717   3.465   1.363  0.7590 -0.3274 -0.9034
   55MOL   H43235100   5.754   2.247   1.584 -0.0445  0.3854  0.0207
   55MOL   H43335101   5.680   2.250   1.431 -0.2949  0.9078 -0.8974
   55MOL   H43435102   5.867   2.481   1.541  1.0431  0.5780 -1.7017
   55MOL   H43535103   5.887   2.374   1.407  0.4122 -0.0350  0.7454
   55MOL   H43635104   5.676   2.589   1.435 -0.4715 -0.3244 -0.4720
   55MOL   H43735105   5.685   2.471   1.303 -1.4487 -1.3324  2.6223
   55MOL   H43835106   5.889   2.567   1.214 -1.2765  1.4835 -2.6038
   55MOL   H43935107   5.920   2.665   1.341  0.2589 -0.1887  0.8049
   55MOL   H44035108   5.840   2.850   1.382 -0.8116 -1.8097  1.0780
   55MOL   H44135109   5.621   2.966   1.362 -0.4373  0.2856 -0.0950
   55MOL   H44235110   5.644   2.983   1.187  1.7322 -0.9146 -1.3903
   55MOL   H44335111   5.815   3.088   1.416  2.5433  2.6824  0.1426
   55MOL   H44435112   5.861   3.113   1.264 -2.3748  2.5399 -3.1257
   55MOL   H44535113   5.607   3.231   1.384  1.2709 -3.5867  0.7646
   55MOL   H44635114   5.647   3.251   1.217 -0.4290  1.4056  0.4994
   55MOL   H44735115   5.876   3.340   1.313  0.1458  2.3466  0.6442
   55MOL   H44835116   5.817   3.308   1.466 -1.1195  1.4219  1.3794
   55MOL   H44935117   5.678   3.502   1.449  0.0666 -2.2281 -0.3773
   55MOL   C45035118   5.708   3.558   1.264  0.2611  0.4378 -0.2355
   55MOL   O45135119   5.659   3.665   1.284  0.0625  0.1054 -0.9579
   55MOL   C45235120   5.757   3.519   1.123 -0.3336  0.7539  0.8354
   55MOL   C45335121   5.735   3.619   1.010 -0.1814  0.2758  0.3835
   55MOL   C45435122   5.828   3.605   0.892 -0.3672  0.3245 -0.5296
   55MOL   C45535123   5.813   3.725   0.790  1.1256 -0.3097 -0.8406
   55MOL   C45635124   5.672   3.742   0.738  0.0138 -0.2446 -0.4652
   55MOL   O45735125   5.602   3.642   0.711  0.0364 -0.0252  0.4980
   55MOL   N45835126   5.626   3.873   0.731  0.2530  0.6836 -0.1587
   55MOL   C45935127   5.496   3.913   0.697  0.7203  0.5960 -0.0085
   55MOL   C46035128   5.461   3.925   0.548 -0.4969 -0.1121  0.6101
   55MOL   C46135129   5.316   3.968   0.526 -0.4760 -0.2784 -0.7151
   55MOL   C46235130   5.285   3.993   0.380  0.5219 -0.2244  0.6043
   55MOL   N46335131   5.150   4.026   0.361  0.5765 -0.2771 -0.8202
   55MOL   H46435132   5.862   3.502   1.147 -0.7247 -1.5003  1.0698
   55MOL   H46535133   5.727   3.417   1.099  1.1316  0.4634  0.1574
   55MOL   H46635134   5.629   3.631   0.988  0.2072 -1.3655 -2.6161
   55MOL   H46735135   5.762   3.718   1.049  0.1800  0.6529 -0.7973
   55MOL   H46835136   5.787   3.514   0.847  1.4004 -0.2860 -0.9675
   55MOL   H46935137   5.935   3.598   0.914 -0.2932  1.1714 -0.6098
   55MOL   H47035138   5.882   3.706   0.708  1.6765 -1.8756 -0.0430
   55MOL   H47135139   5.846   3.813   0.844 -0.9673  0.0240 -0.0610
   55MOL   H47235140   5.696   3.945   0.730  0.6287  0.3134 -1.3258
   55MOL   H47335141   5.497   4.012   0.742 -0.2481  0.8661 -0.5587
   55MOL   H47435142   5.425   3.852   0.753  2.7589 -0.0888  1.8700
   55MOL   H47535143   5.531   3.996   0.505 -0.2826 -0.1974  0.8192
   55MOL   H47635144   5.484   3.834   0.493  0.7316  1.2243 -1.1311
   55MOL   H47735145   5.297   4.060   0.581 -0.2533 -0.0798 -0.9678
   55MOL   H47835146   5.259   3.890   0.575  0.5786  1.3071  3.2335
   55MOL   H47935147   5.309   3.913   0.310 -1.6299 -0.7382  0.4351
   55MOL   H48035148   5.345   4.077   0.346  0.5618 -1.1337 -1.6194
   55MOL   H48135149   5.085   3.954   0.332 -0.2920  0.5048 -0.8252
   55MOL   C48235150   5.098   4.152   0.348 -0.3073 -0.3460  0.2466
   55MOL   O48335151   5.170   4.255   0.358  0.0458 -0.2951 -0.4528
   55MOL   C48435152   4.949   4.169   0.323  0.3091 -0.1255  0.0944
   55MOL   C48535153   4.891   4.297   0.386  0.2592  0.2474  0.2938
   55MOL   C48635154   4.740   4.306   0.372  0.7377 -0.0429  0.7532
   55MOL   C48735155   4.673   4.412   0.462  0.6512  0.2450 -0.4136
   55MOL   C48835156   4.629   4.538   0.385 -0.2499  0.0900  0.2505
   55MOL   O48935157   4.711   4.628   0.357  0.6628  0.2874 -0.0256
   55MOL   N49035158   4.499   4.538   0.361  0.6215  0.5944 -0.4344
   55MOL   C49135159   4.429   4.646   0.303 -0.9634 -0.1342  0.4416
   55MOL   C49235160   4.282   4.624   0.317  0.2759 -0.3794 -0.2123
   55MOL   C49335161   4.205   4.581   0.189  0.0517  0.5404  0.2711
   55MOL   C49435162   4.246   4.446   0.150 -0.2271 -0.3462  0.4940
   55MOL   N49535163   4.170   4.425   0.028  0.2017  0.2471  0.3284
   55MOL   H49635164   4.931   4.165   0.215 -0.3649 -1.2151  0.2453
   55MOL   H49735165   4.899   4.088   0.375 -0.2862  0.9967  1.3035
   55MOL   H49835166   4.931   4.287   0.487 -0.3026 -0.7941  0.4230
   55MOL   H49935167   4.941   4.387   0.351 -0.7889  0.5078 -0.5675
   55MOL   H50035168   4.706   4.210   0.410 -0.1654 -0.6565 -1.5427
   55MOL   H50135169   4.709   4.320   0.269 -1.6072 -1.0493  1.2835
   55MOL   H50235170   4.735   4.438   0.547  1.6746 -2.3592 -0.3039
   55MOL   H50335171   4.583   4.369   0.506  0.2178 -1.0775 -2.5077
   55MOL   H50435172   4.437   4.462   0.386  1.4064  0.6380  1.6750
   55MOL   H50535173   4.468   4.646   0.201 -0.8933 -0.7538  0.4702
   55MOL   H50635174   4.466   4.738   0.347 -0.6176 -1.5249  3.1594
   55MOL   H50735175   4.252   4.571   0.408 -0.1101 -0.8667 -0.6160
   55MOL   H50835176   4.240   4.723   0.334  1.5301 -0.2884  2.5823
   55MOL   H50935177   4.229   4.653   0.111 -0.1186  1.5611  1.1428
   55MOL   H51035178   4.096   4.580   0.191  0.0061  2.3159 -0.3439
   55MOL   H51135179   4.211   4.378   0.227  0.4729 -1.4942 -0.1847
   55MOL   H51235180   4.351   4.422   0.130  0.3206  1.9192  0.5368
   55MOL   H51335181   4.179   4.494   7.656  0.6401 -2.4158 -2.1901
   55MOL   C51435182   4.074   4.333   0.013 -0.8768  0.1640 -0.7256
   55MOL   O51535183   4.049   4.246   0.089  0.8594  0.1259 -0.4375
   55MOL   C51635184   3.989   4.339   7.585 -0.0138  0.4859  0.1382
   55MOL   C51735185   3.876   4.444   7.584 -0.4485 -0.1898  0.9503
   55MOL   C51835186   3.757   4.430   7.683 -0.3072  0.2078  0.0643
   55MOL   C51935187   3.706   4.290   7.688 -0.3224 -0.1956 -0.5642
   55MOL   C52035188   3.612   4.257   7.576  0.0201  0.1473  0.3422
   55MOL   O52135189   3.498   4.305   7.576  0.2816 -0.2559 -0.1389
   55MOL   N52235190   3.657   4.178   7.478  0.1271 -0.2969 -0.0886
   55MOL   C52335191   3.586   4.167   7.352  0.1242  0.5648 -0.0211
   55MOL   C52435192   3.642   4.058   7.273 -0.3706  0.2576  0.0935
   55MOL   C52535193   3.590   4.050   7.126 -0.1857  0.0483  0.3170
   55MOL   C52635194   3.661   3.954   7.033 -0.1052 -0.0023  0.0166
   55MOL   N52735195   3.805   3.985   7.030 -0.4713 -0.0841 -0.3375
   55MOL   H52835196   4.057   4.375   7.508  0.7632  0.4032  0.7703
   55MOL   H52935197   3.941   4.249   7.549 -0.8368  1.9428 -2.5353
   55MOL   H53035198   3.917   4.544   7.598 -2.3425  1.0395 -1.8589
   55MOL   H53135199   3.842   4.468   7.484  4.6537  1.2289 -0.5668
   55MOL   H53235200   3.671   4.495   7.664 -2.3143 -2.4027 -0.0603
   55MOL   H53335201   3.793   4.454   0.082  2.0997 -0.5056 -0.5953
   55MOL   H53435202   3.670   4.272   0.087 -0.6195 -1.7564 -0.9365
   55MOL   H53535203   3.787   4.217   7.688 -0.3302 -0.2664 -3.0791
   55MOL   H53635204   3.736   4.117   7.495 -0.4805 -0.8492  0.7547
   55MOL   H53735205   3.615   4.261   7.303 -0.9564  1.8278  1.7201
   55MOL   H53835206   3.479   4.153   7.366  0.0802  0.4431 -0.4624
   55MOL   H53935207   3.750   4.073   7.271 -0.2713 -0.3472  0.6185
   55MOL   H54035208   3.646   3.969   7.337  2.5955 -0.7132 -1.3477
   55MOL   H54135209   3.596   4.155   7.096  0.8787 -0.3335 -0.8824
   55MOL   H54235210   3.486   4.021   7.119  0.2481 -1.1272 -1.7862
   55MOL   H54335211   3.617   3.949   6.933  1.7295 -1.1153 -0.7705
   55MOL   H54435212   3.658   3.856   7.080  0.1826  0.2437  0.5569
   55MOL   H54535213   3.875   3.932   7.081 -0.5323  1.0577  0.9530
   55MOL   C54635214   3.858   4.086   6.962  0.1916 -0.4513 -0.0394
   55MOL   O54735215   3.795   4.169   6.891  0.0305 -0.6764 -0.0393
   55MOL   C54835216   4.012   4.100   6.978  0.1484  0.1298 -0.4333
   55MOL   C54935217   4.080   4.207   6.893 -0.0425  0.0669  0.4608
   55MOL   C55035218   4.162   4.157   6.767  0.0040  0.5053  0.4532
   55MOL   C55135219   4.087   4.095   6.651  0.5214 -0.5665 -0.2425
   55MOL   C55235220   3.988   4.173   6.564 -0.0327 -0.7369 -0.7586
   55MOL   O55335221   4.017   4.283   6.522  0.0101 -0.1256 -0.1494
   55MOL   N55435222   3.872   4.116   6.545 -0.3639  0.6813  0.4293
   55MOL   C55535223   3.761   4.172   6.464  1.1287 -0.0465  0.0415
   55MOL   C55635224   3.647   4.243   6.547 -0.2654 -0.1797 -0.6644
   55MOL   C55735225   3.567   4.142   6.633 -0.2319 -0.6090 -0.4491
   55MOL   C55835226   3.467   4.225   6.721 -0.2104 -0.2932  0.2394
   55MOL   N55935227   3.547   4.305   6.813 -0.4688  0.3433  0.6675
   55MOL   H56035228   4.033   4.113   7.084 -2.1785 -1.7406  0.2955
   55MOL   H56135229   4.059   4.004   6.956 -0.8194 -0.5306  0.3409
   55MOL   H56235230   4.009   4.282   6.859 -1.3887 -1.8257 -1.0263
   55MOL   H56335231   4.149   4.270   6.948  1.0385 -0.6710 -0.0364
   55MOL   H56435232   4.249   4.100   6.800  1.3826  1.4987 -1.3974
   55MOL   H56535233   4.207   4.246   6.723  1.8679 -0.4646  0.3294
   55MOL   H56635234   4.041   4.006   6.694  0.7840 -0.3685  0.4404
   55MOL   H56735235   4.164   4.050   6.588  0.6626  0.8337 -1.1004
   55MOL   H56835236   3.855   4.049   6.618 -3.3052  0.2959 -0.5479
   55MOL   H56935237   3.726   4.086   6.407  1.5798 -0.0437 -0.2408
   55MOL   H57035238   3.794   4.241   6.387 -3.0081  2.7688  0.6344
   55MOL   H57135239   3.700   4.323   6.599 -0.5247  0.5570 -1.5256
   55MOL   H57235240   3.575   4.298   6.487  0.3660  0.1405 -1.1353
   55MOL   H57335241   3.626   4.074   6.694  1.6367 -0.1961 -1.7258
   55MOL   H57435242   3.516   4.071   6.569  1.6119  0.0101 -2.7023
   55MOL   H57535243   3.400   4.165   6.782 -2.0226  0.4968 -0.9410
   55MOL   H57635244   3.402   4.284   6.656  1.4207  3.3372  1.7402
   55MOL   H57735245   3.643   4.277   6.826 -0.7517 -0.3548  1.2480
   55MOL   C57835246   3.501   4.416   6.870 -0.0790  0.4673 -0.4699
   55MOL   O57935247   3.383   4.445   6.860 -0.4116 -0.1049 -0.5245
   55MOL   C58035248   3.595   4.506   6.940 -0.3173 -0.8494  0.6192
   55MOL   C58135249   3.574   4.496   7.086 -0.7181  0.2088 -0.0495
   55MOL   C58235250   3.645   4.611   7.163 -0.0583  0.1555  0.1232
   55MOL   C58335251   3.597   4.612   7.309 -0.3114 -0.0855  0.0903
   55MOL   C58435252   3.648   4.721   7.399  0.2011 -0.1213 -0.1231
   55MOL   O58535253   3.744   4.791   7.358  0.4097  0.3009  0.0885
   55MOL   N58635254   3.590   4.731   7.523 -0.2620 -0.1493 -0.9309
   55MOL   C58735255   3.650   4.807   7.632 -0.3060  0.5580 -0.2327
   55MOL   C58835256   3.655   4.956   7.607  0.6363  0.6377 -0.4537
   55MOL   C58935257   3.516   5.025   7.584 -0.2579 -0.0165 -0.1495
   55MOL   C59035258   3.533   5.177   7.546  0.0180  0.2949  0.0770
   55MOL   N59135259   3.412   5.232   7.501 -0.1619 -0.5055  0.4001
   55MOL   H59235260   3.696   4.477   6.913  0.3394  0.3375  1.7698
   55MOL   H59335261   3.584   4.609   6.908  1.6746 -0.8621 -0.1620
   55MOL   H59435262   3.467   4.491   7.103 -0.9083  4.0443  0.3454
   55MOL   H59535263   3.614   4.396   7.105  0.7393  0.8111  0.1529
   55MOL   H59635264   3.611   4.710   7.134 -0.1084  0.3564  0.8496
   55MOL   H59735265   3.752   4.596   7.149 -0.2150  0.4041 -1.4125
   55MOL   H59835266   3.613   4.510   7.345 -1.2753 -0.1406  0.3736
   55MOL   H59935267   3.488   4.609   7.321 -0.2775 -1.0695  0.2220
   55MOL   H60035268   3.508   4.675   7.541  0.0942 -0.7423 -1.1484
   55MOL   H60135269   3.745   4.764   7.663 -1.1023 -0.5634  0.6563
   55MOL   H60235270   3.584   4.803   0.017  0.2045  3.0258  0.3419
   55MOL   H60335271   3.709   5.008   7.686  0.7036  0.3554 -0.3164
   55MOL   H60435272   3.708   4.987   7.517 -0.4065  0.3423 -1.1860
   55MOL   H60535273   3.453   5.011   7.671 -2.4780  0.7808 -1.5863
   55MOL   H60635274   3.464   4.971   7.505  0.9280  2.3017 -2.6325
   55MOL   H60735275   3.613   5.188   7.472 -0.8481 -1.5749 -1.1794
   55MOL   H60835276   3.562   5.236   7.633  0.4763  0.2547 -0.0485
   55MOL   H60935277   3.400   5.246   7.401 -0.8689  0.3435  0.6034
   55MOL   C61035278   3.317   5.278   7.585  0.0585  0.2345 -0.5482
   55MOL   O61135279   3.315   5.251   0.006 -0.0091  0.1865 -0.5774
   55MOL   C61235280   3.210   5.365   7.526  0.1158 -0.1269 -0.0344
   55MOL   C61335281   3.251   5.512   7.528  0.0319  1.3240 -0.3473
   55MOL   C61435282   3.154   5.608   7.455  0.7175  1.1792  0.6315
   55MOL   C61535283   3.206   5.759   7.476 -0.0074  0.8070 -0.6184
   55MOL   C61635284   3.136   5.837   7.583  0.5588 -0.4221  0.2925
   55MOL   O61735285   3.023   5.816   7.627  0.7104 -0.0345  0.3663
   55MOL   N61835286   3.198   5.950   7.625 -0.2616  0.5071  0.3193
   55MOL   C61935287   3.148   6.035   0.030 -0.8741 -0.6377 -0.4269
   55MOL   C62035288   3.190   5.973   0.166  0.1860  0.3275  0.2790
   55MOL   C62135289   3.167   6.074   0.271  0.7437  0.5774  0.1275
   55MOL   C62235290   3.220   6.022   0.408 -0.1847 -0.0630  0.1551
   55MOL   N62335291   3.225   6.132   0.505  0.4992  0.4661  0.0832
   55MOL   H62435292   3.197   5.331   7.423  1.2552  0.4950 -0.3833
   55MOL   H62535293   3.113   5.358   7.577  0.3121 -1.1062  0.2175
   55MOL   H62635294   3.252   5.552   7.629  1.3322  1.0537 -0.2496
   55MOL   H62735295   3.349   5.515   7.481  0.8322 -2.6556  0.8652
   55MOL   H62835296   3.051   5.597   7.487  1.3474 -1.0694  1.9998
   55MOL   H62935297   3.168   5.588   7.349  1.8016 -0.6334  1.0846
   55MOL   H63035298   3.194   5.824   7.389 -1.1929  0.6532 -0.5758
   55MOL   H63135299   3.311   5.752   7.502 -0.1564 -0.4407 -0.3536
   55MOL   H63235300   3.296   5.960   7.600  0.1329 -2.5189  0.4905
   55MOL   H63335301   3.043   6.058   0.017 -0.5359 -0.6268 -3.6378
   55MOL   H63435302   3.213   6.122   0.018  0.6615 -1.7614 -0.4731
   55MOL   H63535303   3.130   5.885   0.186  0.6481 -0.3388 -1.2192
   55MOL   H63635304   3.298   5.955   0.166 -0.2060 -2.1639 -1.2710
   55MOL   H63735305   3.065   6.111   0.283  0.1974 -0.8061 -0.2550
   55MOL   H63835306   3.232   6.157   0.241  2.0531  0.1347  1.6295
   55MOL   H63935307   3.317   5.975   0.395 -0.5371 -0.6000 -0.5401
   55MOL   H64035308   3.152   5.945   0.443 -1.2667  0.8375  0.0636
   55MOL   H64135309   3.271   6.099   0.588 -1.2302 -2.9016 -0.1873
   55MOL   H64235310   3.284   6.205   0.468  0.0105 -0.0479 -1.8041
   56MOL     C135311   1.950   0.118   5.927  0.3406 -0.1621  0.4306
   56MOL     O235312   2.044   0.200   5.923 -0.2520 -0.2518  0.2571
   56MOL     C335313   1.967   7.678   5.862 -0.1511 -0.2917 -0.3126
   56MOL     C435314   2.080   7.677   5.755 -0.7278  0.2236  0.5360
   56MOL     C535315   2.046   7.592   5.632  0.0495  0.2975 -0.1667
   56MOL     C635316   2.170   7.557   5.549 -0.3447 -0.2150  0.0666
   56MOL     C735317   2.224   7.681   5.474  0.0990  0.1669  0.3659
   56MOL     O835318   2.159   0.087   5.457  0.2341 -0.4764  0.0309
   56MOL     N935319   2.347   7.664   5.422  0.0582  0.5072 -0.0678
   56MOL    C1035320   2.413   0.057   5.331 -0.1695  0.3452 -0.5283
   56MOL    C1135321   2.559   0.023   5.305  0.4095 -0.0629 -0.0547
   56MOL    C1235322   2.650   0.078   5.410  0.6986  0.5322  0.0216
   56MOL    C1335323   2.796   0.030   5.386 -0.2814 -0.0119  0.9734
   56MOL    N1435324   2.891   0.090   5.476 -0.0205  0.4481  0.0949
   56MOL    H1535325   2.001   7.611   5.941  0.6060  0.9019  0.4079
   56MOL    H1635326   1.877   7.630   5.825  0.4779 -0.9702 -0.9559
   56MOL    H1735327   2.110   0.072   5.713  2.0661 -0.3691  1.0922
   56MOL    H1835328   2.169   7.634   5.801  0.3331  3.3922  1.5649
   56MOL    H1935329   1.966   7.632   5.571 -0.7486  0.7373  1.1343
   56MOL    H2035330   2.010   7.498   5.673 -0.3171  0.6831  0.4183
   56MOL    H2135331   2.139   7.488   5.471  2.5059 -0.9003 -0.5295
   56MOL    H2235332   2.252   7.519   5.611 -1.6554  0.1187  2.0426
   56MOL    H2335333   2.382   7.570   5.429 -1.4091  0.0533  1.4627
   56MOL    H2435334   2.406   0.165   5.343 -1.2872  0.2667 -0.3830
   56MOL    H2535335   2.372   0.040   5.231 -2.8919 -0.7323  0.7221
   56MOL    H2635336   2.578   7.617   5.300 -1.5949 -0.4632  0.5268
   56MOL    H2735337   2.572   0.054   5.201  0.1800 -0.5879 -0.2403
   56MOL    H2835338   2.632   0.039   5.510  1.1106 -0.5149 -0.3021
   56MOL    H2935339   2.645   0.187   5.413  0.5104  0.5036  1.3569
   56MOL    H3035340   2.808   0.051   5.280 -0.9268 -1.9770  0.4848
   56MOL    H3135341   2.797   7.622   5.396  1.2493 -0.0347  0.7751
   56MOL    H3235342   2.850   0.121   5.563 -0.7730  0.2163 -0.1785
   56MOL    H3335343   1.858   0.125   5.986  0.2399  0.5611  0.1923
   56MOL    C3435344   3.021   0.115   5.459  0.2649  0.3306  0.1297
   56MOL    O3535345   3.079   0.070   5.362 -0.4871  0.1260 -0.6042
   56MOL    C3635346   3.088   0.219   5.545  0.6868  0.2686  0.5839
   56MOL    C3735347   3.238   0.207   5.552  0.0173 -0.3401  0.5976
   56MOL    C3835348   3.298   0.065   5.592 -0.1831  0.3180 -0.2547
   56MOL    C3935349   3.281   0.021   5.738 -0.8041  0.5383 -0.4362
   56MOL    C4035350   3.332   7.579   5.765 -0.3852  0.1801 -0.9808
   56MOL    O4135351   3.444   7.549   5.717  0.5457  0.0342 -0.0981
   56MOL    N4235352   3.267   7.497   5.847  0.0043 -0.6615 -0.0659
   56MOL    C4335353   3.292   7.351   5.842 -0.4439 -0.1641  0.0138
   56MOL    C4435354   3.255   7.286   5.710 -0.3673 -0.1516 -0.0317
   56MOL    C4535355   3.237   7.141   5.729 -0.1449 -0.5881  0.2067
   56MOL    C4635356   3.250   7.067   5.598  0.2677  0.2242  0.9067
   56MOL    N4735357   3.379   7.090   5.528  0.0892  0.1561  0.0512
   56MOL    H4835358   3.058   0.314   5.500  2.2871  0.4511 -0.1539
   56MOL    H4935359   3.048   0.212   5.646 -0.1912 -1.3121  0.1505
   56MOL    H5035360   3.266   0.241   5.452 -3.4715  1.9019  0.3140
   56MOL    H5135361   3.274   0.286   5.617  0.6664  0.4956 -0.7549
   56MOL    H5235362   3.405   0.062   5.575 -0.2441 -0.8658 -0.4367
   56MOL    H5335363   3.263   7.688   5.525 -0.9274  1.3074 -1.0422
   56MOL    H5435364   3.177   0.015   5.770 -0.9825 -1.1229 -1.3003
   56MOL    H5535365   3.328   0.091   5.807 -2.1436  1.1005 -0.0742
   56MOL    H5635366   3.194   7.531   5.907  0.1024 -0.1696 -0.2224
   56MOL    H5735367   3.241   7.306   5.928 -2.6341  1.8634 -0.1774
   56MOL    H5835368   3.398   7.343   5.862 -0.1504  2.5419 -0.3906
   56MOL    H5935369   3.162   7.324   5.667 -0.1318  0.2425 -0.1875
   56MOL    H6035370   3.326   7.319   5.635  0.1170  3.6301  1.9847
   56MOL    H6135371   3.149   7.116   5.789 -0.4156 -2.1856 -0.8152
   56MOL    H6235372   3.321   7.101   5.785 -0.4171  0.5576  1.4333
   56MOL    H6335373   3.167   7.097   5.534  1.7442 -0.2554 -1.3289
   56MOL    H6435374   3.230   6.961   5.607 -3.2133  0.7124 -0.4317
   56MOL    H6535375   3.374   7.167   5.463  0.6559  0.8725  0.8393
   56MOL    C6635376   3.487   7.015   5.541 -0.0378  0.2687  0.5500
   56MOL    O6735377   3.488   6.912   5.612 -0.0424 -0.1594  0.4341
   56MOL    C6835378   3.607   7.054   5.468  0.0703 -0.3824  0.7144
   56MOL    C6935379   3.645   6.934   5.361 -0.2939 -0.2020 -0.3450
   56MOL    C7035380   3.632   6.987   5.220 -0.1714  0.4631 -0.0463
   56MOL    C7135381   3.632   6.873   5.112 -0.2542 -0.3134  0.8940
   56MOL    C7235382   3.749   6.865   5.022 -0.1000 -0.0680 -0.1451
   56MOL    O7335383   3.804   6.964   4.971 -0.0193  0.8891 -0.3899
   56MOL    N7435384   3.801   6.739   5.008  0.0750 -0.5512  0.5990
   56MOL    C7535385   3.920   6.708   4.924  0.2898 -0.0294 -0.6278
   56MOL    C7635386   4.048   6.777   4.966  0.1664 -0.2877  0.4654
   56MOL    C7735387   4.098   6.716   5.103  0.0346  0.4102 -0.6640
   56MOL    C7835388   4.225   6.770   5.158 -0.0075  0.0976  0.7794
   56MOL    N7935389   4.260   6.706   5.286  0.3536 -0.0610  0.0083
   56MOL    H8035390   3.600   7.147   5.412  1.0402 -0.9505 -0.3738
   56MOL    H8135391   3.696   7.049   5.530  0.3553 -1.8463  0.2142
   56MOL    H8235392   3.748   6.905   5.384 -0.0979  0.2824 -0.5942
   56MOL    H8335393   3.581   6.846   5.372 -0.8625  0.4415  1.8073
   56MOL    H8435394   3.709   7.061   5.197  0.5508 -0.6089 -1.1692
   56MOL    H8535395   3.547   7.053   5.207  2.3946  3.8942 -0.2477
   56MOL    H8635396   3.544   6.888   5.050  0.0661 -1.5291  0.1351
   56MOL    H8735397   3.609   6.777   5.158  2.2358 -0.4540  1.9598
   56MOL    H8835398   3.761   6.656   5.050 -1.0457 -1.9014 -2.9351
   56MOL    H8935399   3.910   6.741   4.821  1.9379 -0.2759 -0.8827
   56MOL    H9035400   3.923   6.599   4.929  0.9000 -0.0417 -1.2014
   56MOL    H9135401   4.120   6.774   4.884 -1.2386  0.9669 -0.8552
   56MOL    H9235402   4.034   6.883   4.986 -1.6118 -0.0884 -1.5943
   56MOL    H9335403   4.089   6.608   5.106  0.1106  0.4420  1.2437
   56MOL    H9435404   4.027   6.736   5.183  0.4084 -1.4398  0.1646
   56MOL    H9535405   4.205   6.874   5.186  1.7340 -0.2736  3.5899
   56MOL    H9635406   4.309   6.761   5.090 -1.7818 -1.8584 -1.2345
   56MOL    H9735407   4.248   6.755   5.374 -1.9559  0.1362 -0.3915
   56MOL    C9835408   4.321   6.586   5.299  0.2899  0.3875  0.4058
   56MOL    O9935409   4.339   6.516   5.198 -0.2719  0.1714 -0.1391
   56MOL   C10035410   4.374   6.551   5.438  0.3679  0.6594  0.1466
   56MOL   C10135411   4.522   6.585   5.451  0.5533  0.1426 -0.0664
   56MOL   C10235412   4.563   6.734   5.450 -0.0729 -0.3064 -0.4513
   56MOL   C10335413   4.470   6.820   5.540 -0.1487 -0.0219 -0.4364
   56MOL   C10435414   4.499   6.967   5.535  0.3094 -0.6263  0.3390
   56MOL   O10535415   4.615   7.005   5.529  0.0749  0.4299 -0.1113
   56MOL   N10635416   4.392   7.047   5.518 -0.1683  0.2278  0.3373
   56MOL   C10735417   4.392   7.191   5.499  0.2422  0.0428  0.4018
   56MOL   C10835418   4.284   7.268   5.564  0.1932  0.2807 -0.7783
   56MOL   C10935419   4.276   7.418   5.538 -0.0474  0.6292 -0.2486
   56MOL   C11035420   4.155   7.478   5.604 -0.6561 -0.1655 -0.8277
   56MOL   N11135421   4.135   7.614   5.546 -0.9846 -0.2160  0.5168
   56MOL   H11235422   4.317   6.599   5.517 -1.0813  1.2496 -1.2346
   56MOL   H11335423   4.354   6.444   5.444 -0.4441  0.7396 -0.9226
   56MOL   H11435424   4.548   6.555   5.552 -1.8596 -0.0241  0.5263
   56MOL   H11535425   4.589   6.530   5.385  0.3693  1.2957 -1.2517
   56MOL   H11635426   4.570   6.772   5.348 -0.0403 -3.1639 -1.5632
   56MOL   H11735427   4.669   6.738   5.477  0.0421  2.0682 -1.1478
   56MOL   H11835428   4.469   6.792   5.645  0.7535  2.8293  0.3688
   56MOL   H11935429   4.367   6.813   5.506 -0.3944  1.0723  0.0792
   56MOL   H12035430   4.304   7.001   5.532  0.8927 -2.3052 -0.9920
   56MOL   H12135431   4.374   7.202   5.392 -2.7659 -0.4941  0.8111
   56MOL   H12235432   4.486   7.241   5.522 -0.1344  0.6140  0.7097
   56MOL   H12335433   4.188   7.226   5.533  0.5851 -0.1641 -1.3979
   56MOL   H12435434   4.286   7.246   5.671 -0.7118 -0.0293 -0.8247
   56MOL   H12535435   4.272   7.434   5.430 -0.4812  0.1573 -0.3035
   56MOL   H12635436   4.362   7.469   5.582 -0.2605 -0.1277  1.0498
   56MOL   H12735437   4.150   7.463   5.712  3.7816 -2.5013 -0.8107
   56MOL   H12835438   4.067   7.421   5.572  0.2973 -1.4750 -1.1720
   56MOL   H12935439   4.198   7.646   5.474  1.2462 -2.6356  1.3092
   56MOL   C13035440   4.039   7.701   5.593 -0.1771  0.9608 -0.0263
   56MOL   O13135441   3.961   7.663   5.680 -0.3366  0.0102  0.1429
   56MOL   C13235442   4.020   0.144   5.546 -0.4995 -0.1606 -0.1795
   56MOL   C13335443   4.105   0.239   5.635  0.1661 -0.2675  0.2705
   56MOL   C13435444   4.115   0.388   5.590  0.9767  0.2765  0.0614
   56MOL   C13535445   4.231   0.467   5.640 -0.7393 -0.2284 -0.4588
   56MOL   C13635446   4.215   0.493   5.792 -0.3905  0.1986 -0.2609
   56MOL   O13735447   4.145   0.581   5.830  0.1228  0.4589 -0.2092
   56MOL   N13835448   4.255   0.392   5.876 -0.2849 -0.5257  0.1869
   56MOL   C13935449   4.203   0.376   6.013  0.4974  0.0371 -0.2005
   56MOL   C14035450   4.091   0.268   6.029  0.0855 -0.6027  0.0300
   56MOL   C14135451   4.137   0.124   6.001 -0.2795  0.0705  0.1307
   56MOL   C14235452   4.024   0.025   6.039  0.1555  1.1982 -0.4190
   56MOL   N14335453   3.906   0.036   5.947 -0.4612  0.1185  0.6686
   56MOL   H14435454   4.026   0.161   5.439  0.5820  0.5335 -0.0135
   56MOL   H14535455   3.920   0.174   5.575  0.2402  1.3365  0.8986
   56MOL   H14635456   4.066   0.229   5.736  1.4691 -3.3550  0.5380
   56MOL   H14735457   4.209   0.208   5.650 -0.3875 -2.0502  0.5225
   56MOL   H14835458   4.022   0.442   5.608  1.0961 -0.1597  2.1565
   56MOL   H14935459   4.131   0.384   5.483  1.2767 -0.3460  0.1259
   56MOL   H15035460   4.226   0.567   5.598 -1.5341  0.1455  0.5010
   56MOL   H15135461   4.327   0.424   5.612 -0.1422  1.2354 -0.6774
   56MOL   H15235462   4.309   0.318   5.835 -1.7367 -0.4477 -1.9246
   56MOL   H15335463   4.162   0.472   6.045 -1.0882 -0.9190  0.6873
   56MOL   H15435464   4.290   0.353   6.075  1.8007  0.5138 -1.8202
   56MOL   H15535465   4.065   0.276   6.134  3.0719 -0.1116  0.7843
   56MOL   H15635466   3.997   0.298   5.982 -0.5311  0.0957  1.6827
   56MOL   H15735467   4.220   0.102   6.067 -0.9197  0.1862  0.9814
   56MOL   H15835468   4.174   0.100   5.901  1.3814 -2.2738  1.2654
   56MOL   H15935469   3.996   0.061   6.139 -2.5814  1.6583 -1.3171
   56MOL   H16035470   4.053   7.622   6.031  0.3634  1.1014  1.2424
   56MOL   H16135471   3.924   0.015   5.850  0.4845  2.5740  0.2602
   56MOL   C16235472   3.780   0.078   5.979  0.0622 -0.0302 -0.3193
   56MOL   O16335473   3.747   0.134   6.083 -0.1645 -0.1610  0.4285
   56MOL   C16435474   3.666   0.062   5.877 -0.1331  0.3858  0.2649
   56MOL   C16535475   3.628   0.186   5.796 -0.1139  0.0750 -0.0031
   56MOL   C16635476   3.545   0.281   5.881 -0.4247 -0.2079 -0.4246
   56MOL   C16735477   3.510   0.398   5.793 -0.0588 -0.7156 -0.2381
   56MOL   C16835478   3.429   0.503   5.862 -0.9281  0.1302 -0.1180
   56MOL   O16935479   3.446   0.521   5.984  0.6105  0.6224 -0.6653
   56MOL   N17035480   3.340   0.574   5.792 -0.3511 -0.1838 -0.3219
   56MOL   C17135481   3.248   0.685   5.841  0.1105 -0.3453 -0.4707
   56MOL   C17235482   3.105   0.648   5.877  0.1543  0.1204  0.3184
   56MOL   C17335483   3.030   0.562   5.776  0.2186  0.4015 -0.6980
   56MOL   C17435484   2.993   0.627   5.645  0.2832  0.2809 -0.5816
   56MOL   N17535485   2.896   0.737   5.660  0.0864 -0.0578  0.4250
   56MOL   H17635486   3.677   7.683   5.803 -0.9269  1.2848 -0.8359
   56MOL   H17735487   3.576   0.034   5.931  0.9459 -2.0558  0.8847
   56MOL   H17835488   3.713   0.238   5.751 -0.6101 -0.7271 -1.9088
   56MOL   H17935489   3.571   0.149   5.711  0.1805  0.6131 -0.4469
   56MOL   H18035490   3.619   0.308   5.956 -1.1448  0.6308 -0.0051
   56MOL   H18135491   3.457   0.237   5.929  0.5536 -2.1372 -0.3841
   56MOL   H18235492   3.457   0.366   5.703  1.9133 -1.5086 -1.1400
   56MOL   H18335493   3.607   0.431   5.757 -0.8428  0.9172 -0.9223
   56MOL   H18435494   3.331   0.553   5.693  0.9229  0.0880 -0.5001
   56MOL   H18535495   3.252   0.765   5.766  1.3345  0.4057  0.3769
   56MOL   H18635496   3.295   0.747   5.918  1.8257  1.4541 -2.8765
   56MOL   H18735497   3.103   0.595   5.972 -0.3197  1.1383  0.8862
   56MOL   H18835498   3.064   0.747   5.896  2.1730  0.7883  1.2778
   56MOL   H18935499   2.940   0.515   5.816  0.6228  0.3014  0.1067
   56MOL   H19035500   3.095   0.476   5.759  0.5674  0.0015  2.4877
   56MOL   H19135501   2.945   0.555   5.580  0.1377  0.5501 -0.7726
   56MOL   H19235502   3.082   0.658   5.589  1.6943  0.2562  1.6066
   56MOL   H19335503   2.854   0.759   5.750  0.4545  2.2811  0.0456
   56MOL   C19435504   2.856   0.813   5.553 -0.4002 -0.4559  0.9087
   56MOL   O19535505   2.914   0.806   5.447  0.1190  0.0739 -0.3583
   56MOL   C19635506   2.732   0.904   5.574  0.1271  0.4389  0.4737
   56MOL   C19735507   2.669   0.907   5.712 -0.1420 -0.3712  0.0276
   56MOL   C19835508   2.607   0.770   5.760 -0.0551 -0.7291  0.3502
   56MOL   C19935509   2.578   0.748   5.911 -0.0913 -0.2359  0.2807
   56MOL   C20035510   2.713   0.750   5.986  0.0611  0.3114 -0.3607
   56MOL   O20135511   2.802   0.679   5.957  0.1433 -0.5912 -0.0550
   56MOL   N20235512   2.717   0.838   6.086 -0.4187  0.2173  0.0771
   56MOL   C20335513   2.827   0.839   6.180  0.6256 -0.3182  0.0716
   56MOL   C20435514   2.917   0.969   6.178 -0.5653  0.2441 -0.1831
   56MOL   C20535515   3.020   0.970   6.063  0.2405  0.4009  0.3193
   56MOL   C20635516   3.115   1.092   6.061 -0.2450  0.4743  0.1838
   56MOL   N20735517   3.184   1.118   6.187  0.1714 -0.2135  0.2612
   56MOL   H20835518   2.773   1.002   5.553  0.2322  0.4273  0.6193
   56MOL   H20935519   2.654   0.883   5.501 -0.6888  0.6327  1.2843
   56MOL   H21035520   2.747   0.935   5.783 -1.7342  1.3332  1.1573
   56MOL   H21135521   2.585   0.976   5.711  2.3565  2.7329 -0.2544
   56MOL   H21235522   2.670   0.687   5.729 -0.6764 -0.3371 -2.0917
   56MOL   H21335523   2.523   0.751   5.694 -0.9876 -0.8329  1.5413
   56MOL   H21435524   2.544   0.646   5.923  3.1915 -1.2513  1.4362
   56MOL   H21535525   2.493   0.804   5.950 -0.7937 -0.2485 -1.1693
   56MOL   H21635526   2.644   0.909   6.081 -0.7048 -0.0418  0.5798
   56MOL   H21735527   2.895   0.754   6.183 -1.1039 -1.6778  3.7154
   56MOL   H21835528   2.790   0.830   6.282  1.3217 -0.3778  0.3190
   56MOL   H21935529   2.853   1.057   6.175 -2.1727 -0.9283 -0.6186
   56MOL   H22035530   2.973   0.978   6.272  0.2131 -1.3184 -0.4682
   56MOL   H22135531   2.963   0.970   5.970 -0.8259 -0.3221  0.9578
   56MOL   H22235532   3.076   0.876   6.061 -1.0609 -0.4523  1.9667
   56MOL   H22335533   3.057   1.179   6.032 -0.3150 -0.4161 -2.4681
   56MOL   H22435534   3.195   1.075   5.989  0.7818  0.4702  1.3080
   56MOL   H22535535   3.176   1.049   6.261 -0.2646 -1.1665 -0.6637
   56MOL   C22635536   3.279   1.213   6.198 -0.0691  0.9265  0.0972
   56MOL   O22735537   3.311   1.288   6.108  0.3089  0.6804 -0.5637
   56MOL   C22835538   3.360   1.218   6.327 -0.5361  0.2850  0.9023
   56MOL   C22935539   3.474   1.314   6.345 -0.1215  0.5879 -0.1358
   56MOL   C23035540   3.422   1.443   6.397 -0.0673 -0.1940  0.4113
   56MOL   C23135541   3.534   1.540   6.447 -0.1607 -0.5342 -0.3543
   56MOL   C23235542   3.574   1.517   6.589  0.3746  0.4986 -0.1057
   56MOL   O23335543   3.566   1.399   6.639  0.2826 -0.0302  0.1345
   56MOL   N23435544   3.625   1.623   6.658 -0.1905  0.6758  1.0109
   56MOL   C23535545   3.670   1.608   6.792  0.2253 -0.3374 -0.2463
   56MOL   C23635546   3.825   1.644   6.812  0.6457  0.5877 -0.7121
   56MOL   C23735547   3.865   1.615   6.959  0.3083  0.1016  0.1751
   56MOL   C23835548   4.004   1.668   7.008 -0.4997  0.1206  0.3457
   56MOL   N23935549   4.034   1.630   7.147 -0.4245  0.2132  0.0816
   56MOL   H24035550   3.294   1.214   6.413 -0.1714  2.3405  1.2814
   56MOL   H24135551   3.403   1.117   6.329  0.4191  0.6784  0.8418
   56MOL   H24235552   3.551   1.265   6.405 -1.6147  0.4352  1.7330
   56MOL   H24335553   3.509   1.334   6.244  1.1351  1.9781  0.5643
   56MOL   H24435554   3.351   1.426   6.478  0.4800 -1.6143  0.5923
   56MOL   H24535555   3.357   1.494   6.325 -1.3662 -1.4821  0.6527
   56MOL   H24635556   3.485   1.637   6.458  0.2292 -0.5717  1.8512
   56MOL   H24735557   3.616   1.545   6.375 -1.8922 -0.0670 -2.3418
   56MOL   H24835558   3.625   1.717   6.623  0.5250  0.6798  1.0088
   56MOL   H24935559   3.647   1.508   6.828 -1.0714 -0.0185 -0.1601
   56MOL   H25035560   3.607   1.672   6.854  2.0982  0.4813  0.8501
   56MOL   H25135561   3.891   1.588   6.747 -1.5313 -1.3600 -1.3308
   56MOL   H25235562   3.835   1.749   6.785  2.4274  0.8251  0.7351
   56MOL   H25335563   3.857   1.507   6.974  2.2042  0.1566  1.9047
   56MOL   H25435564   3.788   1.653   7.027  0.3771 -1.3810  1.1100
   56MOL   H25535565   4.007   1.777   7.000  3.2208  0.0031 -0.6151
   56MOL   H25635566   4.087   1.637   6.945  0.7930  1.8795  1.1339
   56MOL   H25735567   4.082   1.544   7.169 -0.5261 -0.3496 -1.8210
   56MOL   C25835568   3.977   1.680   7.258  0.3718 -0.4729  0.3610
   56MOL   O25935569   3.912   1.791   7.260 -0.2442 -0.0246  0.2121
   56MOL   C26035570   3.987   1.599   7.384 -0.1168  0.3620 -0.2549
   56MOL   C26135571   4.072   1.663   7.498 -0.1581 -0.2551  0.0024
   56MOL   C26235572   4.217   1.694   7.461  0.4280 -0.7343 -0.6638
   56MOL   C26335573   4.288   1.732   7.593  0.6448 -0.4192 -0.0207
   56MOL   C26435574   4.437   1.746   7.585  0.1966 -0.2901  0.3960
   56MOL   O26535575   4.491   1.756   7.473  0.3383 -0.6547  0.0846
   56MOL   N26635576   4.500   1.743   7.701  0.4579  0.1332  0.8653
   56MOL   C26735577   4.642   1.747   0.028 -0.4021 -0.3262 -0.4435
   56MOL   C26835578   4.652   1.741   0.179  0.1049 -0.5289  0.0339
   56MOL   C26935579   4.782   1.794   0.236  0.3063  0.8091  0.0978
   56MOL   C27035580   4.788   1.770   0.391  0.1473  0.3984 -0.2453
   56MOL   N27135581   4.853   1.879   0.454  0.1607 -0.2018  0.7632
   56MOL   H27235582   3.885   1.585   7.417  0.5216  0.6790  1.9194
   56MOL   H27335583   4.032   1.506   7.351 -1.2798 -1.1772  2.3871
   56MOL   H27435584   4.028   1.756   7.534  1.1316  1.5072 -2.8129
   56MOL   H27535585   4.058   1.604   7.588  0.5262 -0.4345 -0.0093
   56MOL   H27635586   4.216   1.774   7.387  0.1919  2.0402  2.2554
   56MOL   H27735587   4.256   1.607   7.407  0.2411  0.5701 -2.9576
   56MOL   H27835588   4.277   1.654   7.668 -1.4804  0.3149  0.4695
   56MOL   H27935589   4.242   1.820   7.636  0.5469 -0.5085  0.0587
   56MOL   H28035590   4.447   1.745   0.086  0.7467 -1.5082  1.0870
   56MOL   H28135591   4.682   1.848   0.011 -1.0291  0.2389  1.3336
   56MOL   H28235592   4.710   1.684   7.672 -0.2320  0.9619 -1.7219
   56MOL   H28335593   4.574   1.806   0.219 -0.3241 -0.3895 -1.0345
   56MOL   H28435594   4.625   1.646   0.225 -1.0623 -1.0499 -1.7138
   56MOL   H28535595   4.789   1.899   0.207 -0.3917  0.9912  0.5668
   56MOL   H28635596   4.862   1.736   0.191  0.9615  1.2073  0.7466
   56MOL   H28735597   4.841   1.678   0.414 -0.6863 -0.1207 -0.3689
   56MOL   H28835598   4.687   1.757   0.431  0.1003 -1.5957 -0.9696
   56MOL   H28935599   4.887   1.948   0.388 -1.9240  1.5855  1.5162
   56MOL   C29035600   4.891   1.893   0.581  0.1226 -0.0543  0.2999
   56MOL   O29135601   4.891   1.805   0.667  0.0218  0.0431 -0.5541
   56MOL   C29235602   4.951   2.030   0.608  0.1537  0.1278  0.0708
   56MOL   C29335603   5.051   2.087   0.508  0.0260 -0.2611  0.0001
   56MOL   C29435604   5.056   2.238   0.513  0.4006  0.4416 -0.7250
   56MOL   C29535605   5.184   2.304   0.450 -0.3148  0.4274 -0.4801
   56MOL   C29635606   5.311   2.285   0.526  0.5443 -0.8622  0.3936
   56MOL   O29735607   5.307   2.216   0.624  0.1062 -0.0407  0.0759
   56MOL   N29835608   5.427   2.349   0.493 -0.4551  0.1763 -0.3275
   56MOL   C29935609   5.444   2.429   0.373 -0.0961 -0.0474  0.6278
   56MOL   C30035610   5.415   2.580   0.404 -0.2362 -0.3698 -0.1161
   56MOL   C30135611   5.410   2.663   0.278 -0.4513  0.1469 -0.1248
   56MOL   C30235612   5.338   2.791   0.295  0.3619  0.8370  0.6429
   56MOL   N30335613   5.187   2.759   0.293 -0.2491 -0.7997  0.1858
   56MOL   H30435614   4.870   2.102   0.620 -0.5777 -0.9177  1.4096
   56MOL   H30535615   5.011   2.036   0.699  0.6241 -4.3274  0.1681
   56MOL   H30635616   5.151   2.045   0.522 -1.1197 -3.4475 -1.0380
   56MOL   H30735617   5.021   2.052   0.409  2.5113 -0.5111 -0.6917
   56MOL   H30835618   5.052   2.272   0.616  2.7770 -0.9128 -0.1478
   56MOL   H30935619   4.965   2.282   0.471  0.7512  0.2370 -1.7167
   56MOL   H31035620   5.154   2.401   0.412 -3.6855 -1.0145 -1.6908
   56MOL   H31135621   5.205   2.248   0.359 -0.2995  1.3959 -1.0715
   56MOL   H31235622   5.509   2.332   0.549 -0.2638  0.4574 -0.5212
   56MOL   H31335623   5.378   2.409   0.289 -1.0622  1.5777  0.9783
   56MOL   H31435624   5.546   2.415   0.336 -0.5684 -2.3453  0.0939
   56MOL   H31535625   5.317   2.592   0.450  0.0707  0.1699  0.4037
   56MOL   H31635626   5.486   2.625   0.474  1.2493 -3.2690  0.3053
   56MOL   H31735627   5.370   2.612   0.190 -1.8942  1.1453 -0.0674
   56MOL   H31835628   5.512   2.677   0.243  0.1395  1.1975  1.9521
   56MOL   H31935629   5.364   2.851   0.208 -0.6560  0.9145  0.3963
   56MOL   H32035630   5.374   2.842   0.385 -1.4312  2.2396  0.5965
   56MOL   H32135631   5.142   2.764   0.383 -2.7023  3.8835 -1.1412
   56MOL   C32235632   5.126   2.748   0.176 -0.1375 -0.7255 -0.3055
   56MOL   O32335633   5.181   2.730   0.065 -0.1271 -0.6434  0.4223
   56MOL   C32435634   4.975   2.755   0.178 -0.1840 -0.0729  0.1402
   56MOL   C32535635   4.904   2.640   0.091  0.8626  0.4945  0.0421
   56MOL   C32635636   4.884   2.510   0.167  0.2261 -0.2971  0.5304
   56MOL   C32735637   4.771   2.496   0.277 -0.6553  0.0006  0.1194
   56MOL   C32835638   4.749   2.349   0.329  0.6730  0.3758 -0.3931
   56MOL   O32935639   4.814   2.254   0.282  0.3355 -0.2238  0.3459
   56MOL   N33035640   4.656   2.336   0.430  0.0321 -0.0586  0.1507
   56MOL   C33135641   4.602   2.208   0.479 -0.0014  0.2379  0.2257
   56MOL   C33235642   4.534   2.126   0.371  0.6294  0.9660  0.1145
   56MOL   C33335643   4.421   2.188   0.295  1.5668  0.1191 -0.0888
   56MOL   C33435644   4.369   2.080   0.196  0.5186 -0.2194 -0.2618
   56MOL   N33535645   4.241   2.111   0.136 -0.1954  0.4774  0.8739
   56MOL   H33635646   4.941   2.754   0.282  0.3132  0.4892  0.3101
   56MOL   H33735647   4.951   2.856   0.144  0.2538  0.0047  0.0565
   56MOL   H33835648   4.808   2.670   0.047  1.2957 -0.8120 -1.8603
   56MOL   H33935649   4.975   2.623   0.010 -0.8714 -0.8675 -1.2325
   56MOL   H34035650   4.981   2.472   0.197 -0.2356 -0.3452  2.0162
   56MOL   H34135651   4.867   2.438   0.088  1.8973 -1.2686  1.0455
   56MOL   H34235652   4.680   2.528   0.227  0.6299  0.2220 -2.1756
   56MOL   H34335653   4.806   2.563   0.355  2.2615 -2.1166  0.7292
   56MOL   H34435654   4.605   2.418   0.460 -1.2027 -1.7614  2.9372
   56MOL   H34535655   4.537   2.222   0.565  0.1162  0.5935  0.2594
   56MOL   H34635656   4.670   2.143   0.534 -0.7940 -0.7604  0.0462
   56MOL   H34735657   4.618   2.110   0.303 -0.6386  1.3388 -1.5821
   56MOL   H34835658   4.519   2.029   0.418  0.4168  0.7337 -0.4176
   56MOL   H34935659   4.434   2.281   0.239 -1.9816  1.2025  0.7625
   56MOL   H35035660   4.331   2.200   0.355  0.9723 -0.9119 -0.7512
   56MOL   H35135661   4.358   1.986   0.249  0.4150  0.4598  0.9209
   56MOL   H35235662   4.449   2.076   0.121  1.3480  1.4893  0.4998
   56MOL   H35335663   4.163   2.102   0.200 -1.2839 -0.0777 -0.4941
   56MOL   C35435664   4.217   2.117   0.004  0.5000 -0.5511  0.0300
   56MOL   O35535665   4.310   2.112   7.626 -0.3244  0.2878  0.2384
   56MOL   C35635666   4.075   2.151   7.649 -0.8588  0.4742 -0.1130
   56MOL   C35735667   4.079   2.147   7.492 -0.0167  0.1100 -0.5803
   56MOL   C35835668   3.947   2.176   7.424 -0.0316 -0.2143 -0.4735
   56MOL   C35935669   3.953   2.127   7.274 -0.5278 -0.1243 -0.0752
   56MOL   C36035670   3.819   2.127   7.200 -0.5337  0.0345 -0.1391
   56MOL   O36135671   3.753   2.231   7.189 -0.3415 -0.4782 -0.0877
   56MOL   N36235672   3.784   2.007   7.152 -0.2464 -0.2631  0.1710
   56MOL   C36335673   3.659   1.960   7.103  0.0539 -0.2586 -1.0254
   56MOL   C36435674   3.604   2.027   6.975  0.2946  0.8051  0.7004
   56MOL   C36535675   3.700   2.029   6.853  0.1548 -0.3682 -0.5596
   56MOL   C36635676   3.621   2.049   6.721 -0.1851 -0.1959 -0.0849
   56MOL   N36735677   3.719   2.084   6.617 -0.3280 -0.0893  0.4425
   56MOL   H36835678   3.992   2.088   7.679  0.3639 -0.5731  1.1593
   56MOL   H36935679   4.045   2.247   7.690 -2.1416 -0.4780  1.2118
   56MOL   H37035680   4.159   2.208   7.451 -0.2070  0.4620 -0.4384
   56MOL   H37135681   4.108   2.046   7.463 -2.6720 -0.9170  0.1952
   56MOL   H37235682   3.922   2.282   7.430  3.1114  0.7946 -3.3950
   56MOL   H37335683   3.866   2.124   7.475 -1.0287  0.1426 -1.6499
   56MOL   H37435684   4.001   2.030   7.268  2.1481  1.0294  1.9625
   56MOL   H37535685   4.021   2.189   7.216 -2.9331 -0.6000 -3.5940
   56MOL   H37635686   3.835   1.933   7.198 -0.7854 -1.2710 -0.8242
   56MOL   H37735687   3.582   1.976   7.178  0.6971  0.0952 -0.4348
   56MOL   H37835688   3.663   1.853   7.084  1.4326 -0.2982 -0.5515
   56MOL   H37935689   3.517   1.968   6.949  0.8357  0.4530 -0.3615
   56MOL   H38035690   3.565   2.124   7.004  0.2534  0.5301  1.5662
   56MOL   H38135691   3.739   1.928   6.844 -4.1854 -2.3054  1.0787
   56MOL   H38235692   3.772   2.111   6.859  0.9319 -1.0366 -0.5594
   56MOL   H38335693   3.545   2.127   6.733  1.1233  0.8689  1.5018
   56MOL   H38435694   3.568   1.957   6.696  1.0504 -0.9679  0.1194
   56MOL   H38535695   3.757   2.177   6.616 -0.4439  0.0009  2.2216
   56MOL   C38635696   3.748   2.011   6.512 -0.1232  0.0972  0.8667
   56MOL   O38735697   3.714   1.898   6.499 -0.3228 -0.3021 -0.1771
   56MOL   C38835698   3.834   2.082   6.404 -0.0732  0.4592  0.1340
   56MOL   C38935699   3.767   2.110   6.271  0.1127 -0.5544  0.1475
   56MOL   C39035700   3.715   1.979   6.202  0.7938 -0.2724 -0.2482
   56MOL   C39135701   3.661   1.995   6.064 -0.3906 -0.2454  0.0880
   56MOL   C39235702   3.530   2.074   6.053  0.2535  0.3526 -0.3490
   56MOL   O39335703   3.487   2.151   6.132 -0.3507 -0.5879  0.3271
   56MOL   N39435704   3.459   2.054   5.947 -0.2932  0.4467 -0.1525
   56MOL   C39535705   3.328   2.113   5.910  0.1575  0.5549  0.4488
   56MOL   C39635706   3.343   2.228   5.817  0.1959  0.2256 -1.0354
   56MOL   C39735707   3.406   2.196   5.686 -0.6333  0.5028  0.0259
   56MOL   C39835708   3.418   2.317   5.593 -0.9887  0.6086 -0.4434
   56MOL   N39935709   3.536   2.401   5.637 -0.0946 -0.4295  0.1873
   56MOL   H40035710   3.871   2.177   6.444 -0.8301 -0.5273  3.2974
   56MOL   H40135711   3.914   2.011   6.380  0.3577  0.4705  1.5097
   56MOL   H40235712   3.687   2.182   6.289 -0.7401 -0.9422 -1.9967
   56MOL   H40335713   3.845   2.156   6.211 -0.7560 -3.6146 -3.5572
   56MOL   H40435714   3.639   1.945   6.273 -0.4779  0.7154 -1.1094
   56MOL   H40535715   3.798   1.909   6.196  3.2198  2.5070 -0.1300
   56MOL   H40635716   3.650   1.899   6.015  0.9559  0.8573 -2.4516
   56MOL   H40735717   3.734   2.059   6.015  0.1085  0.4522  1.6798
   56MOL   H40835718   3.485   1.976   5.888 -1.3387 -0.4245  0.5296
   56MOL   H40935719   3.266   2.142   5.995 -3.3978 -0.9586 -1.5303
   56MOL   H41035720   3.274   2.030   5.864 -1.8165  1.6276  0.7790
   56MOL   H41135721   3.242   2.263   5.799  1.4434  3.9754 -1.3124
   56MOL   H41235722   3.390   2.303   5.881  2.3990 -1.2607 -0.8710
   56MOL   H41335723   3.335   2.142   5.623  0.2920  0.7249 -1.2261
   56MOL   H41435724   3.501   2.145   5.697  0.0492  1.9778  1.2466
   56MOL   H41535725   3.331   2.382   5.603  0.1107  2.5412 -2.8410
   56MOL   H41635726   3.442   2.281   5.492 -1.3020  0.9544 -0.6404
   56MOL   H41735727   3.625   2.367   5.603  0.0259 -1.1362  1.2039
   56MOL   C41835728   3.528   2.507   5.724  0.4371  0.1047  0.1986
   56MOL   O41935729   3.424   2.554   5.766  0.4015 -0.0280  0.0295
   56MOL   C42035730   3.658   2.567   5.778 -0.0925  0.7999  0.7773
   56MOL   C42135731   3.715   2.508   5.909 -0.3023  0.4554  0.1681
   56MOL   C42235732   3.744   2.358   5.902 -0.6825 -0.2577 -0.1757
   56MOL   C42335733   3.871   2.329   5.824  0.3395 -0.1672 -0.0391
   56MOL   C42435734   3.892   2.178   5.822 -0.1607 -0.1687  0.8474
   56MOL   O42535735   3.812   2.111   5.751 -0.3018  0.2650 -0.1206
   56MOL   N42635736   3.981   2.132   5.912 -0.5941  0.0392  0.6616
   56MOL   C42735737   4.017   1.990   5.939  0.5289 -0.0164  0.0194
   56MOL   C42835738   4.118   1.926   5.836  0.0309  0.4373  0.6921
   56MOL   C42935739   4.120   1.772   5.831 -0.5899 -1.0039 -0.3153
   56MOL   C43035740   4.195   1.707   5.724  0.3647 -0.7084 -0.4742
   56MOL   N43135741   4.185   1.562   5.724  0.3236  0.5038 -0.0097
   56MOL   H43235742   3.732   2.552   5.699 -0.1998  2.3057  0.3659
   56MOL   H43335743   3.642   2.675   5.783  1.0601  0.9116  2.1581
   56MOL   H43435744   3.804   2.561   5.943  1.8059 -1.5381 -2.0404
   56MOL   H43535745   3.631   2.523   5.976 -2.3341  2.0203 -2.6293
   56MOL   H43635746   3.660   2.303   5.859  0.2499 -3.9498  2.5223
   56MOL   H43735747   3.762   2.318   6.002 -1.6385  0.3647  0.2548
   56MOL   H43835748   3.958   2.383   5.862  0.1282 -1.2016  1.9691
   56MOL   H43935749   3.859   2.365   5.721  0.2789  0.7100  0.2659
   56MOL   H44035750   4.038   2.195   5.967  0.5898  1.1542 -1.7390
   56MOL   H44135751   3.921   1.938   5.928  0.3531  0.6877 -2.0296
   56MOL   H44235752   4.051   1.976   6.041 -2.7647 -0.9906  1.0622
   56MOL   H44335753   4.093   1.954   5.734  1.2037 -0.9120  0.0253
   56MOL   H44435754   4.218   1.967   5.851  2.3101 -3.9090 -1.8944
   56MOL   H44535755   4.015   1.743   5.828 -1.4771  1.8979  0.8808
   56MOL   H44635756   4.150   1.733   5.929 -1.6260  0.6974  0.6952
   56MOL   H44735757   4.302   1.727   5.721  0.7379 -2.1302  1.8988
   56MOL   H44835758   4.162   1.734   5.624 -0.5690  2.3001  0.5888
   56MOL   H44935759   4.257   1.508   5.770 -0.1984  0.9439  1.3755
   56MOL   C45035760   4.081   1.476   5.704 -0.1207 -0.1310 -0.1661
   56MOL   O45135761   3.965   1.512   5.668 -0.1299 -0.2053 -0.0334
   56MOL   C45235762   4.109   1.325   5.726 -0.2946  0.1008 -0.0183
   56MOL   C45335763   4.001   1.249   5.809  0.2521  0.1027 -0.3274
   56MOL   C45435764   4.049   1.160   5.932  0.1849 -0.3997  0.1443
   56MOL   C45535765   4.064   1.007   5.908 -0.6549 -0.0699  0.3349
   56MOL   C45635766   4.147   0.935   6.010  0.0153 -0.0001 -0.2086
   56MOL   O45735767   4.111   0.932   6.128  0.5454 -0.3583 -0.2341
   56MOL   N45835768   4.261   0.872   5.962 -0.1209 -0.2217 -0.2259
   56MOL   C45935769   4.351   0.792   6.045  0.6266 -0.2230 -0.1736
   56MOL   C46035770   4.496   0.792   6.005  0.2981  0.1782 -0.1578
   56MOL   C46135771   4.558   0.926   6.039 -0.4734 -0.1984 -0.1753
   56MOL   C46235772   4.703   0.931   6.016  0.3798 -0.2551 -0.1300
   56MOL   N46335773   4.724   0.934   5.869  0.7049 -0.4871 -0.5141
   56MOL   H46435774   4.083   1.278   5.631 -0.8046  1.9271 -0.8188
   56MOL   H46535775   4.210   1.303   5.757 -0.2915 -0.1969 -0.2358
   56MOL   H46635776   3.928   1.318   5.851  0.3654 -0.2415  0.4545
   56MOL   H46735777   3.954   1.174   5.746  0.6747  0.4309 -1.0298
   56MOL   H46835778   3.973   1.177   6.008 -0.7501 -0.2849 -0.8035
   56MOL   H46935779   4.149   1.195   5.959 -0.5186  1.0448  0.9416
   56MOL   H47035780   4.101   0.982   5.809 -0.7075 -0.2589  0.3618
   56MOL   H47135781   3.962   0.967   5.911 -0.7635  0.1596 -0.3210
   56MOL   H47235782   4.272   0.871   5.861  0.3720  0.1862 -0.1786
   56MOL   H47335783   4.318   0.689   6.027 -1.1729  0.6015 -1.7845
   56MOL   H47435784   4.352   0.816   6.151 -0.2236  1.9246 -0.6204
   56MOL   H47535785   4.541   0.710   6.060  1.7577  1.4531  0.5779
   56MOL   H47635786   4.508   0.760   5.902 -0.2233  0.0507 -0.1840
   56MOL   H47735787   4.547   0.941   6.146 -0.4940 -1.1972 -0.0279
   56MOL   H47835788   4.503   1.011   5.998 -0.4411 -0.9725 -1.8762
   56MOL   H47935789   4.749   0.838   6.049 -1.8952 -1.8491 -1.3404
   56MOL   H48035790   4.754   1.019   6.055 -2.4085  0.6590  1.5831
   56MOL   H48135791   4.661   0.883   5.809 -0.0879  0.6750 -0.6810
   56MOL   C48235792   4.810   1.013   5.798 -0.8154  0.3940  0.4577
   56MOL   O48335793   4.888   1.087   5.849  0.3964  0.2270 -0.4156
   56MOL   C48435794   4.807   1.010   5.644  0.3262 -0.2260 -0.4333
   56MOL   C48535795   4.946   0.964   5.590 -0.1132  0.2167 -0.7471
   56MOL   C48635796   4.940   0.915   5.438 -0.4702 -0.1445 -0.0526
   56MOL   C48735797   4.908   1.020   5.337 -0.1257 -0.2646  0.1240
   56MOL   C48835798   4.878   0.970   5.200 -0.0703  0.2621  0.3521
   56MOL   O48935799   4.793   0.883   5.181 -0.0609 -0.3329 -0.5731
   56MOL   N49035800   4.962   1.022   5.110  0.7207  0.0361 -0.0645
   56MOL   C49135801   4.991   0.967   4.977 -0.2714 -0.1237 -0.0691
   56MOL   C49235802   5.079   0.843   4.981  0.5537  0.6840  0.3756
   56MOL   C49335803   5.112   0.799   4.834  0.9267 -0.9835  0.4065
   56MOL   C49435804   5.158   0.656   4.820 -0.3611 -0.3069 -0.8223
   56MOL   N49535805   5.195   0.623   4.680 -0.1019  0.3497 -0.5913
   56MOL   H49635806   4.737   0.937   5.605  1.4506 -2.0788  0.9244
   56MOL   H49735807   4.784   1.104   5.593 -3.0042 -0.6601  0.1726
   56MOL   H49835808   5.021   1.042   5.599 -0.3264  0.3666 -0.2274
   56MOL   H49935809   4.993   0.880   5.639 -2.4708  0.9849  3.0508
   56MOL   H50035810   4.879   0.826   5.423 -1.7255  0.8628 -1.0334
   56MOL   H50135811   5.038   0.872   5.415 -0.2626  0.2331  0.1163
   56MOL   H50235812   4.991   1.090   5.331 -1.7254  1.5492 -1.1913
   56MOL   H50335813   4.818   1.074   5.367  0.3481  1.6696 -1.7974
   56MOL   H50435814   5.036   1.077   5.153  0.5979  0.1540 -0.0050
   56MOL   H50535815   5.034   1.047   4.916 -0.4650  1.3978  1.7248
   56MOL   H50635816   4.905   0.924   4.926  1.0595 -1.7940 -0.9463
   56MOL   H50735817   5.171   0.850   5.039  1.4604  1.3248 -1.1205
   56MOL   H50835818   5.017   0.767   5.028  0.8182 -0.4286 -1.0516
   56MOL   H50935819   5.191   0.871   4.810 -0.4780  0.3234 -0.4134
   56MOL   H51035820   5.025   0.816   4.770  0.9110 -2.7847 -0.0608
   56MOL   H51135821   5.076   0.590   4.849  0.4552 -1.3820 -0.9007
   56MOL   H51235822   5.250   0.646   4.878 -0.0371  0.7397 -1.1472
   56MOL   H51335823   5.185   0.704   4.621  1.1257  0.4045 -0.7396
   56MOL   C51435824   5.232   0.500   4.637 -0.1851 -0.1601 -0.3538
   56MOL   O51535825   5.270   0.408   4.713 -0.2165  0.1848  0.2359
   56MOL   C51635826   5.223   0.487   4.488 -0.2386 -0.3542 -0.5834
   56MOL   C51735827   5.321   0.392   4.417  0.0707  0.2666  1.0589
   56MOL   C51835828   5.471   0.414   4.450 -0.0576  0.4643  0.7311
   56MOL   C51935829   5.525   0.566   4.447 -0.5665  1.1043  0.9552
   56MOL   C52035830   5.676   0.569   4.468 -0.6217 -0.0475 -0.4035
   56MOL   O52135831   5.740   0.480   4.525  0.4048 -0.0709  0.2983
   56MOL   N52235832   5.732   0.678   4.409  0.1764  0.3215 -0.2522
   56MOL   C52335833   5.877   0.690   4.388  0.3448  0.1797 -0.4279
   56MOL   C52435834   5.895   0.762   4.248 -0.3065  0.1785 -0.4908
   56MOL   C52535835   6.038   0.772   4.201  0.1293  0.2611  0.0219
   56MOL   C52635836   6.096   0.643   4.141 -0.8179  0.6285 -0.6502
   56MOL   N52735837   6.224   0.665   4.074  0.0539 -0.2194  0.1709
   56MOL   H52835838   5.117   0.479   4.465 -0.5519  0.3661  0.5622
   56MOL   H52935839   5.242   0.588   4.450 -0.8860 -0.3948 -1.0250
   56MOL   H53035840   5.299   0.286   4.425  2.1093 -0.4601 -1.8765
   56MOL   H53135841   5.310   0.425   4.313  1.6366  0.8075  1.0479
   56MOL   H53235842   5.531   0.347   4.390 -1.6514 -0.8534  0.5827
   56MOL   H53335843   5.499   0.370   4.546  0.8207  0.7006  0.5817
   56MOL   H53435844   5.475   0.626   4.523 -1.8841 -0.4453  1.3315
   56MOL   H53535845   5.508   0.621   4.354  1.0059  0.3627  0.2053
   56MOL   H53635846   5.673   0.755   4.381 -1.2302 -0.3341  0.8611
   56MOL   H53735847   5.938   0.599   4.393  0.9878  0.5334 -1.5348
   56MOL   H53835848   5.913   0.758   4.465  0.7470 -1.2791  0.7040
   56MOL   H53935849   5.831   0.717   4.173  0.6410 -0.7839 -0.7369
   56MOL   H54035850   5.857   0.864   4.257 -2.2748 -0.4894 -0.9493
   56MOL   H54135851   6.099   0.801   4.286  1.3955 -0.6313 -0.5641
   56MOL   H54235852   6.055   0.848   4.124 -1.4580 -0.8678 -1.4947
   56MOL   H54335853   6.029   0.580   4.082  2.0213 -3.1549  0.0449
   56MOL   H54435854   6.097   0.574   4.224  0.8801 -0.3023 -1.4239
   56MOL   H54535855   6.288   0.734   4.112  0.5744  0.5291 -1.9806
   56MOL   C54635856   6.263   0.607   3.961 -0.1637  0.4413 -0.0236
   56MOL   O54735857   6.188   0.533   3.899  0.6968 -0.7390  0.7386
   56MOL   C54835858   6.407   0.636   3.912  0.1244 -0.1409 -0.2394
   56MOL   C54935859   6.502   0.512   3.913 -0.4845 -0.1810  0.5154
   56MOL   C55035860   6.532   0.471   4.056  0.1616  0.6187  0.3455
   56MOL   C55135861   6.614   0.341   4.065  0.4515 -0.0227  0.3704
   56MOL   C55235862   6.672   0.319   4.205 -0.2054  0.1230 -0.0462
   56MOL   O55335863   6.701   0.417   4.277  1.0772  0.1971 -0.2266
   56MOL   N55435864   6.699   0.191   4.223 -0.1204  0.5051  0.3109
   56MOL   C55535865   6.713   0.137   4.355  0.4920  0.0894  0.4082
   56MOL   C55635866   6.615   0.026   4.384 -0.1026  0.8485 -0.1864
   56MOL   C55735867   6.634   7.674   4.528 -0.1466 -0.1150 -0.3891
   56MOL   C55835868   6.529   7.574   4.577  0.7207  0.3258  0.5581
   56MOL   N55935869   6.552   7.537   4.721 -0.2191 -0.5044  0.0658
   56MOL   H56035870   6.386   0.678   3.814  0.0548  0.4486  0.0232
   56MOL   H56135871   6.455   0.706   3.981  2.0880 -1.0421 -0.6486
   56MOL   H56235872   6.465   0.434   3.847  1.5641 -0.8411  0.1186
   56MOL   H56335873   6.589   0.551   3.860 -0.8893 -1.5149 -1.1812
   56MOL   H56435874   6.455   0.442   4.127  0.4862 -0.6161  0.2161
   56MOL   H56535875   6.584   0.559   4.094  1.5124  0.9068 -2.0367
   56MOL   H56635876   6.700   0.330   3.998  0.5822 -1.4226  0.7416
   56MOL   H56735877   6.549   0.255   4.049 -0.4299  0.7705 -0.3630
   56MOL   H56835878   6.679   0.126   4.149  0.0387  2.5508 -1.5863
   56MOL   H56935879   6.712   0.212   4.435  3.0059  0.4934  0.1018
   56MOL   H57035880   6.813   0.094   4.350  0.0429 -1.3598  2.9886
   56MOL   H57135881   6.516   0.072   4.388  0.5037  2.0960  0.8524
   56MOL   H57235882   6.621   7.656   4.301 -0.9594  1.8600 -1.1346
   56MOL   H57335883   6.643   0.056   4.598 -2.7366  0.1963 -0.3759
   56MOL   H57435884   6.733   7.629   4.534  0.0306  0.3185 -0.1106
   56MOL   H57535885   6.528   7.483   4.517 -2.7409  1.1617 -0.7430
   56MOL   H57635886   6.432   7.621   4.563  2.1403  2.8079 -1.2377
   56MOL   H57735887   6.588   7.448   4.751 -1.1652 -0.0772  2.6024
   56MOL   C57835888   6.520   7.604   4.829 -0.4953 -0.3077 -0.4457
   56MOL   O57935889   6.481   0.018   4.825  0.1583 -0.9205  0.1520
   56MOL   C58035890   6.531   7.532   4.969 -0.8686  1.1076 -0.5060
   56MOL   C58135891   6.598   7.620   5.077  0.4048  0.3130 -0.4836
   56MOL   C58235892   6.735   7.678   5.045  0.1851 -0.3701  0.0099
   56MOL   C58335893   6.840   7.649   5.149  0.2790 -0.1183  0.5326
   56MOL   C58435894   6.978   0.001   5.120  0.0227 -0.3703  0.0374
   56MOL   O58535895   7.001   0.078   5.027 -0.0791 -0.4941 -0.1308
   56MOL   N58635896   7.079   7.653   5.198  0.4882  0.6472  0.2645
   56MOL   C58735897   7.219   7.683   5.188 -0.0965 -0.4021  0.2099
   56MOL   C58835898   7.285   7.619   5.063  0.3677 -0.7760  0.1656
   56MOL   C58935899   7.272   7.475   5.071  0.3914 -0.1222 -0.7192
   56MOL   C59035900   7.357   7.392   4.966  0.0938 -0.5587 -0.5039
   56MOL   N59135901   7.369   7.248   5.009 -0.1792 -0.5088 -0.6844
   56MOL   H59235902   6.436   7.496   5.007  0.1034  0.5115  1.4283
   56MOL   H59335903   6.588   7.440   4.958 -2.9508 -0.3351  0.4568
   56MOL   H59435904   6.538   0.008   5.089 -0.0376 -0.0928  0.3662
   56MOL   H59535905   6.596   7.566   5.172  2.1788 -2.0413 -1.7149
   56MOL   H59635906   6.720   0.083   5.023  0.2386  0.1399  2.2741
   56MOL   H59735907   6.774   7.636   4.953 -1.4178  0.4379 -1.0556
   56MOL   H59835908   6.845   7.541   5.160  1.5561  0.0783  2.0425
   56MOL   H59935909   6.817   0.001   5.241 -1.6309 -0.5817  0.3540
   56MOL   H60035910   7.055   7.590   5.273  1.4003  0.4747  0.4114
   56MOL   H60135911   7.284   7.654   5.271  2.5028  1.1122 -1.2643
   56MOL   H60235912   7.229   0.090   5.193 -0.5168 -0.3903  0.9106
   56MOL   H60335913   7.250   7.658   4.968  2.1059 -0.0123 -0.1917
   56MOL   H60435914   7.388   7.657   5.066 -0.1531  0.6955 -0.1020
   56MOL   H60535915   7.172   7.432   5.071  0.9324 -1.4414  0.4805
   56MOL   H60635916   7.318   7.438   5.163 -1.1623  1.4303  0.7065
   56MOL   H60735917   7.449   7.449   4.950 -0.1108  0.3297  1.4172
   56MOL   H60835918   7.311   7.402   4.867  2.3877  0.2028 -1.5314
   56MOL   H60935919   7.435   7.213   5.078  0.9679  2.3803 -0.2647
   56MOL   C61035920   7.338   7.147   4.928 -0.8040  0.0498  0.4723
   56MOL   O61135921   7.300   7.161   4.818  1.0229  0.1343  0.6636
   56MOL   C61235922   7.372   7.010   4.984 -0.5807  0.4126 -0.9305
   56MOL   C61335923   7.328   6.885   4.897 -0.1040 -0.3215 -1.0518
   56MOL   C61435924   7.434   6.850   4.798 -0.0379  0.3356  0.5184
   56MOL   C61535925   7.400   6.726   4.714  0.1894  1.5340  0.5166
   56MOL   C61635926   7.502   6.695   4.606  0.3907 -0.1397  0.5142
   56MOL   O61735927   7.622   6.711   4.629 -0.4960  0.4632 -0.2552
   56MOL   N61835928   7.450   6.653   4.490  0.7400 -0.5241 -0.1243
   56MOL   C61935929   7.513   6.601   4.375  0.8273  0.7925  0.4341
   56MOL   C62035930   7.448   6.641   4.240  0.8336 -0.5593 -0.0987
   56MOL   C62135931   7.536   6.580   4.123  0.0860  0.2704  0.9116
   56MOL   C62235932   7.501   6.635   3.994 -0.0152 -0.8316  0.1863
   56MOL   N62335933   7.373   6.575   3.963  0.3115  0.3104 -0.0757
   56MOL   H62435934   7.481   7.008   4.996 -0.7016  0.6625  0.2933
   56MOL   H62535935   7.329   7.012   5.084 -0.1443  2.3362 -0.7672
   56MOL   H62635936   7.304   6.805   4.966 -0.0465 -0.3443 -1.0576
   56MOL   H62735937   7.240   6.916   4.841 -0.6884 -2.1765 -1.1717
   56MOL   H62835938   7.519   6.825   4.862 -0.4857  1.0653  1.4141
   56MOL   H62935939   7.450   6.937   4.734  1.5152 -0.7671 -0.6420
   56MOL   H63035940   7.299   6.747   4.677  1.2117  1.0127 -2.7583
   56MOL   H63135941   7.400   6.636   4.776 -0.3982  2.3784  1.7541
   56MOL   H63235942   7.350   6.640   4.493  0.7685 -1.2214 -1.7352
   56MOL   H63335943   7.513   6.492   4.374 -0.6526  0.7694 -1.4681
   56MOL   H63435944   7.619   6.627   4.373  0.5786  1.8294  0.0293
   56MOL   H63535945   7.340   6.632   4.233  0.5305  2.4521 -0.1724
   56MOL   H63635946   7.478   6.746   4.249 -1.7294  0.1548  0.3495
   56MOL   H63735947   7.524   6.472   4.111 -2.2827  0.4255  1.6401
   56MOL   H63835948   7.641   6.599   4.141  0.6995 -0.6246 -1.4191
   56MOL   H63935949   7.573   6.618   3.914  0.8896  1.3932  0.4842
   56MOL   H64035950   7.480   6.741   4.007  0.2740 -0.5967 -1.2037
   56MOL   H64135951   7.319   6.638   3.905 -1.6472 -2.1904 -1.0428
   56MOL   H64235952   7.332   6.584   4.055  0.0672  0.1155 -0.1673
   57MOL     C135953   0.360   3.405   4.931 -0.2096 -0.6641 -0.0626
   57MOL     O235954   0.452   3.374   5.001 -0.4363 -0.3793  0.4075
   57MOL     C335955   0.359   3.358   4.790 -0.2245  0.2649  0.1011
   57MOL     C435956   0.401   3.476   4.693  0.0236  0.4624 -0.3802
   57MOL     C535957   0.414   3.440   4.547 -0.0590 -0.2415  0.1622
   57MOL     C635958   0.278   3.396   4.489  0.4993 -0.3798 -0.2609
   57MOL     C735959   0.259   3.240   4.482  0.1575 -0.6365  0.0372
   57MOL     O835960   0.351   3.163   4.512  0.5658  0.0065 -0.0185
   57MOL     N935961   0.141   3.186   4.442 -0.2474  0.1131 -0.0777
   57MOL    C1035962   0.124   3.043   4.439 -0.2963  0.0653  0.0764
   57MOL    C1135963   0.169   2.992   4.302 -0.0052 -0.2574  0.0253
   57MOL    C1235964   0.167   2.837   4.297  0.2070 -0.3280  0.7013
   57MOL    C1335965   0.196   2.776   4.160  0.6357 -0.0333  0.1776
   57MOL    N1435966   0.173   2.628   4.163 -0.1451  0.2221  0.2254
   57MOL    H1535967   0.428   3.274   4.782  1.0951  1.4106 -0.7011
   57MOL    H1635968   0.262   3.319   4.758 -0.0275 -0.5179  0.4324
   57MOL    H1735969   0.323   3.551   4.701 -0.3929 -0.0130  0.0632
   57MOL    H1835970   0.495   3.515   4.730 -1.3986  0.9933  2.8068
   57MOL    H1935971   0.494   3.368   4.537 -1.8793 -1.9316 -3.1011
   57MOL    H2035972   0.450   3.532   4.500 -1.2446 -0.6929 -1.6834
   57MOL    H2135973   0.272   3.424   4.384  0.2789  1.1164  0.1427
   57MOL    H2235974   0.197   3.448   4.539  0.5292 -0.7875  0.2151
   57MOL    H2335975   0.069   3.245   4.404 -1.4010 -0.7544  0.7078
   57MOL    H2435976   0.020   3.016   4.460 -0.4444  0.1559 -0.5435
   57MOL    H2535977   0.176   3.001   4.525 -1.0939 -4.8417 -1.6588
   57MOL    H2635978   0.105   3.023   4.219  0.2106  0.9385  0.3067
   57MOL    H2735979   0.266   3.035   4.278  0.0792 -0.4463  0.0234
   57MOL    H2835980   0.074   2.801   4.342  0.8987 -2.9414  0.1686
   57MOL    H2935981   0.240   2.800   4.369  0.8234 -1.0408 -0.2734
   57MOL    H3035982   0.295   2.809   4.129  1.0664 -0.0081  1.5472
   57MOL    H3135983   0.129   2.820   4.086  0.2362 -0.9135  0.0076
   57MOL    H3235984   0.108   2.587   4.228 -0.3849  0.3628  0.0718
   57MOL    H3335985   0.263   3.444   4.964  0.6403 -1.0877  3.0672
   57MOL    C3435986   0.247   2.544   4.091 -0.0668  0.1047 -0.3598
   57MOL    O3535987   0.335   2.580   4.012  0.6187  0.4844  0.3561
   57MOL    C3635988   0.211   2.400   4.095 -0.0370 -0.1049 -0.3669
   57MOL    C3735989   0.337   2.307   4.078  0.4551 -0.2188  0.0290
   57MOL    C3835990   0.308   2.162   4.127  0.2638 -0.1873  0.2095
   57MOL    C3935991   0.207   2.081   4.042  0.1530 -0.2125 -0.4271
   57MOL    C4035992   0.215   1.931   4.052 -0.0725 -0.0987 -0.3397
   57MOL    O4135993   0.231   1.880   4.164 -0.1608  0.1212  0.3052
   57MOL    N4235994   0.206   1.858   3.939 -0.2006 -0.4022  0.0785
   57MOL    C4335995   0.219   1.714   3.920  0.1502  0.0404  0.1204
   57MOL    C4435996   0.326   1.691   3.811  0.2935 -0.4150 -0.0626
   57MOL    C4535997   0.350   1.541   3.781  0.5484 -0.5066 -0.0644
   57MOL    C4635998   0.439   1.516   3.660 -0.4909 -0.2285  0.4964
   57MOL    N4735999   0.573   1.581   3.663 -0.2511  0.0987  0.2548
   57MOL    H4836000   0.164   2.386   4.192 -1.5686  0.0188 -1.0809
   57MOL    H4936001   0.135   2.383   4.019  1.2636  0.1957 -1.7544
   57MOL    H5036002   0.391   2.307   3.983  0.5953 -0.4158  0.1088
   57MOL    H5136003   0.410   2.346   4.149  0.4257  0.5497 -0.3610
   57MOL    H5236004   0.270   2.160   4.229  0.5475  0.4665  0.3277
   57MOL    H5336005   0.405   2.111   4.125  0.1653 -0.4264  1.1076
   57MOL    H5436006   0.203   2.121   3.941  0.1218  1.0301  0.0486
   57MOL    H5536007   0.107   2.107   4.077 -0.5435 -0.6263 -2.0691
   57MOL    H5636008   0.193   1.911   3.854 -0.5383 -3.0336 -1.5528
   57MOL    H5736009   0.126   1.669   3.884  0.6112 -0.4777 -0.4377
   57MOL    H5836010   0.239   1.664   4.015  0.0649  0.2684  0.2573
   57MOL    H5936011   0.306   1.749   3.721 -0.6563 -1.2998 -0.4275
   57MOL    H6036012   0.412   1.737   3.860  0.3520 -0.3030 -0.2679
   57MOL    H6136013   0.251   1.498   3.761  0.2971 -0.4703  1.0924
   57MOL    H6236014   0.382   1.484   3.867 -2.8957 -0.0217  1.6269
   57MOL    H6336015   0.375   1.535   3.575  1.1064  1.4418 -0.3783
   57MOL    H6436016   0.469   1.412   3.656  1.4012  0.2485  1.4424
   57MOL    H6536017   0.617   1.586   3.753  1.2507 -1.8384 -0.3312
   57MOL    C6636018   0.656   1.601   3.558  0.1249 -0.5539 -0.0369
   57MOL    O6736019   0.619   1.601   3.439 -0.2744  0.5365  0.6850
   57MOL    C6836020   0.795   1.644   3.588  0.1271 -0.0860 -0.2681
   57MOL    C6936021   0.903   1.539   3.549  0.3817 -0.2664  0.0809
   57MOL    C7036022   0.908   1.404   3.622  0.0321 -0.4460 -0.2293
   57MOL    C7136023   0.939   1.402   3.771  0.6025 -0.1889 -0.0183
   57MOL    C7236024   1.056   1.497   3.809 -0.2153  0.7381 -0.3176
   57MOL    O7336025   1.172   1.447   3.791  0.4730 -0.1124  0.0828
   57MOL    N7436026   1.032   1.606   3.873 -0.3150  0.6014 -0.4040
   57MOL    C7536027   1.122   1.706   3.931 -0.2190 -0.2021  1.1500
   57MOL    C7636028   1.076   1.853   3.924  0.4968 -0.5233  0.9712
   57MOL    C7736029   1.044   1.882   3.781 -0.5874  1.3023 -0.7327
   57MOL    C7836030   1.022   2.026   3.741  0.0825 -0.0070  0.1714
   57MOL    N7936031   0.960   2.026   3.617  0.0286  0.1766  1.1379
   57MOL    H8036032   0.818   1.739   3.540 -0.5759 -0.3833 -1.2071
   57MOL    H8136033   0.805   1.663   3.694 -1.7107 -0.4475 -0.0270
   57MOL    H8236034   0.900   1.520   3.441  2.0473  0.2818 -0.0733
   57MOL    H8336035   1.005   1.575   3.567  0.6886 -0.9670 -0.2328
   57MOL    H8436036   0.978   1.341   3.567  0.0942 -2.6074  2.1832
   57MOL    H8536037   0.814   1.350   3.605  0.2468 -1.0058  0.3316
   57MOL    H8636038   0.966   1.305   3.813 -2.5592 -1.1556 -0.0846
   57MOL    H8736039   0.847   1.425   3.823  0.1524 -1.7349 -0.0925
   57MOL    H8836040   0.935   1.628   3.893 -0.2297  0.3882  0.2723
   57MOL    H8936041   1.224   1.707   3.892 -0.8232  2.1761 -0.4881
   57MOL    H9036042   1.124   1.687   4.038 -1.9722  0.8952  1.3998
   57MOL    H9136043   0.983   1.868   3.978 -0.4223  2.9524 -1.4129
   57MOL    H9236044   1.161   1.912   3.956  0.1885  0.8722 -0.7311
   57MOL    H9336045   0.955   1.822   3.759 -1.9635  1.9678  2.6806
   57MOL    H9436046   1.119   1.838   3.715  1.1497  0.7983  1.4917
   57MOL    H9536047   1.118   2.077   3.736  1.3630 -2.5372 -2.4384
   57MOL    H9636048   0.959   2.080   3.812 -0.0620 -1.3665  1.0912
   57MOL    H9736049   0.860   2.039   3.608  0.3714  1.8576 -0.5874
   57MOL    C9836050   1.031   1.999   3.506 -0.1782  0.0990  0.2418
   57MOL    O9936051   1.157   1.987   3.498  0.0699 -0.3457  0.1653
   57MOL   C10036052   0.943   1.974   3.384  0.1738  0.3941 -0.8072
   57MOL   C10136053   1.014   1.879   3.283 -0.0434  0.3528  0.3781
   57MOL   C10236054   0.927   1.832   3.170  0.2727 -0.0983  0.8260
   57MOL   C10336055   0.793   1.751   3.209  0.1695 -0.2274 -0.2163
   57MOL   C10436056   0.694   1.722   3.091  0.3503 -0.1997  0.8062
   57MOL   O10536057   0.732   1.760   2.982  0.1027  0.1753  0.3977
   57MOL   N10636058   0.584   1.649   3.111 -0.0198 -0.4574  0.3544
   57MOL   C10736059   0.486   1.618   3.003  0.0813  0.2511  0.6753
   57MOL   C10836060   0.437   1.472   3.015 -0.3330  0.3231  1.0531
   57MOL   C10936061   0.417   1.431   3.161 -0.3720  0.3678  0.0286
   57MOL   C11036062   0.371   1.287   3.176 -1.4290  0.2714  0.0812
   57MOL   N11136063   0.346   1.249   3.314 -0.2639 -0.7501 -0.1493
   57MOL   H11236064   0.847   1.933   3.414 -1.2124  1.7442 -3.2824
   57MOL   H11336065   0.917   2.064   3.328 -0.4405 -0.1694 -1.4407
   57MOL   H11436066   1.099   1.930   3.239 -2.5732  4.2409 -0.3193
   57MOL   H11536067   1.062   1.790   3.324 -0.4924 -0.1012 -0.0636
   57MOL   H11636068   0.987   1.774   3.099 -1.5762 -3.5466  1.9508
   57MOL   H11736069   0.890   1.919   3.117  1.0398 -1.7631 -2.5598
   57MOL   H11836070   0.740   1.798   3.292 -2.4655  1.6887 -2.8653
   57MOL   H11936071   0.832   1.659   3.251 -0.9181 -0.9968 -0.8657
   57MOL   H12036072   0.570   1.628   3.209  4.9499  2.4580  1.8888
   57MOL   H12136073   0.538   1.631   2.908 -0.2065  0.0939  0.4927
   57MOL   H12236074   0.412   1.697   3.013 -0.2223 -0.0218  0.6264
   57MOL   H12336075   0.349   1.466   2.951 -0.1908  0.0080  0.8855
   57MOL   H12436076   0.511   1.403   2.972 -1.5543 -0.7881  0.6979
   57MOL   H12536077   0.342   1.495   3.208 -1.1735  1.3951 -2.5334
   57MOL   H12636078   0.508   1.442   3.220  0.2095  0.2322 -0.8327
   57MOL   H12736079   0.440   1.218   3.128 -1.5381  0.2439 -0.0360
   57MOL   H12836080   0.274   1.284   3.127 -1.3998 -0.6675  0.0745
   57MOL   H12936081   0.249   1.246   3.341 -0.0611  0.1532  0.6687
   57MOL   C13036082   0.435   1.206   3.397  0.1278  0.5037  0.5099
   57MOL   O13136083   0.557   1.206   3.369  0.3541  0.4218 -0.1168
   57MOL   C13236084   0.393   1.138   3.524  0.5915  0.7641 -0.3211
   57MOL   C13336085   0.514   1.065   3.605  0.5086 -0.4018 -0.0624
   57MOL   C13436086   0.604   1.158   3.683  0.1104 -0.1731 -0.0636
   57MOL   C13536087   0.717   1.083   3.762  0.9465  0.3891 -0.3970
   57MOL   C13636088   0.660   0.997   3.875  0.3140  0.2751 -0.2964
   57MOL   O13736089   0.574   1.042   3.949 -0.4866 -0.9357  0.4621
   57MOL   N13836090   0.706   0.875   3.885  0.2679  0.0539  0.3540
   57MOL   C13936091   0.669   0.783   3.993 -0.8290 -0.5746  0.6989
   57MOL   C14036092   0.785   0.792   4.097 -0.1671 -0.9148 -0.1396
   57MOL   C14136093   0.768   0.696   4.219  0.2490 -0.2757 -0.3827
   57MOL   C14236094   0.643   0.726   4.299 -0.0571  0.1804 -0.6270
   57MOL   N14336095   0.641   0.661   4.427 -0.1560  0.0860  0.1287
   57MOL   H14436096   0.338   1.202   3.594  1.5951  1.2477  0.0339
   57MOL   H14536097   0.320   1.063   3.494  0.6030 -1.0567  3.8053
   57MOL   H14636098   0.477   0.984   3.667  2.2993  0.5310  2.2910
   57MOL   H14736099   0.569   1.005   3.533  0.0460 -0.8045 -0.0836
   57MOL   H14836100   0.542   1.203   3.760 -2.1265 -0.4124 -1.6841
   57MOL   H14936101   0.628   1.254   3.638 -0.6709  0.7036  1.3678
   57MOL   H15036102   0.797   1.139   3.810  1.4051 -1.0321  0.5495
   57MOL   H15136103   0.770   1.017   3.693  2.1356  0.7737  0.1340
   57MOL   H15236104   0.772   0.845   3.815 -0.7499  0.6875 -0.9052
   57MOL   H15336105   0.676   0.681   3.955  0.2911 -0.3750  0.3544
   57MOL   H15436106   0.568   0.809   4.026 -1.0882  0.6115 -0.9278
   57MOL   H15536107   0.876   0.756   4.049  0.3622  0.0793  0.1189
   57MOL   H15636108   0.805   0.893   4.133 -4.3347  0.7378 -2.1899
   57MOL   H15736109   0.846   0.698   4.295  0.0767 -1.3643 -0.1708
   57MOL   H15836110   0.758   0.591   4.190  0.0672 -0.9053  1.8561
   57MOL   H15936111   0.553   0.690   4.249  0.1347 -0.0347 -0.8275
   57MOL   H16036112   0.622   0.832   4.309 -1.7628 -0.4285  2.8694
   57MOL   H16136113   0.671   0.728   4.496 -1.1721 -0.1161  0.7642
   57MOL   C16236114   0.619   0.530   4.455 -0.1136  0.4158 -0.1869
   57MOL   O16336115   0.594   0.437   4.371 -0.4265 -0.0811  0.2170
   57MOL   C16436116   0.606   0.505   4.603  0.5277 -0.0983  0.0219
   57MOL   C16536117   0.710   0.410   4.659 -0.6090 -0.1932 -0.6120
   57MOL   C16636118   0.857   0.436   4.635 -1.0069  0.4171  0.7444
   57MOL   C16736119   0.959   0.357   4.722  0.0266 -0.5125  0.0816
   57MOL   C16836120   0.931   0.208   4.706 -0.4668 -0.1796  0.2517
   57MOL   O16936121   0.902   0.145   4.807 -0.5438  0.7274  0.1170
   57MOL   N17036122   0.961   0.144   4.593  0.3784 -0.4826 -0.4995
   57MOL   C17136123   0.951   7.697   4.568 -0.1414  0.2625  0.6711
   57MOL   C17236124   0.844   7.665   4.457 -0.1080 -0.4939  0.1727
   57MOL   C17336125   0.907   7.578   4.347  0.4746  0.8111 -0.3468
   57MOL   C17436126   0.807   7.530   4.241  0.2173 -0.7723  1.0775
   57MOL   N17536127   0.877   7.456   4.141 -0.5574  1.0866  0.1989
   57MOL   H17636128   0.621   0.597   4.658  1.3947 -0.2708  0.0902
   57MOL   H17736129   0.507   0.471   4.632  0.4839 -0.5334 -0.6195
   57MOL   H17836130   0.696   0.416   4.767 -1.7485  0.5337 -0.7883
   57MOL   H17936131   0.669   0.313   4.632 -0.4103 -0.6912  0.8166
   57MOL   H18036132   0.868   0.540   4.665  1.4503  0.3409  0.2235
   57MOL   H18136133   0.891   0.413   4.535  1.9649 -1.0055  2.0249
   57MOL   H18236134   0.958   0.388   4.826  0.6176  1.5398 -0.4999
   57MOL   H18336135   1.060   0.372   4.683  0.1172 -0.8625  0.1770
   57MOL   H18436136   0.992   0.205   4.519 -0.3750  1.1176  0.4865
   57MOL   H18536137   0.920   7.650   4.662 -0.9001  2.8260  1.7674
   57MOL   H18636138   1.049   7.653   4.551  0.6656  2.5975 -0.9902
   57MOL   H18736139   0.755   7.615   4.494  0.6875 -3.1404 -1.3181
   57MOL   H18836140   0.805   0.059   4.423 -1.0009 -0.8885  0.0885
   57MOL   H18936141   0.957   7.489   4.387  0.2063  1.0846  0.5991
   57MOL   H19036142   0.982   7.640   4.298  1.8694 -0.2968  0.3075
   57MOL   H19136143   0.773   7.618   4.187  1.2799  0.4786  2.3980
   57MOL   H19236144   0.728   7.471   4.286 -1.0042 -1.0631 -1.3823
   57MOL   H19336145   0.944   7.508   4.085  0.0046  1.1217  0.8965
   57MOL   C19436146   0.862   7.329   4.103 -0.1537 -0.3561  0.1085
   57MOL   O19536147   0.797   7.243   4.166 -0.5119  0.0051  0.4434
   57MOL   C19636148   0.937   7.287   3.974 -0.4283  0.7759 -0.2390
   57MOL   C19736149   0.845   7.186   3.891  0.2252 -0.3690  0.5334
   57MOL   C19836150   0.927   7.098   3.789 -0.2421  0.5174  0.4354
   57MOL   C19936151   1.025   6.995   3.842 -0.0362  0.2259 -0.4440
   57MOL   C20036152   0.966   6.879   3.917  0.5538  0.8715  0.5192
   57MOL   O20136153   0.948   6.766   3.858  0.0635 -0.4068 -0.0377
   57MOL   N20236154   0.932   6.904   4.045 -0.6712 -0.2583 -0.1872
   57MOL   C20336155   0.898   6.800   4.140  0.1038 -0.6683 -0.0438
   57MOL   C20436156   0.894   6.855   4.291  0.1175  0.3041 -0.0805
   57MOL   C20536157   1.012   6.932   4.343 -1.0126  0.1336 -0.2651
   57MOL   C20636158   1.025   6.917   4.494  0.1451 -0.1314 -0.1951
   57MOL   N20736159   1.142   6.990   4.546 -0.5234 -0.5191 -1.0285
   57MOL   H20836160   0.968   7.372   3.913  0.2315  0.3481 -0.4988
   57MOL   H20936161   1.023   7.247   4.027 -1.0620 -0.8746 -0.4223
   57MOL   H21036162   0.779   7.125   3.952 -2.5676  2.3735  0.4387
   57MOL   H21136163   0.768   7.237   3.833  0.9761  0.5715  0.3493
   57MOL   H21236164   0.987   7.172   3.736  0.2665 -1.4154 -1.8196
   57MOL   H21336165   0.853   7.045   3.728 -2.0736  3.6562 -0.1994
   57MOL   H21436166   1.086   7.047   3.916 -0.1215  0.4583 -0.5359
   57MOL   H21536167   1.087   6.947   3.766  0.1826 -1.4297  0.7659
   57MOL   H21636168   0.956   6.998   4.073 -0.8613  0.4571 -2.3340
   57MOL   H21736169   0.971   6.719   4.146  2.8613  1.6042 -1.4147
   57MOL   H21836170   0.795   6.770   4.122 -0.1864 -0.2995  1.0004
   57MOL   H21936171   0.810   6.921   4.310 -0.0018 -0.3368  1.7103
   57MOL   H22036172   0.868   6.771   4.355  2.1624 -1.0786 -0.9956
   57MOL   H22136173   1.017   7.035   4.307 -1.3916  0.8196  1.6221
   57MOL   H22236174   1.104   6.892   4.300 -0.5043  1.6085 -0.6029
   57MOL   H22336175   1.017   6.814   4.527  1.0626 -1.0121 -2.6329
   57MOL   H22436176   0.935   6.965   4.535  0.1413  0.7821 -1.2278
   57MOL   H22536177   1.186   7.052   4.479 -0.6280 -0.1606 -0.7672
   57MOL   C22636178   1.186   6.978   4.674  0.2790 -0.6658 -0.4671
   57MOL   O22736179   1.123   6.907   4.751 -0.1435  0.1406 -0.2716
   57MOL   C22836180   1.311   7.053   4.719  0.1223  0.7393 -0.1988
   57MOL   C22936181   1.314   7.061   4.872  0.5619  0.3078  0.1630
   57MOL   C23036182   1.452   7.080   4.930  0.1695 -0.4466  0.4392
   57MOL   C23136183   1.520   7.212   4.897 -0.3443 -0.5848 -0.3612
   57MOL   C23236184   1.668   7.225   4.942  0.8513  0.8590  0.0313
   57MOL   O23336185   1.706   7.172   5.050  0.3509  0.6893  0.1272
   57MOL   N23436186   1.746   7.292   4.863 -0.1083 -0.1132 -0.0189
   57MOL   C23536187   1.888   7.311   4.878 -0.5997 -0.1558  0.1042
   57MOL   C23636188   1.925   7.421   4.979 -0.0866 -0.0870  0.0172
   57MOL   C23736189   2.070   7.449   5.018 -0.2124 -0.5813 -0.7881
   57MOL   C23836190   2.112   7.572   5.111  0.4457 -0.5148 -0.1902
   57MOL   N23936191   2.089   7.700   5.054 -0.1721 -0.3503  0.5566
   57MOL   H24036192   1.396   6.993   4.684 -1.4213 -3.0508  2.2754
   57MOL   H24136193   1.304   7.154   4.678  2.3190  0.1771 -2.0837
   57MOL   H24236194   1.238   7.130   4.908  0.4513  0.1859  0.1626
   57MOL   H24336195   1.284   6.966   4.916 -1.1992  0.9752  0.4161
   57MOL   H24436196   1.519   6.997   4.907 -0.9852 -1.3778  0.3628
   57MOL   H24536197   1.440   7.079   5.039 -1.5455  0.0914  0.2800
   57MOL   H24636198   1.464   7.290   4.949  0.9069  0.4739 -0.5533
   57MOL   H24736199   1.507   7.238   4.792  1.4783  0.5633 -0.3401
   57MOL   H24836200   1.698   7.340   4.788  1.7518  0.6782 -0.7442
   57MOL   H24936201   1.932   7.339   4.782  0.8261 -0.9372  0.5024
   57MOL   H25036202   1.936   7.218   4.911 -3.1207 -1.8390 -0.8933
   57MOL   H25136203   1.879   7.516   4.951 -0.3950  0.2815  1.7618
   57MOL   H25236204   1.880   7.390   5.073 -1.6252  3.7771  0.6609
   57MOL   H25336205   2.122   7.448   4.922  0.5349 -2.2406 -0.3775
   57MOL   H25436206   2.123   7.364   5.061 -1.1890 -0.8105 -0.0434
   57MOL   H25536207   2.217   7.560   5.139  0.3872  1.2864  0.8822
   57MOL   H25636208   2.042   7.558   5.193  1.4734 -0.9801  0.6135
   57MOL   H25736209   2.003   0.050   5.069 -0.2598 -0.3607  0.1006
   57MOL   C25836210   2.191   0.071   4.999  0.5182 -0.2356  0.2696
   57MOL   O25936211   2.298   0.023   4.978  0.0711 -0.0991  0.1271
   57MOL   C26036212   2.149   0.208   4.940 -1.1948 -0.1516 -0.1944
   57MOL   C26136213   2.224   0.322   5.001  0.5680  0.7730  0.2442
   57MOL   C26236214   2.148   0.374   5.121 -0.0304 -0.2858  0.3942
   57MOL   C26336215   2.236   0.414   5.235  0.9819 -0.5313 -0.5936
   57MOL   C26436216   2.287   0.562   5.231 -0.0787 -0.2092 -0.6321
   57MOL   O26536217   2.207   0.653   5.225 -0.0307 -0.4027 -0.6690
   57MOL   N26636218   2.418   0.579   5.250 -0.3936 -0.0631 -0.1430
   57MOL   C26736219   2.537   0.495   5.263 -0.4975  0.1680 -0.7209
   57MOL   C26836220   2.657   0.565   5.193 -0.0966 -0.9491 -0.8012
   57MOL   C26936221   2.789   0.487   5.211  0.1833 -0.3012  0.5217
   57MOL   C27036222   2.791   0.353   5.136 -0.3115  0.0044 -0.1709
   57MOL   N27136223   2.791   0.373   4.992 -0.2602 -0.0633 -0.7785
   57MOL   H27236224   2.170   0.199   4.833  0.7500  0.5854  0.0951
   57MOL   H27336225   2.042   0.224   4.945 -1.1409  0.0561  0.2924
   57MOL   H27436226   2.322   0.281   5.024  0.0569 -0.9737 -0.6135
   57MOL   H27536227   2.248   0.399   4.928  0.6784 -0.2891 -0.8400
   57MOL   H27636228   2.084   0.294   5.157  0.3665 -0.4777  0.6629
   57MOL   H27736229   2.061   0.438   5.102  0.0121 -0.3570 -0.0510
   57MOL   H27836230   2.326   0.355   5.250  0.0152 -1.6076  1.1670
   57MOL   H27936231   2.173   0.399   5.323  0.2402 -0.3836 -1.0972
   57MOL   H28036232   2.423   0.677   5.272 -1.3390 -0.0558  0.0937
   57MOL   H28136233   2.520   0.393   5.228  0.7488 -0.0119 -0.8003
   57MOL   H28236234   2.552   0.473   5.368 -1.1028  2.0813 -0.2074
   57MOL   H28336235   2.636   0.592   5.090 -0.9358  0.1732 -0.3476
   57MOL   H28436236   2.670   0.656   5.253  0.1347 -0.4670 -1.5766
   57MOL   H28536237   2.814   0.470   5.316  0.3339  2.4252  0.9662
   57MOL   H28636238   2.872   0.554   5.189 -0.7053  0.2163 -1.3733
   57MOL   H28736239   2.705   0.295   5.170 -0.4590  0.4970  0.2886
   57MOL   H28836240   2.887   0.311   5.167 -1.1020  0.0758  2.4893
   57MOL   H28936241   2.779   0.462   4.947 -2.1309  0.3048  0.3965
   57MOL   C29036242   2.788   0.260   4.911  0.0283 -0.0206  0.5753
   57MOL   O29136243   2.788   0.147   4.953 -0.5117  0.3171  0.9439
   57MOL   C29236244   2.792   0.283   4.758 -0.0309 -0.0373 -0.2148
   57MOL   C29336245   2.660   0.263   4.688  0.4265  0.5951  0.1284
   57MOL   C29436246   2.549   0.365   4.700 -0.2246  0.1256  0.8029
   57MOL   C29536247   2.428   0.304   4.619 -0.3629 -0.1518 -0.7442
   57MOL   C29636248   2.321   0.402   4.568  0.0358 -0.8729  0.1912
   57MOL   O29736249   2.328   0.523   4.588 -0.2378  0.2828 -0.1831
   57MOL   N29836250   2.219   0.341   4.513 -0.0067 -0.0017 -0.6209
   57MOL   C29936251   2.097   0.405   4.473 -0.0245 -0.0640 -0.1958
   57MOL   C30036252   1.995   0.410   4.583 -0.3359  0.3464 -0.0705
   57MOL   C30136253   1.853   0.447   4.526  0.8269  0.2010  0.6634
   57MOL   C30236254   1.796   0.321   4.458 -0.7590  0.0301  0.4156
   57MOL   N30336255   1.669   0.341   4.396  0.0018 -0.5121  0.2328
   57MOL   H30436256   2.818   0.385   4.729  1.1865 -0.8142 -1.8277
   57MOL   H30536257   2.874   0.221   4.725  1.5764  0.9687  1.7545
   57MOL   H30636258   2.680   0.244   4.583  0.0330  1.1761 -0.0489
   57MOL   H30736259   2.616   0.172   4.729  0.5220  0.5236  0.0716
   57MOL   H30836260   2.561   0.470   4.676 -0.5571 -0.5861 -2.8040
   57MOL   H30936261   2.518   0.359   4.804  0.6099 -1.9371  0.9635
   57MOL   H31036262   2.389   0.215   4.667 -0.8214  0.3530 -0.1761
   57MOL   H31136263   2.469   0.269   4.524  3.0796  0.7746  0.3558
   57MOL   H31236264   2.215   0.240   4.508  0.5801 -0.0318 -0.5498
   57MOL   H31336265   2.067   0.333   4.396 -1.3110 -0.0248  0.2576
   57MOL   H31436266   2.117   0.502   4.428  0.0631  0.3812  0.7876
   57MOL   H31536267   1.985   0.316   4.637  0.0466 -0.2873 -1.1021
   57MOL   H31636268   2.028   0.491   4.648 -0.5639  2.3136 -2.3222
   57MOL   H31736269   1.885   0.525   4.456  1.9488 -0.1062  0.8269
   57MOL   H31836270   1.781   0.488   4.596  0.5886 -1.3254  1.3409
   57MOL   H31936271   1.790   0.249   4.540 -0.9178  0.3244  0.6638
   57MOL   H32036272   1.848   0.286   4.369  0.8583 -0.9159  1.7095
   57MOL   H32136273   1.672   0.396   4.311 -0.7627 -0.1875  0.4194
   57MOL   C32236274   1.554   0.292   4.439  0.5827  0.2270 -0.1388
   57MOL   O32336275   1.541   0.230   4.548  0.0631  0.5682 -0.1412
   57MOL   C32436276   1.437   0.314   4.349 -0.1542  0.8284 -0.0591
   57MOL   C32536277   1.423   0.176   4.268  0.1498  0.1811 -1.0894
   57MOL   C32636278   1.304   0.171   4.170 -0.2535 -0.1439 -0.7088
   57MOL   C32736279   1.178   0.115   4.237 -0.7652 -0.4136 -0.3804
   57MOL   C32836280   1.069   0.225   4.266  0.0495  0.5817 -0.6470
   57MOL   O32936281   1.077   0.294   4.370  0.6849  0.4121  0.7151
   57MOL   N33036282   0.970   0.230   4.180  0.4780  0.1831  0.1872
   57MOL   C33136283   0.846   0.309   4.183  0.2422 -0.1354  0.4175
   57MOL   C33236284   0.793   0.337   4.042 -0.2147  0.5722  0.3574
   57MOL   C33336285   0.892   0.409   3.950 -0.1851 -0.0123 -0.2153
   57MOL   C33436286   0.871   0.403   3.797 -0.1346 -0.0736 -0.3234
   57MOL   N33536287   0.726   0.424   3.766  0.2292  0.1546  0.6176
   57MOL   H33636288   1.349   0.335   4.410 -1.0526  3.1541 -2.0626
   57MOL   H33736289   1.454   0.396   4.278  0.2815 -1.8345 -3.1449
   57MOL   H33836290   1.514   0.163   4.209  0.9065 -0.3499  0.1756
   57MOL   H33936291   1.412   0.091   4.336  2.0375  0.3761 -0.5183
   57MOL   H34036292   1.326   0.110   4.082 -1.2942  1.1562 -1.8875
   57MOL   H34136293   1.285   0.270   4.129 -1.1356  0.0374  0.1325
   57MOL   H34236294   1.187   0.073   4.336  0.3149  0.2485 -0.1845
   57MOL   H34336295   1.130   0.038   4.176 -0.1112 -1.3618  0.3029
   57MOL   H34436296   0.979   0.156   4.111  2.2330  2.4308 -2.0884
   57MOL   H34536297   0.872   0.401   4.236  0.9751 -1.0159  1.6105
   57MOL   H34636298   0.765   0.257   4.234 -0.9829  1.2799 -0.0475
   57MOL   H34736299   0.770   0.237   4.007  2.1346  0.8618 -2.1698
   57MOL   H34836300   0.703   0.398   4.046  0.0188  0.8712  1.1502
   57MOL   H34936301   0.994   0.380   3.976 -0.0857  0.9826  0.5674
   57MOL   H35036302   0.881   0.515   3.976 -2.9375 -0.1719 -0.6086
   57MOL   H35136303   0.907   0.306   3.763  0.9022  0.6456 -1.3043
   57MOL   H35236304   0.931   0.478   3.747  0.3421  0.5957  1.2120
   57MOL   H35336305   0.663   0.345   3.777  2.2792 -1.8739 -1.5678
   57MOL   C35436306   0.677   0.533   3.720  0.0349 -0.6853  0.4755
   57MOL   O35536307   0.744   0.636   3.699 -0.3048 -0.1868  0.7705
   57MOL   C35636308   0.529   0.523   3.681 -0.3450 -0.8433  0.6849
   57MOL   C35736309   0.440   0.648   3.707 -0.6776 -0.1786  0.3619
   57MOL   C35836310   0.287   0.625   3.697 -0.1574  0.0407  1.0948
   57MOL   C35936311   0.207   0.732   3.775  0.9585 -0.5165 -0.1439
   57MOL   C36036312   0.090   0.783   3.691  0.4929  0.6830 -0.7365
   57MOL   O36136313   0.080   0.899   3.643 -0.8377 -0.3443  0.1429
   57MOL   N36236314   7.689   0.699   3.676 -0.9393  0.4815  0.5786
   57MOL   C36336315   7.580   0.707   3.581 -0.0561 -0.5011  0.0066
   57MOL   C36436316   7.622   0.693   3.434 -0.0796  0.5570  0.8026
   57MOL   C36536317   7.504   0.658   3.347  0.7251 -0.6210 -1.0447
   57MOL   C36636318   7.542   0.613   3.204 -0.4429  0.2697  0.1652
   57MOL   N36736319   7.601   0.476   3.208  0.4347 -0.1596 -0.1173
   57MOL   H36836320   0.539   0.497   3.575  1.7377  0.2648  0.5784
   57MOL   H36936321   0.477   0.437   3.722  1.0275 -1.9113  0.2303
   57MOL   H37036322   0.455   0.672   3.812  0.8997  0.2052  0.0650
   57MOL   H37136323   0.472   0.734   3.648 -1.2404  0.2996  0.7447
   57MOL   H37236324   0.262   0.524   3.729 -1.6882  0.0541  0.0242
   57MOL   H37336325   0.257   0.611   3.593  1.3288 -0.7221  0.7496
   57MOL   H37436326   0.267   0.823   3.777  0.3526 -0.1351  0.6745
   57MOL   H37536327   0.176   0.701   3.875 -0.1176  1.3999  0.1216
   57MOL   H37636328   7.697   0.617   3.733 -2.0444  0.7167  1.0669
   57MOL   H37736329   7.521   0.796   3.603  0.1503 -0.4532  0.3661
   57MOL   H37836330   7.517   0.630   3.626  2.1289 -1.2763  1.8436
   57MOL   H37936331   7.657   0.789   3.397 -1.9541  1.2251  0.6734
   57MOL   H38036332   7.697   0.614   3.430 -0.5061  0.1246  1.2297
   57MOL   H38136333   7.451   0.751   3.328  0.8158 -0.3429  0.0490
   57MOL   H38236334   7.433   0.591   3.396  2.0212 -1.1212  0.2074
   57MOL   H38336335   7.618   0.679   3.161  1.1622 -1.4441  0.3335
   57MOL   H38436336   7.452   0.628   3.145 -0.2797 -1.5704 -0.5953
   57MOL   H38536337   7.701   0.473   3.226  0.3616  1.2303  0.5890
   57MOL   C38636338   7.529   0.369   3.189  0.1072 -0.4435  0.0717
   57MOL   O38736339   7.410   0.374   3.187 -0.2516  0.3984 -0.1883
   57MOL   C38836340   7.603   0.235   3.188  0.6344 -0.2059 -0.1992
   57MOL   C38936341   7.563   0.147   3.314  0.0791  0.4795 -0.1965
   57MOL   C39036342   7.611   0.000   3.296 -0.1904  0.4984 -0.0713
   57MOL   C39136343   0.064   7.663   3.317 -0.1523 -0.6147 -0.1459
   57MOL   C39236344   0.113   7.655   3.460 -0.0269 -0.5025 -0.3884
   57MOL   O39336345   0.172   0.046   3.510 -0.3317  0.2803 -0.9522
   57MOL   N39436346   0.087   7.541   3.530 -0.1961 -0.1953 -0.1674
   57MOL   C39536347   0.131   7.511   3.666  0.0251 -0.6969  0.0166
   57MOL   C39636348   0.073   7.376   3.723 -0.0532 -0.6805  0.6474
   57MOL   C39736349   7.627   7.366   3.749 -0.7914  0.1071 -0.2484
   57MOL   C39836350   7.578   7.227   3.804  0.1360  0.1084  0.2497
   57MOL   N39936351   7.628   7.223   3.938  0.4545 -0.0093 -0.0842
   57MOL   H40036352   7.574   0.186   3.095 -0.4865 -1.3875  0.7510
   57MOL   H40136353   0.010   0.246   3.180  1.0797 -1.6792  2.9549
   57MOL   H40236354   7.606   0.183   3.408  2.1115 -0.3569 -0.7665
   57MOL   H40336355   7.456   0.153   3.331  0.2580  0.2346  1.0523
   57MOL   H40436356   7.574   7.653   3.206  1.8236  0.6667 -1.0220
   57MOL   H40536357   7.562   7.638   3.370 -3.1780  1.4322 -1.1728
   57MOL   H40636358   0.120   0.039   3.264 -0.5461  0.4399  0.9306
   57MOL   H40736359   0.096   7.576   3.260  3.7892  0.8157 -0.3168
   57MOL   H40836360   0.035   7.468   3.484  0.2999 -1.0491  0.6283
   57MOL   H40936361   0.104   7.596   3.729 -1.1415 -1.5364  0.6657
   57MOL   H41036362   0.240   7.507   3.671  0.0518  0.2028  0.2653
   57MOL   H41136363   0.110   7.293   3.662  1.6553 -0.2452  1.0708
   57MOL   H41236364   0.119   7.369   3.822  0.0934  0.2802  0.6443
   57MOL   H41336365   7.569   7.383   3.658 -1.4889 -3.0291 -0.4565
   57MOL   H41436366   7.594   7.442   3.819 -0.3602  0.7981 -0.7907
   57MOL   H41536367   7.612   7.146   3.739 -1.7157  0.6593 -1.4764
   57MOL   H41636368   7.469   7.221   3.802  0.2235 -2.9892  1.6287
   57MOL   H41736369   7.637   7.313   3.983  0.9432  0.5128 -1.2001
   57MOL   C41836370   7.656   7.117   4.018  0.5717 -0.7495 -0.9099
   57MOL   O41936371   7.633   7.002   3.989  0.0403 -0.1162 -0.4890
   57MOL   C42036372   7.700   7.152   4.160 -0.2801 -0.4392 -0.5751
   57MOL   C42136373   7.688   7.040   4.266 -0.6928 -0.1329  0.3384
   57MOL   C42236374   0.108   6.956   4.255 -0.0032 -0.4575  0.0212
   57MOL   C42336375   0.116   6.869   4.376  0.1586  0.0115  0.7095
   57MOL   C42436376   0.188   6.925   4.504 -0.1228  0.5090 -0.4894
   57MOL   O42536377   0.301   6.964   4.499 -0.8765  0.2942  0.4776
   57MOL   N42636378   0.117   6.924   4.615  0.5604  0.3709 -0.4858
   57MOL   C42736379   0.158   6.976   4.748  0.6606  0.0756  1.0185
   57MOL   C42836380   0.067   7.095   4.769  0.0912  0.3180  0.9920
   57MOL   C42936381   0.100   7.151   4.906 -0.1105  0.0781  0.2978
   57MOL   C43036382   0.044   7.292   4.933  0.9236  1.1461  0.6482
   57MOL   N43136383   0.075   7.328   5.075  0.4603  0.2529 -0.4770
   57MOL   H43236384   0.102   7.183   4.143 -0.4020 -0.1505 -0.7890
   57MOL   H43336385   7.631   7.229   4.196  0.5703 -0.9094  2.2090
   57MOL   H43436386   7.674   7.094   4.359 -1.7612 -0.5538  0.4214
   57MOL   H43536387   7.603   6.974   4.250 -0.6899  0.0365 -0.3757
   57MOL   H43636388   0.191   7.026   4.244 -3.0627  3.8103  2.4450
   57MOL   H43736389   0.099   6.890   4.168 -2.7942  2.5767 -2.1302
   57MOL   H43836390   0.179   6.783   4.350  0.3919  0.6554 -0.9252
   57MOL   H43936391   0.024   6.820   4.409 -0.5325  0.6047 -0.2957
   57MOL   H44036392   0.034   6.867   4.604  1.2010 -0.4441 -1.1964
   57MOL   H44136393   0.264   7.000   4.751  0.3449  1.4524  1.2498
   57MOL   H44236394   0.137   6.898   4.821  0.9910  0.3021  1.3531
   57MOL   H44336395   0.084   7.157   4.681 -0.6991 -1.2684 -0.3149
   57MOL   H44436396   7.665   7.066   4.750  0.8984 -1.4904 -0.8222
   57MOL   H44536397   0.208   7.150   4.919 -0.3943 -1.3040  3.0114
   57MOL   H44636398   0.056   7.080   4.976  2.4681 -0.2528  1.6522
   57MOL   H44736399   7.638   7.296   4.918  1.3815  1.2619 -2.9352
   57MOL   H44836400   0.091   7.371   4.875  2.1811 -0.5324 -0.6827
   57MOL   H44936401   0.143   7.401   5.095  0.4404 -0.1377  1.0688
   57MOL   C45036402   7.701   7.281   5.183 -0.4447 -0.3356  0.8799
   57MOL   O45136403   7.603   7.214   5.153 -0.0793 -0.1266  0.4794
   57MOL   C45236404   0.033   7.336   5.321  0.1178  0.0807  0.6238
   57MOL   C45336405   0.011   7.223   5.439  0.7614  0.1916  0.2375
   57MOL   C45436406   0.121   7.119   5.430 -0.7121  0.4199  0.0317
   57MOL   C45536407   0.116   7.026   5.557 -0.0286  0.3045  0.1909
   57MOL   C45636408   0.187   7.070   5.684 -0.9750  0.0352 -0.0427
   57MOL   O45736409   0.304   7.114   5.683 -0.2185  0.3603 -0.5944
   57MOL   N45836410   0.124   7.057   5.800 -0.1554 -0.1847  0.5754
   57MOL   C45936411   0.165   7.132   5.924 -0.8123  0.3675  0.2555
   57MOL   C46036412   0.095   7.066   6.047  0.2093 -0.2510  0.7413
   57MOL   C46136413   0.127   7.135   6.176  0.0427 -0.0089  0.0181
   57MOL   C46236414   0.069   7.074   6.305 -0.0874 -0.2604  0.3068
   57MOL   N46336415   7.628   7.041   6.308 -0.1687 -0.2898 -0.0466
   57MOL   H46436416   0.140   7.358   5.325  0.0473  0.6289 -0.3790
   57MOL   H46536417   7.673   7.424   5.340  1.4194  1.1470  0.0106
   57MOL   H46636418   7.697   7.256   5.542 -1.9392  1.0985 -0.4223
   57MOL   H46736419   7.614   7.183   5.414  1.2983 -1.1087  0.1856
   57MOL   H46836420   0.215   7.174   5.440 -0.8021  0.9725 -1.9586
   57MOL   H46936421   0.125   7.062   5.338 -0.2138  0.4769  0.0149
   57MOL   H47036422   0.156   6.930   5.523  1.0443 -0.2975  3.0125
   57MOL   H47136423   0.012   6.998   5.575 -0.5838  0.2911 -2.8045
   57MOL   H47236424   0.027   7.030   5.794  0.4392 -2.3176  0.3252
   57MOL   H47336425   0.149   7.239   5.913 -0.4824  0.6141  1.9372
   57MOL   H47436426   0.271   7.112   5.943 -1.1831 -2.1461 -0.1368
   57MOL   H47536427   7.691   7.067   6.021  0.7713  0.9141 -1.7085
   57MOL   H47636428   0.142   6.968   6.054  0.1639 -0.5134 -2.0259
   57MOL   H47736429   0.111   7.242   6.170  1.6777  0.2809  0.5374
   57MOL   H47836430   0.235   7.120   6.183 -0.2243 -1.0734  2.4772
   57MOL   H47936431   0.093   7.144   6.385  0.1969  1.7388 -1.4615
   57MOL   H48036432   0.123   6.982   6.327 -0.6305 -0.9019 -0.9935
   57MOL   H48136433   7.609   6.948   6.274  2.4064 -0.2174 -1.8560
   57MOL   C48236434   7.535   7.108   6.386  0.3518  0.1673 -0.0372
   57MOL   O48336435   7.565   7.217   6.437 -0.4417  0.5341 -0.7141
   57MOL   C48436436   7.396   7.045   6.409 -0.0452 -0.5663  0.2483
   57MOL   C48536437   7.282   7.144   6.387 -0.0472  0.6537  0.2644
   57MOL   C48636438   7.269   7.194   6.242  0.5785  0.4006  0.6626
   57MOL   C48736439   7.162   7.303   6.232  0.3333  0.1714 -0.0038
   57MOL   C48836440   7.162   7.381   6.098  0.1100 -0.0370  0.3265
   57MOL   O48936441   7.247   7.356   6.018 -0.6603 -0.3565  0.6130
   57MOL   N49036442   7.066   7.475   6.084 -0.6600 -0.4210 -0.1731
   57MOL   C49136443   7.045   7.563   5.974  0.4842 -0.3119 -0.8600
   57MOL   C49236444   7.155   7.666   5.949  0.0698 -1.0014 -0.2209
   57MOL   C49336445   7.132   0.071   5.842 -0.0025  0.1490  0.4014
   57MOL   C49436446   7.029   0.183   5.880  0.5009 -0.8225 -0.0877
   57MOL   N49536447   6.975   0.249   5.760 -0.1599  0.1308  0.5205
   57MOL   H49636448   7.371   6.968   6.336 -1.7387 -0.1378  0.3529
   57MOL   H49736449   7.393   7.000   6.508  0.6095  0.2884  0.6614
   57MOL   H49836450   7.181   7.118   6.421  0.2791  1.0137  1.5087
   57MOL   H49936451   7.307   7.228   6.451  2.6852 -1.9737  2.7594
   57MOL   H50036452   7.252   7.106   6.179  1.7042  0.0903  0.7693
   57MOL   H50136453   7.361   7.240   6.205  1.5484 -0.5441  1.8440
   57MOL   H50236454   7.180   7.371   6.315 -1.9147  2.2836 -1.1730
   57MOL   H50336455   7.063   7.263   6.253  0.1145  0.1607 -1.0531
   57MOL   H50436456   6.989   7.469   6.148 -0.4164  0.3904  0.2055
   57MOL   H50536457   6.953   7.618   5.991  1.0048  0.2120  0.2711
   57MOL   H50636458   7.041   7.493   5.890  0.1057  1.2086 -2.1336
   57MOL   H50736459   7.167   0.032   6.034 -3.9474 -0.6568  0.1706
   57MOL   H50836460   7.247   7.607   5.938  1.1494  0.3705  1.1948
   57MOL   H50936461   7.107   0.023   5.748  3.8803 -2.3304  0.5191
   57MOL   H51036462   7.219   0.130   5.812  0.3072 -0.3696  0.2882
   57MOL   H51136463   7.074   0.247   5.956 -0.1716  2.5310 -2.4124
   57MOL   H51236464   6.940   0.148   5.933 -1.1454  1.8279 -1.0224
   57MOL   H51336465   7.023   0.334   5.734  2.9915 -1.1425  1.8984
   57MOL   C51436466   6.883   0.200   5.669  0.2544 -0.2238  0.5378
   57MOL   O51536467   6.823   0.093   5.684 -0.1635 -0.4670  0.3853
   57MOL   C51636468   6.852   0.291   5.552 -0.2901 -0.9205  0.3154
   57MOL   C51736469   6.740   0.243   5.462 -0.2861  0.3773 -0.2631
   57MOL   C51836470   6.745   0.309   5.329  0.5863 -0.1036  0.1898
   57MOL   C51936471   6.618   0.286   5.236 -0.1874 -0.1656 -0.0198
   57MOL   C52036472   6.618   0.372   5.108 -0.3440  0.0769  0.1775
   57MOL   O52136473   6.634   0.497   5.110 -0.0775 -0.4085 -0.3592
   57MOL   N52236474   6.601   0.303   4.992  0.4015  0.1271 -0.1120
   57MOL   C52336475   6.615   0.362   4.862 -0.2112 -0.0259 -0.0598
   57MOL   C52436476   6.758   0.333   4.811 -0.3280 -0.5252  0.0406
   57MOL   C52536477   6.794   0.420   4.684 -0.1322  0.6673 -0.4209
   57MOL   C52636478   6.785   0.567   4.711  0.2154  0.1828  0.8875
   57MOL   N52736479   6.832   0.590   4.845 -0.0112  0.6544  0.4171
   57MOL   H52836480   6.827   0.391   5.585  2.4121  0.6222 -1.9857
   57MOL   H52936481   6.947   0.297   5.498 -1.1197  1.4728 -0.9555
   57MOL   H53036482   6.753   0.136   5.449 -0.6753  0.2755  0.1316
   57MOL   H53136483   6.649   0.255   5.521  0.7799  0.8054  1.3287
   57MOL   H53236484   6.840   0.299   5.277  0.9814  1.0018  0.6792
   57MOL   H53336485   6.740   0.414   5.357 -3.5289 -0.6509  1.9377
   57MOL   H53436486   6.539   0.331   5.296  0.4465 -0.1757  0.8201
   57MOL   H53536487   6.605   0.179   5.215  1.9828 -0.4010 -0.2476
   57MOL   H53636488   6.579   0.205   5.005  0.5346  0.4327  2.6806
   57MOL   H53736489   6.583   0.466   4.851 -0.0469 -0.0009 -0.3232
   57MOL   H53836490   6.544   0.306   4.799 -0.0908 -0.5339  0.2542
   57MOL   H53936491   6.824   0.352   4.895 -1.7417 -1.3043  1.3604
   57MOL   H54036492   6.768   0.230   4.775  0.8570 -0.2512 -0.4197
   57MOL   H54136493   6.726   0.390   4.604 -1.8359  1.0388  0.8640
   57MOL   H54236494   6.896   0.396   4.655  0.1114  1.1098  0.0732
   57MOL   H54336495   6.687   0.613   4.703  0.9135  1.3411 -1.9622
   57MOL   H54436496   6.849   0.624   4.642 -0.9905  0.8124  0.2773
   57MOL   H54536497   6.770   0.543   4.909  1.8886 -0.3170  1.5971
   57MOL   C54636498   6.923   0.673   4.886  0.7476 -0.7680  0.3944
   57MOL   O54736499   6.994   0.741   4.809 -0.0322  0.0217  0.0061
   57MOL   C54836500   6.942   0.674   5.039 -0.1931  0.7159 -0.0003
   57MOL   C54936501   6.897   0.815   5.087 -0.4060 -0.7405  0.1551
   57MOL   C55036502   6.905   0.849   5.234 -0.0913  0.6880 -0.0462
   57MOL   C55136503   6.808   0.769   5.325 -0.1280 -0.3920  0.3501
   57MOL   C55236504   6.655   0.802   5.316 -0.6887 -0.2430 -0.2068
   57MOL   O55336505   6.611   0.905   5.362  0.7561  0.2120 -0.2420
   57MOL   N55436506   6.568   0.707   5.269 -0.4996 -0.0617 -0.0826
   57MOL   C55536507   6.426   0.695   5.271 -0.0515 -0.1763 -0.3185
   57MOL   C55636508   6.388   0.604   5.390  0.1462 -0.4107  0.6316
   57MOL   C55736509   6.243   0.569   5.397  0.1139  0.2932  0.0137
   57MOL   C55836510   6.199   0.492   5.276 -0.1962 -0.1150  0.0250
   57MOL   N55936511   6.085   0.407   5.300  0.0923  0.2946 -0.4555
   57MOL   H56036512   6.882   0.596   5.087  2.1394 -1.1495 -0.0196
   57MOL   H56136513   7.042   0.644   5.070 -1.1427 -3.3427 -0.5552
   57MOL   H56236514   6.963   0.892   5.045  0.9682 -1.1710  1.4861
   57MOL   H56336515   6.797   0.830   5.048 -0.5482  1.0189  1.1667
   57MOL   H56436516   6.883   0.955   5.247 -0.1177  0.6221  0.4332
   57MOL   H56536517   7.007   0.834   5.270  0.2594 -0.5253 -1.5042
   57MOL   H56636518   6.842   0.804   5.422 -0.4547  0.9206  0.0046
   57MOL   H56736519   6.840   0.665   5.333  1.8121  0.2613  1.1734
   57MOL   H56836520   6.608   0.624   5.227  0.1729  0.9366 -1.4791
   57MOL   H56936521   6.390   0.648   5.179 -1.0456 -1.1933  0.5693
   57MOL   H57036522   6.379   0.793   5.272  0.4044  0.0855 -2.5627
   57MOL   H57136523   6.448   0.513   5.379  0.8566 -0.1400  2.1092
   57MOL   H57236524   6.401   0.655   5.485  1.3796  0.0591  0.2245
   57MOL   H57336525   6.192   0.663   5.417 -3.1351 -1.2717 -0.5784
   57MOL   H57436526   6.228   0.511   5.488 -0.2307  1.8686  0.9736
   57MOL   H57536527   6.277   0.423   5.243 -0.2013 -0.6172  1.0491
   57MOL   H57636528   6.182   0.562   5.194  2.6198 -1.2127 -1.5597
   57MOL   H57736529   6.104   0.326   5.357 -0.6084 -0.9902 -2.0304
   57MOL   C57836530   5.961   0.431   5.257 -0.2993  0.0162  0.0812
   57MOL   O57936531   5.934   0.530   5.192  0.1331  0.4990  0.7682
   57MOL   C58036532   5.852   0.334   5.301  0.5250  0.0622 -0.0054
   57MOL   C58136533   5.762   0.388   5.415  0.2362 -0.6219  0.5749
   57MOL   C58236534   5.813   0.425   5.548 -0.2724  0.4100 -0.3333
   57MOL   C58336535   5.737   0.523   5.635  0.0826 -0.3434  0.2115
   57MOL   C58436536   5.691   0.475   5.770 -0.1256  0.0042 -0.6402
   57MOL   O58536537   5.765   0.416   5.847 -0.0856 -0.6080 -0.1939
   57MOL   N58636538   5.564   0.503   5.802  1.0945  0.2390  0.2089
   57MOL   C58736539   5.489   0.462   5.920 -0.3750 -0.0456 -0.1026
   57MOL   C58836540   5.511   0.567   6.035 -0.5106 -0.4301 -0.1610
   57MOL   C58936541   5.654   0.552   6.090  0.1237  0.0744 -0.0729
   57MOL   C59036542   5.683   0.630   6.221 -0.8229  0.0002  0.7649
   57MOL   N59136543   5.660   0.770   6.203  0.0056  0.2524 -0.1899
   57MOL   H59236544   5.787   0.316   5.216  0.9735  0.6370 -0.4825
   57MOL   H59336545   5.887   0.234   5.326 -2.7314 -1.5297 -1.5812
   57MOL   H59436546   5.718   0.476   5.368 -1.3726 -1.1284  1.1208
   57MOL   H59536547   5.667   0.339   5.433  0.4323 -1.1669  0.1490
   57MOL   H59636548   5.920   0.448   5.545 -0.3060  0.8178  1.3446
   57MOL   H59736549   5.813   0.327   5.595  2.4540  0.7572  0.4787
   57MOL   H59836550   5.654   0.563   5.577  0.5811  1.1618  0.5094
   57MOL   H59936551   5.806   0.605   5.651 -1.1401  0.8577 -0.6037
   57MOL   H60036552   5.502   0.548   5.736  2.5557  0.2019 -1.2124
   57MOL   H60136553   5.526   0.363   5.946  1.1753  0.3552 -0.7312
   57MOL   H60236554   5.381   0.453   5.908 -0.5105 -0.5569  1.3901
   57MOL   H60336555   5.487   0.668   6.004  0.6060  0.5108  1.9778
   57MOL   H60436556   5.436   0.553   6.113 -1.6874  4.7103 -0.1972
   57MOL   H60536557   5.733   0.584   6.023  2.5705 -0.5273  2.4169
   57MOL   H60636558   5.671   0.445   6.101 -1.4370 -0.3579 -1.7293
   57MOL   H60736559   5.788   0.634   6.249 -0.0502  0.6070 -2.1208
   57MOL   H60836560   5.619   0.592   6.301 -1.6554 -1.6675 -0.6692
   57MOL   H60936561   5.654   0.794   6.105  2.2713  2.0409  0.0808
   57MOL   C61036562   5.640   0.860   6.295  0.2062 -0.1609 -0.1889
   57MOL   O61136563   5.653   0.824   6.408  0.3242 -0.1596  0.0838
   57MOL   C61236564   5.596   1.000   6.257  0.7047  0.0047  0.2009
   57MOL   C61336565   5.472   1.060   6.324 -0.4787 -0.5156  0.0023
   57MOL   C61436566   5.351   0.960   6.324 -0.0666  0.3046  0.2391
   57MOL   C61536567   5.226   1.038   6.357  0.1186 -0.6396  0.1427
   57MOL   C61636568   5.095   0.971   6.372  0.1298 -0.4705  0.1297
   57MOL   O61736569   5.076   0.852   6.347  0.1883  0.0582  0.2741
   57MOL   N61836570   4.992   1.046   6.413 -0.5565 -0.4156 -0.3168
   57MOL   C61936571   4.853   0.999   6.410 -0.0452 -0.2590  0.1138
   57MOL   C62036572   4.763   1.063   6.511 -0.0320  0.5735 -0.8491
   57MOL   C62136573   4.617   1.071   6.484  0.4810  0.1831 -0.0389
   57MOL   C62236574   4.537   1.101   6.618  0.3108  0.5387 -0.6408
   57MOL   N62336575   4.496   1.237   6.614  0.1391  0.1731 -0.4251
   57MOL   H62436576   5.678   1.066   6.284  1.9613 -1.0611 -0.9901
   57MOL   H62536577   5.590   1.012   6.149  0.2757 -1.6306  0.0391
   57MOL   H62636578   5.512   1.080   6.424  0.2698 -0.6315 -0.2664
   57MOL   H62736579   5.460   1.154   6.271 -0.7700  0.0175  1.0042
   57MOL   H62836580   5.362   0.877   6.394 -2.8204 -0.5414 -0.2861
   57MOL   H62936581   5.339   0.930   6.220  1.7162  0.9259 -0.1671
   57MOL   H63036582   5.218   1.123   6.289  2.9524  0.8340  1.5389
   57MOL   H63136583   5.238   1.100   6.446  1.4104  0.7889 -0.9957
   57MOL   H63236584   5.009   1.142   6.437 -1.2214 -0.0984 -1.0917
   57MOL   H63336585   4.843   0.891   6.424  2.5629 -0.6048 -0.3242
   57MOL   H63436586   4.811   1.019   6.312  1.4030 -1.1833 -0.7168
   57MOL   H63536587   4.777   1.006   6.603 -1.1475 -0.3146 -1.2112
   57MOL   H63636588   4.804   1.160   6.539  2.5138 -0.7112 -0.0037
   57MOL   H63736589   4.578   0.979   6.441  0.1959 -0.4920  1.6110
   57MOL   H63836590   4.604   1.148   6.408  0.5436  0.0119 -0.2245
   57MOL   H63936591   4.603   1.077   6.701 -1.0155  0.9191  0.5511
   57MOL   H64036592   4.451   1.034   6.626 -0.5798  1.7874  0.3477
   57MOL   H64136593   4.396   1.235   6.623  0.2993  1.2048  1.7083
   57MOL   H64236594   4.528   1.275   6.702 -0.5450 -2.1018  0.8390
   58MOL     C136595   2.748   6.112   7.330 -0.9018 -0.8012 -0.3434
   58MOL     O236596   2.652   6.072   7.266 -0.1443 -0.2230 -0.0640
   58MOL     C336597   2.784   6.040   7.458  0.7483 -0.4882  0.8026
   58MOL     C436598   2.662   6.030   7.552 -0.0360 -0.6753  0.1550
   58MOL     C536599   2.691   5.941   7.671 -0.3032 -0.2892 -0.1969
   58MOL     C636600   2.667   5.796   7.637  0.2768 -0.0468  0.2442
   58MOL     C736601   2.699   5.704   0.063 -0.4093 -0.1071  0.4628
   58MOL     O836602   2.608   5.669   0.136 -0.3459  0.8381 -0.1472
   58MOL     N936603   2.826   5.661   0.078 -0.0561 -0.0278  0.3108
   58MOL    C1036604   2.869   5.572   0.184  0.1873 -0.2583  0.0454
   58MOL    C1136605   2.885   5.424   0.145 -0.2190  0.6061 -0.3808
   58MOL    C1236606   2.775   5.371   0.054  0.7868  0.2818 -0.4639
   58MOL    C1336607   2.783   5.223   0.040  0.3088 -0.0366  0.3051
   58MOL    N1436608   2.661   5.169   7.675  0.1104 -0.2915 -0.2269
   58MOL    H1536609   2.827   5.946   7.423 -0.6602 -1.4985  1.7509
   58MOL    H1636610   2.859   6.091   7.518 -1.4738  1.5669  1.8765
   58MOL    H1736611   2.626   6.123   7.596  0.5578  0.3300 -1.4450
   58MOL    H1836612   2.571   5.993   7.505 -0.3600  1.5257 -1.0103
   58MOL    H1936613   2.628   5.967   0.055  0.5110  0.2164  0.2532
   58MOL    H2036614   2.795   5.953   7.700 -0.2101 -0.7318 -0.3571
   58MOL    H2136615   2.731   5.754   7.560 -0.5019  1.5011 -1.2754
   58MOL    H2236616   2.570   5.778   7.590  0.4059  0.6040 -0.2848
   58MOL    H2336617   2.896   5.709   0.023 -1.0364 -0.1341 -1.0659
   58MOL    H2436618   2.791   5.583   0.260 -0.9171  1.3086 -1.2903
   58MOL    H2536619   2.958   5.609   0.234 -0.8527 -1.5052  2.9677
   58MOL    H2636620   2.974   5.416   0.081  0.1385  1.7229 -0.0335
   58MOL    H2736621   2.893   5.368   0.238 -1.7405 -1.0914 -1.2498
   58MOL    H2836622   2.772   5.430   7.664  0.1788  2.3761  0.8680
   58MOL    H2936623   2.677   5.400   0.093 -0.0571 -0.7203 -1.8074
   58MOL    H3036624   2.810   5.177   0.136  0.8195  1.2177  0.7738
   58MOL    H3136625   2.850   5.193   7.662 -0.2328  1.6926 -0.8283
   58MOL    H3236626   2.623   5.217   7.595  0.5827  0.3179 -0.0866
   58MOL    H3336627   2.808   6.199   7.304  2.9326 -2.3080  2.8808
   58MOL    C3436628   2.606   5.051   0.007 -0.0492 -0.0622 -0.0849
   58MOL    O3536629   2.638   4.987   0.105  0.4781  0.0787 -0.6095
   58MOL    C3636630   2.499   4.987   7.617  0.6022  0.1462 -0.4229
   58MOL    C3736631   2.358   5.006   7.662 -0.3840  0.5740 -0.2416
   58MOL    C3836632   2.258   4.966   7.558  0.6061  0.2648 -0.1667
   58MOL    C3936633   2.243   5.071   7.446 -0.4596  1.0891 -0.3193
   58MOL    C4036634   2.130   5.163   7.450  0.4166  0.0676  0.0697
   58MOL    O4136635   2.057   5.183   7.546  0.2284 -0.3024  0.2884
   58MOL    N4236636   2.111   5.230   7.331  0.6445 -0.2572  0.6970
   58MOL    C4336637   2.018   5.339   7.315 -0.0145  0.0878  0.7161
   58MOL    C4436638   1.989   5.360   7.169  0.4656  0.2922  0.1554
   58MOL    C4536639   1.906   5.487   7.147  0.1445 -0.8489 -0.0249
   58MOL    C4636640   1.759   5.473   7.185  0.0106  0.1538 -0.2608
   58MOL    N4736641   1.675   5.582   7.134 -0.4448  0.4325 -0.4178
   58MOL    H4836642   2.514   5.037   7.521 -1.8369  0.3022 -0.7454
   58MOL    H4936643   2.511   4.879   7.617  1.7099  0.2683 -0.5625
   58MOL    H5036644   2.349   4.944   0.050  0.0412 -1.4526 -1.5684
   58MOL    H5136645   2.336   5.104   0.002 -0.6930  0.4884 -0.2029
   58MOL    H5236646   2.163   4.953   7.610  0.7139  0.7204  0.1495
   58MOL    H5336647   2.281   4.868   7.516 -0.5526 -0.0041 -0.1993
   58MOL    H5436648   2.226   5.001   7.364  1.4511 -0.2278  0.3777
   58MOL    H5536649   2.334   5.129   7.429 -0.8243  1.0561 -2.6384
   58MOL    H5636650   2.161   5.185   7.256  0.9969  0.9963  0.1714
   58MOL    H5736651   2.061   5.426   7.365 -0.9079  1.8502 -1.4917
   58MOL    H5836652   1.929   5.310   7.370 -0.1229  0.3375  0.6733
   58MOL    H5936653   2.079   5.373   7.110 -1.1989  1.6059 -2.1747
   58MOL    H6036654   1.932   5.276   7.130  1.1861  0.1508 -0.5937
   58MOL    H6136655   1.913   5.517   7.042 -1.6665 -1.5496 -0.3626
   58MOL    H6236656   1.945   5.566   7.211 -1.4582 -0.3236  0.3434
   58MOL    H6336657   1.747   5.471   7.294  0.1655  0.7271 -0.2335
   58MOL    H6436658   1.711   5.383   7.147 -2.2228  1.2230 -0.0899
   58MOL    H6536659   1.716   5.675   7.130  0.1467  0.1743 -0.4759
   58MOL    C6636660   1.553   5.567   7.082 -0.2554 -0.3222 -0.0041
   58MOL    O6736661   1.488   5.460   7.079 -0.0378  0.4436  0.4364
   58MOL    C6836662   1.479   5.693   7.045  0.0529  0.3571 -0.0609
   58MOL    C6936663   1.442   5.696   6.895  0.8019  0.8311  0.5452
   58MOL    C7036664   1.354   5.813   6.847  0.2627  0.3304  0.3137
   58MOL    C7136665   1.345   5.810   6.696  0.5899 -0.1515  0.5158
   58MOL    C7236666   1.277   5.932   6.633  0.2663 -0.0660  0.5227
   58MOL    O7336667   1.155   5.968   6.652 -0.0578 -0.1781 -0.2982
   58MOL    N7436668   1.354   6.007   6.549  0.1500 -0.0010  0.2543
   58MOL    C7536669   1.295   6.111   6.457  0.2354  0.1232 -0.2199
   58MOL    C7636670   1.396   6.149   6.354 -1.2052  0.3490 -0.2193
   58MOL    C7736671   1.355   6.248   6.254  0.3906 -0.1357  0.3576
   58MOL    C7836672   1.477   6.262   6.166  0.1899  0.1957  1.4054
   58MOL    N7936673   1.456   6.369   6.065 -0.0599 -0.5832  0.6396
   58MOL    H8036674   1.390   5.717   7.104 -1.3823 -0.8543 -1.6667
   58MOL    H8136675   1.553   5.771   7.066  0.8940 -0.1161 -1.2310
   58MOL    H8236676   1.533   5.680   6.836 -0.4026 -0.4681 -1.0006
   58MOL    H8336677   1.399   5.598   6.873  5.3490 -0.9677 -1.0125
   58MOL    H8436678   1.398   5.906   6.882  2.2417 -1.4851  2.8066
   58MOL    H8536679   1.258   5.806   6.898  1.4677 -1.7028  2.4141
   58MOL    H8636680   1.298   5.715   6.672  0.3294  0.1719 -0.2834
   58MOL    H8736681   1.453   5.808   6.680  0.6209 -3.3805  0.7492
   58MOL    H8836682   1.450   5.981   6.534  0.5405  2.4157 -1.7988
   58MOL    H8936683   1.250   6.196   6.508 -0.3339 -0.0793 -0.3778
   58MOL    H9036684   1.213   6.057   6.408 -1.1100  2.3298 -0.4717
   58MOL    H9136685   1.477   6.185   6.418 -0.3857 -0.8406 -0.5792
   58MOL    H9236686   1.439   6.063   6.303  2.5566  0.9034  1.8611
   58MOL    H9336687   1.332   6.340   6.307 -1.9770 -0.5752  0.1607
   58MOL    H9436688   1.263   6.221   6.203  0.2610  2.0246 -0.6301
   58MOL    H9536689   1.518   6.172   6.121 -1.7719 -1.9764  3.8521
   58MOL    H9636690   1.562   6.293   6.227 -1.1347  1.8801  2.4140
   58MOL    H9736691   1.526   6.441   6.068  1.3521 -2.0055  3.2470
   58MOL    C9836692   1.358   6.373   5.971 -0.7806 -0.0959 -0.2910
   58MOL    O9936693   1.269   6.287   5.975  0.1665  0.2748  0.8038
   58MOL   C10036694   1.367   6.493   5.875 -0.0428 -0.4200  0.1076
   58MOL   C10136695   1.277   6.462   5.746 -0.0629  0.6160 -0.5144
   58MOL   C10236696   1.286   6.578   5.647 -0.3487 -0.2471  0.1298
   58MOL   C10336697   1.234   6.540   5.502  0.1707  0.0848  0.3888
   58MOL   C10436698   1.264   6.635   5.392 -0.5182  0.1663  0.2573
   58MOL   O10536699   1.220   6.751   5.399  0.0996  0.2535  0.0773
   58MOL   N10636700   1.346   6.584   5.292 -0.1194  0.7152  0.4408
   58MOL   C10736701   1.391   6.656   5.174  0.1854  0.2534  0.0801
   58MOL   C10836702   1.267   6.678   5.068  0.3275 -0.5052 -0.6992
   58MOL   C10936703   1.177   6.557   5.041 -0.1721  0.6171  0.3212
   58MOL   C11036704   1.107   6.562   4.906  0.2073 -0.1595  0.4634
   58MOL   N11136705   1.034   6.435   4.884 -0.1798  0.7738 -0.2815
   58MOL   H11236706   1.336   6.582   5.930 -0.2318  1.0845 -2.3823
   58MOL   H11336707   1.472   6.512   5.851 -0.3839 -0.1701 -1.2262
   58MOL   H11436708   1.306   6.371   5.693  0.0595  1.3007 -1.6455
   58MOL   H11536709   1.177   6.448   5.786  0.0311 -4.1041 -1.6583
   58MOL   H11636710   1.387   6.617   5.637 -0.7966  0.5956 -1.2604
   58MOL   H11736711   1.220   6.659   5.679 -1.3168 -0.5277 -1.1099
   58MOL   H11836712   1.128   6.536   5.527  0.9719 -2.7695  3.7614
   58MOL   H11936713   1.269   6.440   5.478 -0.2204 -0.5986  2.5665
   58MOL   H12036714   1.386   6.493   5.308 -0.9597  0.2978  0.1803
   58MOL   H12136715   1.469   6.591   5.135 -0.1530 -0.0717 -0.0629
   58MOL   H12236716   1.451   6.742   5.203  2.7444 -0.9297 -1.5349
   58MOL   H12336717   1.212   6.760   5.114 -2.5458 -2.7510  0.0435
   58MOL   H12436718   1.313   6.723   4.980 -0.0848  0.6854 -0.3224
   58MOL   H12536719   1.098   6.552   5.116  0.4836  2.6239  1.1889
   58MOL   H12636720   1.236   6.466   5.048 -2.6258 -1.0875 -0.5833
   58MOL   H12736721   1.186   6.581   4.834  0.7574  2.7702  1.7753
   58MOL   H12836722   1.039   6.647   4.902 -1.3633 -1.3708  1.0688
   58MOL   H12936723   0.952   6.426   4.941 -1.9141  2.5354 -2.4366
   58MOL   C13036724   1.068   6.331   4.804  0.2558  0.5808  0.5206
   58MOL   O13136725   1.162   6.332   4.729  0.3076  0.4064 -0.4672
   58MOL   C13236726   0.967   6.211   4.820  0.0141 -0.2073 -0.0852
   58MOL   C13336727   0.908   6.145   4.694 -0.2110  0.2275  0.2021
   58MOL   C13436728   0.787   6.207   4.627  0.3662 -0.0165 -0.0127
   58MOL   C13536729   0.815   6.342   4.562 -0.4411  0.3001  0.0160
   58MOL   C13636730   0.914   6.345   4.444 -0.3270  0.0876 -0.0421
   58MOL   O13736731   0.901   6.267   4.356  0.2846  0.2845 -0.1972
   58MOL   N13836732   1.008   6.443   4.447  0.1227  0.4562 -0.0736
   58MOL   C13936733   1.104   6.473   4.345 -0.1105 -0.6391  0.1878
   58MOL   C14036734   1.250   6.499   4.401 -0.1549  0.3596  0.1706
   58MOL   C14136735   1.250   6.637   4.469 -0.3626 -0.2409  0.5359
   58MOL   C14236736   1.393   6.669   4.517  0.1900 -0.0054 -0.0267
   58MOL   N14336737   1.438   6.570   4.619  0.6984  0.3639 -0.0519
   58MOL   H14436738   1.026   6.131   4.865 -1.0662 -1.0565 -0.1667
   58MOL   H14536739   0.893   6.242   4.894  0.8893 -0.4367  0.8971
   58MOL   H14636740   0.988   6.132   4.621 -1.7864  1.4369 -1.7906
   58MOL   H14736741   0.868   6.050   4.729  2.0580 -0.4982  0.9179
   58MOL   H14836742   0.712   6.230   4.702  0.9123 -1.8907  1.1287
   58MOL   H14936743   0.737   6.137   4.561  2.2754 -0.9822 -0.4679
   58MOL   H15036744   0.847   6.412   4.640  0.4673 -0.9377  0.7840
   58MOL   H15136745   0.725   6.387   4.520 -0.3742 -2.3915 -3.1811
   58MOL   H15236746   1.001   6.498   4.531 -1.1342 -0.6384  0.5531
   58MOL   H15336747   1.078   6.553   4.277  0.0275 -1.4581 -0.8489
   58MOL   H15436748   1.118   6.384   4.283  0.5889 -0.1371 -0.3865
   58MOL   H15536749   1.283   6.429   4.478 -1.3220  0.1997  0.5435
   58MOL   H15636750   1.327   6.505   4.325 -0.4326  0.9777 -0.0712
   58MOL   H15736751   1.209   6.643   4.570 -0.0691 -0.8242  0.6885
   58MOL   H15836752   1.213   6.721   4.410  0.2306  0.0332  0.5524
   58MOL   H15936753   1.390   6.771   4.555 -2.1330 -0.5547  1.4360
   58MOL   H16036754   1.472   6.667   4.443  2.7540 -0.0626  2.6004
   58MOL   H16136755   1.379   6.489   4.621 -1.7627  2.1222 -0.0454
   58MOL   C16236756   1.546   6.577   4.704 -0.2775  0.1959  0.2351
   58MOL   O16336757   1.614   6.679   4.709 -0.2076 -0.4355 -0.0979
   58MOL   C16436758   1.580   6.456   4.799  0.5244  0.5861 -0.2221
   58MOL   C16536759   1.646   6.336   4.726 -0.0810 -0.0638  0.1042
   58MOL   C16636760   1.574   6.271   4.610 -0.2783  0.1010 -0.3322
   58MOL   C16736761   1.461   6.172   4.644  0.6152  0.3180  0.1839
   58MOL   C16836762   1.403   6.110   4.511  0.3902  0.4195  0.1191
   58MOL   O16936763   1.472   6.052   4.428  0.5792  0.0200  0.8525
   58MOL   N17036764   1.277   6.128   4.497 -0.5071 -0.5561  0.1741
   58MOL   C17136765   1.198   6.068   4.386 -0.2221  0.8421 -0.1605
   58MOL   C17236766   1.127   5.941   4.427  0.1298 -0.1574 -0.3972
   58MOL   C17336767   1.050   5.873   4.317  0.5626  0.3169  0.6420
   58MOL   C17436768   0.998   5.728   4.337  0.0674 -0.5149 -0.2302
   58MOL   N17536769   1.060   5.657   4.443 -0.2177 -0.0559  0.3992
   58MOL   H17636770   1.627   6.483   4.894 -1.8326  0.5245  0.9972
   58MOL   H17736771   1.481   6.415   4.818  0.4908  0.5278 -0.5237
   58MOL   H17836772   1.741   6.358   4.678  0.9504 -2.1608  1.1513
   58MOL   H17936773   1.676   6.265   4.802  1.3980  0.6723  0.2221
   58MOL   H18036774   1.650   6.220   4.551  0.1177  0.0309  0.2328
   58MOL   H18136775   1.546   6.351   4.541 -0.4426  1.6542  1.5037
   58MOL   H18236776   1.381   6.218   4.703  0.6421  1.6221 -0.7925
   58MOL   H18336777   1.504   6.107   4.720  1.8102 -0.3451 -1.0457
   58MOL   H18436778   1.225   6.164   4.576  0.6137 -0.4419  0.8621
   58MOL   H18536779   1.271   6.038   4.310  1.2657 -0.7928  1.8706
   58MOL   H18636780   1.133   6.140   4.335 -0.0179  1.7216  0.7975
   58MOL   H18736781   1.209   5.871   4.445 -0.4071 -1.0469 -1.3767
   58MOL   H18836782   1.063   5.956   4.514  1.5470 -0.0316  0.6421
   58MOL   H18936783   1.112   5.868   4.228 -1.7696 -1.0761 -0.9526
   58MOL   H19036784   0.974   5.947   4.293  1.7701  1.5720  0.6516
   58MOL   H19136785   1.022   5.675   4.245 -0.3559 -0.7017 -0.2320
   58MOL   H19236786   0.890   5.721   4.349  0.2086  2.3993  4.0365
   58MOL   H19336787   1.059   5.709   4.530 -1.3635  1.0451 -0.2701
   58MOL   C19436788   1.136   5.545   4.431 -0.4465  0.2669  0.4592
   58MOL   O19536789   1.142   5.470   4.333  0.3368  0.4846  0.1153
   58MOL   C19636790   1.213   5.509   4.558 -0.3123 -0.1497 -0.1069
   58MOL   C19736791   1.198   5.361   4.602 -0.8488 -0.7617  0.5558
   58MOL   C19836792   1.287   5.305   4.714 -0.2006  0.2248 -0.1348
   58MOL   C19936793   1.273   5.372   4.845 -0.1000 -0.2823 -0.0050
   58MOL   C20036794   1.152   5.335   4.938  0.4192 -0.0247  0.0172
   58MOL   O20136795   1.037   5.341   4.894  0.2982  0.3140  0.3466
   58MOL   N20236796   1.175   5.315   5.067 -0.8501  0.8911 -0.3012
   58MOL   C20336797   1.077   5.324   5.174  0.6339 -0.7467  0.5000
   58MOL   C20436798   1.035   5.187   5.237 -0.4521  0.0258  0.5517
   58MOL   C20536799   0.900   5.201   5.302  0.2799 -0.1818  0.0188
   58MOL   C20636800   0.872   5.071   5.375 -0.1673  0.2113  0.0609
   58MOL   N20736801   0.741   5.084   5.442  0.2992  0.3454  0.2184
   58MOL   H20836802   1.315   5.523   4.521 -0.0676  0.2482  0.7000
   58MOL   H20936803   1.193   5.576   4.641  1.7552  0.1783  0.1492
   58MOL   H21036804   1.093   5.347   4.625 -0.9489 -2.0831 -0.6017
   58MOL   H21136805   1.214   5.301   4.512 -1.2073  0.7372 -0.5208
   58MOL   H21236806   1.387   5.329   4.679 -0.2256  0.5659  0.0281
   58MOL   H21336807   1.281   5.196   4.714 -1.7797  0.2880  1.0869
   58MOL   H21436808   1.279   5.481   4.833  1.9295 -0.1853  1.5995
   58MOL   H21536809   1.366   5.349   4.897  0.8200  1.7128 -0.7052
   58MOL   H21636810   1.273   5.316   5.094 -0.5887  0.8473 -1.2281
   58MOL   H21736811   0.997   5.390   5.140  1.1232  0.2443  1.2466
   58MOL   H21836812   1.126   5.383   5.251 -0.1013 -1.0609  1.2102
   58MOL   H21936813   1.032   5.107   5.163 -1.3181  1.0299 -0.5212
   58MOL   H22036814   1.107   5.148   5.309  0.0311  0.4681  0.3091
   58MOL   H22136815   0.829   5.214   5.221  1.4439 -0.4634 -1.0650
   58MOL   H22236816   0.900   5.286   5.371 -0.6985 -0.1157 -0.0566
   58MOL   H22336817   0.946   5.047   5.451  0.8793 -1.3839 -1.4443
   58MOL   H22436818   0.870   4.991   5.302 -0.0749  1.6832 -1.5938
   58MOL   H22536819   0.689   5.170   5.440 -0.1465  0.1348  1.7516
   58MOL   C22636820   0.681   4.978   5.500 -0.3355 -0.4215  0.4020
   58MOL   O22736821   0.721   4.864   5.495  0.2807 -0.7463  0.1295
   58MOL   C22836822   0.547   5.007   5.567  0.4115  0.7416 -0.2289
   58MOL   C22936823   0.423   5.006   5.482  0.4909 -0.1504 -0.9880
   58MOL   C23036824   0.387   4.870   5.418  0.5741 -0.1482  0.1583
   58MOL   C23136825   0.303   4.783   5.518 -0.2702  0.6432  0.6140
   58MOL   C23236826   0.149   4.806   5.525  0.1242  0.1454  0.3269
   58MOL   O23336827   0.088   4.859   5.429  0.0610  0.3700 -0.1748
   58MOL   N23436828   0.090   4.777   5.643 -0.7773 -0.4538 -0.3232
   58MOL   C23536829   7.653   4.805   5.677  0.0637 -0.8241 -0.6107
   58MOL   C23636830   7.635   4.852   5.824 -0.0521 -0.2880  0.2203
   58MOL   C23736831   0.028   4.967   5.868  0.7261  0.0371  0.0649
   58MOL   C23836832   7.662   5.106   5.851 -0.4256  0.0088  0.3360
   58MOL   N23936833   7.692   5.163   5.724 -0.4537 -0.3350  0.3669
   58MOL   H24036834   0.531   4.939   5.651 -0.6219 -0.6810 -1.5464
   58MOL   H24136835   0.560   5.098   5.626  0.9854 -1.2792  2.9213
   58MOL   H24236836   0.344   5.040   5.549  1.8164 -0.4799  0.7784
   58MOL   H24336837   0.426   5.078   5.400 -1.8163  0.6786 -0.3785
   58MOL   H24436838   0.474   4.805   5.410  1.3970  1.0492 -0.6384
   58MOL   H24536839   0.341   4.882   5.320  0.3890  0.4932  0.3245
   58MOL   H24636840   0.339   4.790   5.621 -0.2243  0.1608  0.6336
   58MOL   H24736841   0.315   4.676   5.503 -0.6748  0.7648 -0.6898
   58MOL   H24836842   0.147   4.724   5.706 -2.0938 -0.6456  0.7360
   58MOL   H24936843   7.580   4.725   5.663  0.6098 -1.6101  0.8498
   58MOL   H25036844   7.615   4.889   5.618 -0.1192 -0.3644  0.1498
   58MOL   H25136845   7.529   4.875   5.833 -0.3367 -0.9866 -1.1757
   58MOL   H25236846   7.638   4.770   5.896  0.6033 -2.1224 -1.8496
   58MOL   H25336847   0.116   4.963   5.805  0.7154  2.5055 -0.1486
   58MOL   H25436848   0.058   4.950   5.972  0.2495 -1.6067 -0.0548
   58MOL   H25536849   0.010   5.182   5.912 -0.2152 -0.8418  1.2461
   58MOL   H25636850   7.556   5.121   5.869 -0.9911 -1.4341 -1.6007
   58MOL   H25736851   0.074   5.220   5.715 -1.0899  0.3900 -1.0700
   58MOL   C25836852   7.609   5.176   5.620  0.4831  0.1478  0.7839
   58MOL   O25936853   7.501   5.118   5.613  0.4112 -0.1063  0.2897
   58MOL   C26036854   7.659   5.265   5.500  0.2831 -1.1661 -0.3806
   58MOL   C26136855   0.012   5.193   5.377 -0.4785 -0.0033 -0.5225
   58MOL   C26236856   7.601   5.157   5.277  0.6241  0.0398  0.6040
   58MOL   C26336857   7.659   5.059   5.169 -0.2434 -0.1886 -0.2001
   58MOL   C26436858   0.059   5.127   5.077 -0.3869  0.0006  0.1392
   58MOL   O26536859   0.039   5.238   5.027 -0.1819 -0.0390 -0.1956
   58MOL   N26636860   0.166   5.059   5.047  0.4247  0.2814 -0.1638
   58MOL   C26736861   0.284   5.109   4.981  0.6825  0.6490 -0.3755
   58MOL   C26836862   0.411   5.041   5.038  0.2716 -0.6162 -0.1653
   58MOL   C26936863   0.555   5.077   4.982  0.4457 -0.1084  0.2672
   58MOL   C27036864   0.576   5.017   4.849  0.4838  0.3411 -0.3298
   58MOL   N27136865   0.697   5.063   4.793 -0.2536  0.1597 -0.2762
   58MOL   H27236866   7.573   5.331   5.489  0.8070 -0.4568 -0.2600
   58MOL   H27336867   0.039   5.326   5.537 -0.2365  0.2266 -1.4852
   58MOL   H27436868   0.091   5.243   5.319 -0.4349  0.8109  0.2264
   58MOL   H27536869   0.049   5.095   5.405  1.1111  1.4252  2.6885
   58MOL   H27636870   7.554   5.251   5.247 -0.5406 -0.1733  1.7457
   58MOL   H27736871   7.528   5.096   5.330 -1.9892  0.1172 -2.7731
   58MOL   H27836872   7.583   5.021   5.102 -0.7232  1.1317 -0.4161
   58MOL   H27936873   0.001   4.977   5.227  0.8173  0.0796 -0.6008
   58MOL   H28036874   0.184   4.975   5.100 -0.6501  1.5728  2.2913
   58MOL   H28136875   0.290   5.218   4.988 -0.7209  0.7695 -0.9033
   58MOL   H28236876   0.278   5.097   4.873  1.0925  1.7219 -0.5208
   58MOL   H28336877   0.408   5.069   5.143 -0.3433 -3.3265  0.5719
   58MOL   H28436878   0.403   4.933   5.030 -1.5433 -0.5017 -0.0180
   58MOL   H28536879   0.630   5.041   5.052 -0.4797 -1.9113  0.3615
   58MOL   H28636880   0.581   5.183   4.974  0.9372 -0.4407 -3.4804
   58MOL   H28736881   0.496   5.055   4.785 -0.3692  1.0214  1.1234
   58MOL   H28836882   0.566   4.909   4.852 -0.1039  0.4229  0.7017
   58MOL   H28936883   0.724   5.159   4.814 -1.0952  0.6312 -1.3137
   58MOL   C29036884   0.786   4.990   4.726 -0.4719  0.0739  0.8811
   58MOL   O29136885   0.771   4.873   4.690 -0.0230  0.3455 -0.5722
   58MOL   C29236886   0.923   5.047   4.693 -0.0471  0.1652 -0.3496
   58MOL   C29336887   0.972   5.018   4.551  0.1726 -0.9239  0.2022
   58MOL   C29436888   0.885   5.071   4.439  0.0171  0.0380 -0.1701
   58MOL   C29536889   0.946   5.196   4.373  0.8434  0.5547  0.8715
   58MOL   C29636890   0.862   5.251   4.262  0.3684 -0.4998 -0.1418
   58MOL   O29736891   0.793   5.179   4.195 -0.2898  0.6010 -0.0069
   58MOL   N29836892   0.887   5.378   4.232 -0.3309 -0.7876  0.3101
   58MOL   C29936893   0.823   5.449   4.121 -0.7456  0.1419 -0.6027
   58MOL   C30036894   0.927   5.466   4.005  0.6128  0.4427 -0.7953
   58MOL   C30136895   0.880   5.566   3.894  0.4138  0.1936  0.1912
   58MOL   C30236896   0.869   5.712   3.956  0.1982 -0.7754 -0.5774
   58MOL   N30336897   0.870   5.814   3.858  0.4266  0.3734 -0.3672
   58MOL   H30436898   0.913   5.154   4.710 -1.6623 -0.1914  1.0557
   58MOL   H30536899   0.996   5.009   4.765  1.6363 -1.3478 -2.7624
   58MOL   H30636900   1.078   5.030   4.529 -0.0719  1.4886  0.2601
   58MOL   H30736901   0.962   4.911   4.533 -5.6484 -0.6854  1.3034
   58MOL   H30836902   0.780   5.083   4.465  0.3278  0.1158  1.0885
   58MOL   H30936903   0.878   4.996   4.361 -2.8350  2.2405 -2.1394
   58MOL   H31036904   1.035   5.157   4.323  1.7138  0.6029  2.3582
   58MOL   H31136905   0.969   5.263   4.455  0.3646  2.2497 -0.3419
   58MOL   H31236906   0.949   5.428   4.293 -1.1113 -0.9632  1.2560
   58MOL   H31336907   0.795   5.544   4.167 -1.8309 -0.0719 -0.8042
   58MOL   H31436908   0.723   5.416   4.092 -0.4412 -0.4157 -1.0114
   58MOL   H31536909   1.029   5.488   4.035  0.6931  3.8193 -3.1600
   58MOL   H31636910   0.919   5.369   3.957  0.4730 -1.2759  2.5356
   58MOL   H31736911   0.789   5.543   3.839  0.7447 -2.4125  0.6673
   58MOL   H31836912   0.954   5.566   3.814 -0.6321  1.7192 -0.8288
   58MOL   H31936913   0.954   5.726   4.024 -1.3940  1.0215  1.1218
   58MOL   H32036914   0.784   5.729   4.021 -0.4099 -0.3092 -1.4875
   58MOL   H32136915   0.791   5.811   3.795 -0.6441  1.2636  0.9015
   58MOL   C32236916   0.962   5.903   3.834 -0.7057 -0.8846 -0.6356
   58MOL   O32336917   1.084   5.896   3.879  0.2157 -0.0622  0.1398
   58MOL   C32436918   0.921   6.022   3.743  0.2608  0.9704  0.0777
   58MOL   C32536919   0.901   6.154   3.825  0.4164 -0.1783  1.1036
   58MOL   C32636920   1.027   6.240   3.840 -0.1011 -0.4656 -0.0956
   58MOL   C32736921   1.019   6.352   3.946 -0.0364 -0.1642  0.1511
   58MOL   C32836922   1.159   6.395   3.995 -1.2247 -0.2688  0.1561
   58MOL   O32936923   1.232   6.314   4.046  0.4035 -0.1445  0.4778
   58MOL   N33036924   1.195   6.521   3.963 -0.1133  0.3208 -0.0353
   58MOL   C33136925   1.322   6.579   4.000 -0.2503 -0.1796 -0.4795
   58MOL   C33236926   1.292   6.705   4.081  0.1283  0.7044  0.0525
   58MOL   C33336927   1.428   6.755   4.122  0.0430  0.3813  0.1887
   58MOL   C33436928   1.424   6.903   4.190  0.6004  0.3263  0.2508
   58MOL   N33536929   1.533   6.912   4.293  1.1034 -0.7825  0.3962
   58MOL   H33636930   0.982   6.036   3.654  1.1302 -0.4419  0.4446
   58MOL   H33736931   0.825   5.993   3.701  0.7013 -0.4896  0.0366
   58MOL   H33836932   0.826   6.211   3.771  2.8941  1.6800 -0.4565
   58MOL   H33936933   0.858   6.128   3.922 -0.9086  0.2473  0.6407
   58MOL   H34036934   1.071   6.274   3.746  1.0688  2.7267  1.5076
   58MOL   H34136935   1.113   6.185   3.880  0.1216  0.7509  1.1483
   58MOL   H34236936   0.950   6.318   4.022 -0.8425 -0.2766 -0.6303
   58MOL   H34336937   0.968   6.437   3.900  0.4129 -0.7019 -1.3756
   58MOL   H34436938   1.131   6.569   3.902 -2.1668 -1.8420  0.3591
   58MOL   H34536939   1.350   6.626   3.905  0.4963  1.0254  0.3251
   58MOL   H34636940   1.394   6.504   4.034 -0.4669 -1.1038 -1.9961
   58MOL   H34736941   1.228   6.772   4.023  2.1020  1.5467 -1.1833
   58MOL   H34836942   1.231   6.682   4.168 -0.9432 -0.8755 -1.0708
   58MOL   H34936943   1.496   6.763   4.038 -1.2832  0.1808 -0.9198
   58MOL   H35036944   1.471   6.688   4.197  1.3045 -1.0911 -1.8214
   58MOL   H35136945   1.323   6.925   4.225  0.8648  3.5300 -0.9222
   58MOL   H35236946   1.434   6.983   4.117 -0.5475 -1.6653 -2.1816
   58MOL   H35336947   1.607   6.843   4.296 -2.2330 -4.5703  1.0386
   58MOL   C35436948   1.534   6.996   4.394 -0.3336  0.5835  0.0808
   58MOL   O35536949   1.448   7.076   4.412  0.0100  0.7795  0.3848
   58MOL   C35636950   1.661   6.996   4.479 -0.1268  0.0426 -0.8891
   58MOL   C35736951   1.728   7.136   4.460 -0.3587 -0.3036 -0.0086
   58MOL   C35836952   1.780   7.178   4.315  0.1833 -0.4351 -0.0122
   58MOL   C35936953   1.844   7.316   4.319 -0.4758  0.3617 -0.3057
   58MOL   C36036954   1.766   7.428   4.250  0.3378 -0.2519  0.3349
   58MOL   O36136955   1.708   7.403   4.146  0.3671 -0.5087  0.3910
   58MOL   N36236956   1.771   7.550   4.310  0.3834 -0.3044  0.4649
   58MOL   C36336957   1.720   7.668   4.247  0.3939  0.8214  0.4336
   58MOL   C36436958   1.833   0.051   4.178 -0.3505  0.2134 -0.4879
   58MOL   C36536959   1.900   7.673   4.062  0.7899  0.0983  0.5033
   58MOL   C36636960   2.021   0.048   4.021 -0.9484 -0.1108 -0.1740
   58MOL   N36736961   2.066   7.688   3.898  0.9654 -0.3153 -0.2233
   58MOL   H36836962   1.638   6.982   4.585 -0.9656  3.0693 -0.6380
   58MOL   H36936963   1.725   6.911   4.455  0.6600 -0.0581  1.4129
   58MOL   H37036964   1.649   7.204   4.492  0.5489  0.9625 -0.3635
   58MOL   H37136965   1.803   7.155   4.537 -1.9941 -0.5553  1.6968
   58MOL   H37236966   1.695   7.172   4.248 -0.5610 -0.6043  0.9453
   58MOL   H37336967   1.850   7.101   4.280  1.2316 -0.2558  1.6133
   58MOL   H37436968   1.943   7.327   4.274 -0.0697  1.4277  0.8251
   58MOL   H37536969   1.864   7.352   4.420  0.8350  0.7917 -0.7090
   58MOL   H37636970   1.819   7.563   4.398 -0.3082 -4.3015  1.5731
   58MOL   H37736971   1.674   0.035   4.318  0.7888 -0.2031  1.7018
   58MOL   H37836972   1.636   7.638   4.185  0.1625  0.2491  1.0078
   58MOL   H37936973   1.793   0.143   4.134  1.7174  0.9326 -0.8847
   58MOL   H38036974   1.899   0.079   4.260 -0.5706 -2.7908  0.7814
   58MOL   H38136975   1.837   7.654   3.975  0.8266 -0.3703  0.5748
   58MOL   H38236976   1.939   7.575   4.091 -0.1616 -0.8388 -1.3332
   58MOL   H38336977   2.089   0.052   4.106 -2.3816  2.9081  0.9132
   58MOL   H38436978   1.998   0.152   3.997 -0.9175  0.4330  2.0389
   58MOL   H38536979   2.048   7.589   3.893 -2.4344  0.2551 -0.4338
   58MOL   C38636980   2.120   0.052   3.793  0.3749 -0.5081  0.3764
   58MOL   O38736981   2.133   0.173   3.774 -0.0910 -0.2195  0.3727
   58MOL   C38836982   2.160   7.651   3.678  0.2104  0.5512  0.0466
   58MOL   C38936983   2.269   7.691   3.568 -0.4787  0.3295 -0.3361
   58MOL   C39036984   2.411   7.688   3.625 -0.3542  0.6289 -0.3774
   58MOL   C39136985   2.518   0.028   3.522 -0.2421  0.0595  0.7097
   58MOL   C39236986   2.496   0.170   3.468  0.3879  0.6651 -0.3213
   58MOL   O39336987   2.432   0.186   3.368  0.0070 -0.4832  0.1447
   58MOL   N39436988   2.550   0.271   3.534  0.4978  0.2525 -0.0167
   58MOL   C39536989   2.520   0.407   3.513  0.3954 -0.2097  0.3261
   58MOL   C39636990   2.414   0.453   3.616 -0.0419 -0.1819  0.2160
   58MOL   C39736991   2.380   0.606   3.602 -0.1242 -0.7247 -0.0044
   58MOL   C39836992   2.249   0.638   3.674  0.5015  0.1768  0.3506
   58MOL   N39936993   2.227   0.782   3.679  0.1658  0.0232  0.1931
   58MOL   H40036994   2.198   7.568   3.737  0.1104 -1.2847 -2.4203
   58MOL   H40136995   2.072   7.605   3.633 -0.5183  0.6844  1.2811
   58MOL   H40236996   2.268   7.607   3.498  1.8376 -0.7524  0.8508
   58MOL   H40336997   2.235   0.081   3.521 -0.1901  0.9730  0.6840
   58MOL   H40436998   2.441   7.592   3.669  0.4647  0.6189 -0.9462
   58MOL   H40536999   2.425   0.056   3.708  0.2282 -2.5418  2.2722
   58MOL   H40637000   2.514   7.668   3.432  1.0882 -1.7064  1.8322
   58MOL   H40737001   2.618   0.029   3.566 -0.6456  1.9087  1.6237
   58MOL   H40837002   2.603   0.248   3.616 -0.7921  0.2267  0.8300
   58MOL   H40937003   2.477   0.438   3.418  4.0373  0.5004 -1.1782
   58MOL   H41037004   2.608   0.472   3.512  1.6113 -1.8373 -1.1329
   58MOL   H41137005   2.324   0.393   3.615 -0.4780  0.4784 -0.6096
   58MOL   H41237006   2.462   0.445   3.714 -2.0581 -1.4694  1.1325
   58MOL   H41337007   2.395   0.640   3.500 -0.4009 -1.6857 -0.3739
   58MOL   H41437008   2.464   0.663   3.643 -0.2636  0.7261 -1.7053
   58MOL   H41537009   2.246   0.594   3.773  2.7311  1.4973  1.0401
   58MOL   H41637010   2.170   0.599   3.610 -0.0150 -0.4461  1.3678
   58MOL   H41737011   2.275   0.824   3.757 -0.5052  0.6398  0.2821
   58MOL   C41837012   2.159   0.859   3.592  0.7681 -0.0280 -0.0465
   58MOL   O41937013   2.082   0.812   3.509  0.3548  0.0729 -0.1516
   58MOL   C42037014   2.172   1.004   3.609  0.3024  0.1823 -0.7943
   58MOL   C42137015   2.039   1.083   3.613 -0.5958  0.6170  0.0634
   58MOL   C42237016   2.068   1.224   3.579 -0.4583  0.0587 -0.1185
   58MOL   C42337017   1.944   1.313   3.603  0.2127  0.4763  0.2924
   58MOL   C42437018   1.821   1.282   3.522  0.2545  0.0167  0.4761
   58MOL   O42537019   1.708   1.273   3.572  0.2045 -0.0663 -0.0970
   58MOL   N42637020   1.838   1.255   3.394  0.2338  0.6129 -0.3720
   58MOL   C42737021   1.730   1.220   3.299  0.3009 -0.2649 -0.3882
   58MOL   C42837022   1.793   1.121   3.194  0.0902 -1.0025 -0.2667
   58MOL   C42937023   1.899   1.026   3.254  0.2148  0.8943  0.3719
   58MOL   C43037024   1.934   0.914   3.153 -0.9990 -0.2030 -0.2997
   58MOL   N43137025   2.033   0.826   3.211  0.2197  0.6690 -0.4253
   58MOL   H43237026   2.229   1.035   3.697  1.3478  1.2978 -1.8616
   58MOL   H43337027   2.238   1.026   3.525 -0.1350 -3.5211 -2.1885
   58MOL   H43437028   1.972   1.040   3.539 -2.8261  1.2364  1.6488
   58MOL   H43537029   2.001   1.074   3.715  0.4710 -1.9608  0.2579
   58MOL   H43637030   2.098   1.231   3.475  0.5820 -1.2540  0.0898
   58MOL   H43737031   2.155   1.265   3.630 -2.2906  3.5109  0.4367
   58MOL   H43837032   1.962   1.421   3.601 -1.7950  0.8323 -0.1489
   58MOL   H43937033   1.918   1.311   3.709 -1.7553 -0.5710 -0.1838
   58MOL   H44037034   1.927   1.260   3.346  0.4442 -1.7167 -0.2895
   58MOL   H44137035   1.699   1.314   3.253  1.1293  0.5063  0.6094
   58MOL   H44237036   1.651   1.171   3.357 -0.5110  1.7689  0.2678
   58MOL   H44337037   1.712   1.073   3.140  0.1977 -1.7025  0.1770
   58MOL   H44437038   1.848   1.182   3.122  1.3698 -0.5116  1.0789
   58MOL   H44537039   1.870   1.000   3.356  1.6750 -0.2427  0.5063
   58MOL   H44637040   1.985   1.093   3.257  1.8019 -0.8255 -3.4442
   58MOL   H44737041   1.979   0.954   3.062  0.9516 -1.7310 -0.0292
   58MOL   H44837042   1.850   0.855   3.116 -0.2450 -0.8776 -0.9444
   58MOL   H44937043   2.092   0.865   3.283 -3.0746  2.1323  1.5955
   58MOL   C45037044   2.059   0.706   3.161  0.5640  0.4548 -0.0774
   58MOL   O45137045   1.984   0.647   3.083 -0.0259 -0.5412  0.2844
   58MOL   C45237046   2.193   0.647   3.193  0.7264  0.4822  0.0676
   58MOL   C45337047   2.179   0.492   3.185  0.3306  0.1633 -0.0410
   58MOL   C45437048   2.086   0.432   3.297 -0.3710  0.0070  0.3979
   58MOL   C45537049   2.108   0.280   3.342  0.7561 -0.0369 -0.3553
   58MOL   C45637050   2.091   0.187   3.225 -0.1675 -0.3263 -0.2509
   58MOL   O45737051   1.983   0.179   3.172  0.7172 -0.0217  0.0611
   58MOL   N45837052   2.189   0.108   3.191 -0.5401 -0.0020  0.7488
   58MOL   C45937053   2.178   0.013   3.077 -0.0281 -0.7450  0.0791
   58MOL   C46037054   2.288   0.038   2.973  0.1173 -0.8978  0.3338
   58MOL   C46137055   2.404   7.638   2.984  0.5393  0.1132  0.1815
   58MOL   C46237056   2.483   7.672   3.111  0.3834 -0.6313 -0.3631
   58MOL   N46337057   2.587   7.574   3.117 -0.8042 -0.4937 -0.0962
   58MOL   H46437058   2.280   0.678   3.135  0.6044  1.5761  0.4443
   58MOL   H46537059   2.210   0.676   3.297  0.2184  0.4361  0.1617
   58MOL   H46637060   2.151   0.460   3.084 -1.1315  1.0683  0.0606
   58MOL   H46737061   2.278   0.446   3.183  1.0014  1.5413  0.7358
   58MOL   H46837062   1.980   0.443   3.274 -0.4648  0.5445  1.0773
   58MOL   H46937063   2.096   0.484   3.392 -1.6691 -3.6541  2.6280
   58MOL   H47037064   2.024   0.269   3.410 -2.2996  1.0437 -3.7412
   58MOL   H47137065   2.205   0.273   3.391 -0.1085  0.9347  1.5320
   58MOL   H47237066   2.274   0.128   3.241 -1.8790  2.2090  2.2350
   58MOL   H47337067   2.079   0.016   3.031 -0.8632  1.4270  1.8930
   58MOL   H47437068   2.185   7.617   3.126 -0.1972  0.1840  2.0281
   58MOL   H47537069   2.250   0.027   2.871 -2.0474  2.9580  0.6197
   58MOL   H47637070   2.326   0.140   2.977  0.8653 -0.9807 -2.8491
   58MOL   H47737071   2.460   7.637   2.891 -0.3880  0.3982 -0.3888
   58MOL   H47837072   2.362   7.538   2.993  0.3251  0.2238  0.4132
   58MOL   H47937073   2.421   7.680   3.200 -2.0124  1.1834 -2.1209
   58MOL   H48037074   2.526   0.070   3.097 -1.1622  0.2230  0.8544
   58MOL   H48137075   2.672   7.591   3.064 -0.5468 -0.7323  0.2339
   58MOL   C48237076   2.603   7.461   3.202  0.1953  0.2167  0.3185
   58MOL   O48337077   2.524   7.433   3.294 -0.2538  0.3492 -0.2516
   58MOL   C48437078   2.725   7.371   3.175 -0.0096 -0.6583 -0.1179
   58MOL   C48537079   2.694   7.223   3.171  0.3705  0.5433 -0.0331
   58MOL   C48637080   2.617   7.182   3.045 -0.5724  0.1631  0.1758
   58MOL   C48737081   2.578   7.034   3.035 -0.2238 -1.3416  0.5963
   58MOL   C48837082   2.477   7.008   2.920  0.1593  0.3975 -0.4757
   58MOL   O48937083   2.370   7.067   2.930  0.4325 -0.3009 -0.5744
   58MOL   N49037084   2.507   6.923   2.819  0.0769 -0.1220  0.4325
   58MOL   C49137085   2.422   6.911   2.701  0.2851 -0.1899  0.3286
   58MOL   C49237086   2.417   6.759   2.672  0.3343 -0.2929  0.0690
   58MOL   C49337087   2.373   6.669   2.792  0.0583  0.4017  0.1039
   58MOL   C49437088   2.378   6.522   2.745 -0.4667 -0.1708 -0.5063
   58MOL   N49537089   2.276   6.452   2.826  0.3903 -0.0331 -0.4599
   58MOL   H49637090   2.767   7.415   3.085 -0.9004 -1.2615 -0.8447
   58MOL   H49737091   2.798   7.386   3.254  1.6398  2.9078 -2.1816
   58MOL   H49837092   2.781   7.160   3.190  0.6364  0.9190  0.0133
   58MOL   H49937093   2.618   7.196   3.244  0.2357  1.1380  0.0486
   58MOL   H50037094   2.689   7.189   2.963 -0.2500 -1.3099  0.3107
   58MOL   H50137095   2.527   7.241   3.030 -0.7139  0.0640  0.6283
   58MOL   H50237096   2.523   7.006   3.125 -0.3513 -1.4345  0.4882
   58MOL   H50337097   2.655   6.960   3.017  1.6360  0.6991 -0.1334
   58MOL   H50437098   2.600   6.883   2.810 -0.4653 -1.4774  0.7344
   58MOL   H50537099   2.464   6.970   2.619 -0.3457 -1.2557 -0.7877
   58MOL   H50637100   2.319   6.944   2.714 -0.3080 -1.2417 -1.4633
   58MOL   H50737101   2.345   6.730   2.595 -0.2345 -0.8865  0.8216
   58MOL   H50837102   2.515   6.728   2.636  1.1453  2.9429 -0.7445
   58MOL   H50937103   2.269   6.692   2.816 -0.5255  0.2378 -2.1657
   58MOL   H51037104   2.438   6.675   2.879  3.6914 -1.9346 -2.2858
   58MOL   H51137105   2.475   6.483   2.778 -0.4750 -0.0145 -0.2999
   58MOL   H51237106   2.358   6.513   2.638  0.5629 -3.1343 -0.4933
   58MOL   H51337107   2.312   6.375   2.880  0.5020  1.7739  2.1147
   58MOL   C51437108   2.144   6.453   2.818 -0.0153 -0.1361  0.0179
   58MOL   O51537109   2.087   6.537   2.738 -0.0154  0.1909  0.2183
   58MOL   C51637110   2.057   6.353   2.902 -0.3953 -0.0973  0.5572
   58MOL   C51737111   1.988   6.414   3.027 -0.0859 -0.1237  0.0730
   58MOL   C51837112   1.880   6.517   3.009 -0.5046 -0.2442 -0.1006
   58MOL   C51937113   1.775   6.475   2.915  0.1840  0.2158  0.3255
   58MOL   C52037114   1.668   6.584   2.896  0.0830  0.3109  0.3682
   58MOL   O52137115   1.658   6.686   2.965  0.1125  0.1710 -0.0253
   58MOL   N52237116   1.582   6.561   2.800  0.0251  0.5552 -0.1817
   58MOL   C52337117   1.454   6.633   2.765 -0.8176  0.4974 -0.0388
   58MOL   C52437118   1.454   6.696   2.624 -0.0889  0.0495  0.0822
   58MOL   C52537119   1.485   6.590   2.514  0.2166 -0.1021  0.5955
   58MOL   C52637120   1.534   6.673   2.392 -0.1269 -0.6553  0.0027
   58MOL   N52737121   1.503   6.609   2.261  0.1782  0.5272  0.4489
   58MOL   H52837122   1.983   6.303   2.840  1.2180 -2.5201  0.5407
   58MOL   H52937123   2.118   6.266   2.925 -1.7134 -1.3815 -0.6889
   58MOL   H53037124   1.955   6.328   3.085 -1.7128  0.1797 -0.3932
   58MOL   H53137125   2.071   6.442   3.093  3.0329 -1.2657 -3.1798
   58MOL   H53237126   1.917   6.614   2.977 -0.7551  0.0745  0.5550
   58MOL   H53337127   1.851   6.552   3.108  1.4546 -0.9310  0.7445
   58MOL   H53437128   1.732   6.376   2.926  0.1446  0.2430  0.4222
   58MOL   H53537129   1.818   6.470   2.815  1.0230  1.8514  0.5872
   58MOL   H53637130   1.597   6.471   2.756  0.3759  0.0482  0.9695
   58MOL   H53737131   1.432   6.716   2.832 -2.0080  0.9102 -0.9401
   58MOL   H53837132   1.376   6.558   2.779 -0.4068 -0.2773 -1.6898
   58MOL   H53937133   1.361   6.753   2.615 -0.9152 -1.4643 -1.1044
   58MOL   H54037134   1.537   6.766   2.638  0.1661  0.2181 -2.0361
   58MOL   H54137135   1.388   6.545   2.492  0.1844 -0.1072  0.7491
   58MOL   H54237136   1.565   6.517   2.530  0.6365  0.4611  1.0933
   58MOL   H54337137   1.640   6.697   2.402  0.2358 -2.3957  0.3602
   58MOL   H54437138   1.481   6.768   2.386  0.4992 -0.3003 -0.0381
   58MOL   H54537139   1.411   6.626   2.221 -0.0910 -0.4524  0.6337
   58MOL   C54637140   1.592   6.544   2.188 -0.0417 -0.0195  0.3165
   58MOL   O54737141   1.707   6.527   2.224 -0.5986  0.5743  0.3890
   58MOL   C54837142   1.554   6.503   2.048 -0.1886  0.4976 -0.0544
   58MOL   C54937143   1.585   6.599   1.934  0.3809  0.4564 -0.4522
   58MOL   C55037144   1.616   6.528   1.802 -0.6633 -0.8562  0.5025
   58MOL   C55137145   1.640   6.594   1.659 -0.3812 -0.1033 -1.5017
   58MOL   C55237146   1.784   6.646   1.645 -0.0513  0.7498 -0.4873
   58MOL   O55337147   1.857   6.686   1.739  0.1451 -0.4247  0.1019
   58MOL   N55437148   1.834   6.649   1.524  0.8119 -0.0941 -0.3916
   58MOL   C55537149   1.967   6.700   1.478 -0.3651  0.1667  0.7371
   58MOL   C55637150   1.983   6.669   1.323  0.1698 -0.5710  0.4029
   58MOL   C55737151   1.919   6.773   1.225 -0.7156  0.9675 -0.2788
   58MOL   C55837152   1.924   6.728   1.078 -0.1801 -0.5195 -0.0745
   58MOL   N55937153   1.851   6.820   0.990 -0.7826  0.3158  0.3190
   58MOL   H56037154   1.614   6.413   2.029 -0.6427 -0.0606  1.0887
   58MOL   H56137155   1.459   6.451   2.043  1.8118 -3.2164 -2.3460
   58MOL   H56237156   1.510   6.677   1.920 -1.2358 -1.2170 -1.5121
   58MOL   H56337157   1.672   6.658   1.959  2.0604 -2.0217 -0.3236
   58MOL   H56437158   1.527   6.470   1.779 -0.6249 -1.1538  1.0782
   58MOL   H56537159   1.702   6.464   1.823  0.2089  0.7710  2.0874
   58MOL   H56637160   1.574   6.680   1.651  0.3374  0.6208 -0.0060
   58MOL   H56737161   1.622   6.526   1.576 -1.7562 -0.4035 -0.9712
   58MOL   H56837162   1.779   6.605   1.452  0.1298 -1.4622  0.9316
   58MOL   H56937163   2.044   6.642   1.528 -2.2001 -2.6685  0.3963
   58MOL   H57037164   1.988   6.803   1.508  1.6286 -0.3249  1.0854
   58MOL   H57137165   2.088   6.646   1.301  0.5818  1.1966  0.4316
   58MOL   H57237166   1.941   6.574   1.291  0.5929 -0.6032 -0.0606
   58MOL   H57337167   1.988   6.856   1.239  1.0795 -0.2873 -1.5459
   58MOL   H57437168   1.816   6.791   1.254 -0.9466  0.2230 -0.6431
   58MOL   H57537169   1.898   6.625   1.055 -1.2232 -0.2366 -0.1854
   58MOL   H57637170   2.027   6.732   1.043 -0.2063 -1.9288 -0.3315
   58MOL   H57737171   1.847   6.917   1.019  1.6112  0.3831  0.4862
   58MOL   C57837172   1.782   6.791   0.880 -0.5441 -0.4517 -0.2942
   58MOL   O57937173   1.792   6.676   0.833  0.2034  0.2346 -0.1426
   58MOL   C58037174   1.702   6.900   0.802  0.4357 -0.3520  0.3609
   58MOL   C58137175   1.737   6.909   0.650 -0.5104 -0.1640  0.2990
   58MOL   C58237176   1.673   7.030   0.575  0.0982  0.1085 -0.1182
   58MOL   C58337177   1.699   7.176   0.632  0.0234  0.4347 -0.1333
   58MOL   C58437178   1.843   7.222   0.644 -0.6083  0.0160 -0.0330
   58MOL   O58537179   1.934   7.140   0.651  0.0397  0.8000 -0.0421
   58MOL   N58637180   1.862   7.356   0.635  0.4019  0.2683 -0.0219
   58MOL   C58737181   1.988   7.431   0.610 -0.6519  0.2246 -0.4646
   58MOL   C58837182   2.025   7.450   0.457  0.2483  0.6174 -0.4855
   58MOL   C58937183   2.153   7.535   0.446  0.7957 -0.0383  0.5846
   58MOL   C59037184   2.154   7.619   0.319  0.8350  0.2299 -0.3483
   58MOL   N59137185   2.282   7.683   0.303 -0.8515 -0.2649 -0.3494
   58MOL   H59237186   1.597   6.872   0.814 -0.5957  3.0037 -0.2257
   58MOL   H59337187   1.718   6.995   0.854  2.2256  0.5327 -1.7338
   58MOL   H59437188   1.845   6.920   0.657 -0.5278  1.4388 -1.6086
   58MOL   H59537189   1.716   6.820   0.591 -1.2269 -0.9168  1.6464
   58MOL   H59637190   1.566   7.023   0.553 -0.2119 -0.1974  1.4544
   58MOL   H59737191   1.716   7.032   0.475 -0.4622  0.9802 -0.3557
   58MOL   H59837192   1.654   7.178   0.731  2.4568  0.0962  1.0254
   58MOL   H59937193   1.649   7.247   0.567  1.2085 -1.1596 -2.8587
   58MOL   H60037194   1.786   7.413   0.603  1.1957  2.0825  1.2165
   58MOL   H60137195   2.072   7.390   0.666 -0.0266  0.4413 -1.2346
   58MOL   H60237196   1.980   7.531   0.653  0.2570  1.3015 -2.7461
   58MOL   H60337197   2.037   7.359   0.399  0.6217  1.4334 -1.7139
   58MOL   H60437198   1.948   7.512   0.411  1.5294  2.6806  0.0903
   58MOL   H60537199   2.236   7.465   0.452  2.7131  2.1887  0.9776
   58MOL   H60637200   2.149   7.611   0.525  2.4239  0.0082  0.6282
   58MOL   H60737201   2.068   7.685   0.315  1.7036  1.3135 -1.3209
   58MOL   H60837202   2.149   7.546   0.237 -1.4419 -0.0739  0.0280
   58MOL   H60937203   2.365   7.626   0.297 -0.4109 -0.0353  2.7168
   58MOL   C61037204   2.304   0.111   0.277 -0.6825 -0.5473  0.3479
   58MOL   O61137205   2.422   0.148   0.262 -0.0512  0.4902  0.4641
   58MOL   C61237206   2.186   0.213   0.246  0.2868 -0.0142 -0.7605
   58MOL   C61337207   2.153   0.223   0.096 -0.0324 -0.0567 -0.4309
   58MOL   C61437208   2.268   0.267   7.700  0.2858  0.1308  0.3705
   58MOL   C61537209   2.227   0.289   7.559  0.1758  0.5144  0.2928
   58MOL   C61637210   2.175   0.154   7.502 -0.1235  0.8560 -0.0919
   58MOL   O61737211   2.251   0.055   7.480  0.2610  0.5031  0.3140
   58MOL   N61837212   2.043   0.148   7.475  0.0397 -0.0953 -0.4479
   58MOL   C61937213   1.981   0.039   7.389 -0.3019 -0.0346 -0.0972
   58MOL   C62037214   1.891   7.651   7.474 -0.7446  0.2792  0.3054
   58MOL   C62137215   1.834   7.526   7.391  0.6362 -0.3573 -0.4375
   58MOL   C62237216   1.748   7.425   7.466  0.5891  0.4291  0.2196
   58MOL   N62337217   1.685   7.346   7.363  0.4804 -0.0449 -0.1158
   58MOL   H62437218   2.101   0.185   0.308  0.9413 -0.3356 -0.0046
   58MOL   H62537219   2.218   0.311   0.283 -0.6405  0.1426 -0.3618
   58MOL   H62637220   2.121   0.122   0.071 -1.6712  0.5409 -0.7820
   58MOL   H62737221   2.067   0.289   0.089 -0.2794 -0.2972  0.3312
   58MOL   H62837222   2.345   0.190   0.006 -1.4807 -1.7171  0.1060
   58MOL   H62937223   2.324   0.353   0.035  1.0094 -0.9732  1.9352
   58MOL   H63037224   2.307   0.328   7.496 -0.4639 -1.3148 -1.6924
   58MOL   H63137225   2.148   0.364   7.565 -0.1900  0.1678 -0.1612
   58MOL   H63237226   1.981   0.227   7.483 -1.6378 -1.4463  0.1095
   58MOL   H63337227   2.055   7.677   7.339 -0.7107  0.4059 -1.2897
   58MOL   H63437228   1.926   0.097   7.314 -0.4753  0.4357  0.3917
   58MOL   H63537229   1.940   7.602   7.558 -1.1723 -0.7085 -0.0154
   58MOL   H63637230   1.801   0.002   7.508 -0.8386  1.1290 -1.1997
   58MOL   H63737231   1.914   7.466   7.347  2.6727  0.0151  2.6480
   58MOL   H63837232   1.777   7.568   7.308 -2.0654 -2.8420  0.0574
   58MOL   H63937233   1.675   7.481   7.524 -0.1369 -0.3586  0.0857
   58MOL   H64037234   1.804   7.354   7.527  0.6005 -0.4026 -0.7460
   58MOL   H64137235   1.643   7.406   7.294  0.8130  0.0674 -0.2183
   58MOL   H64237236   1.597   7.314   7.401  0.6395 -3.0818 -2.0715
   59MOL     C137237   1.618   2.581   1.619  0.9155 -0.3280  0.3108
   59MOL     O237238   1.527   2.504   1.622  0.4228  0.1094  0.1450
   59MOL     C337239   1.599   2.720   1.559 -0.2452 -0.9406 -0.0043
   59MOL     C437240   1.521   2.732   1.439  0.2179  0.8063 -0.2564
   59MOL     C537241   1.515   2.882   1.376 -0.6567 -0.2837 -0.6036
   59MOL     C637242   1.504   2.892   1.223  0.6737 -0.2846 -0.0586
   59MOL     C737243   1.394   2.997   1.182 -0.2537 -0.4386  0.8279
   59MOL     O837244   1.276   2.972   1.203 -0.2119 -0.1353 -0.7264
   59MOL     N937245   1.425   3.117   1.124 -0.5508 -0.1947 -0.1128
   59MOL    C1037246   1.336   3.224   1.083  0.1591  0.2410  0.3914
   59MOL    C1137247   1.338   3.339   1.190 -0.6166  0.4350 -0.0888
   59MOL    C1237248   1.242   3.453   1.162 -0.7258  0.6236  0.0999
   59MOL    C1337249   1.300   3.557   1.069 -0.0207  0.8273  0.0179
   59MOL    N1437250   1.208   3.665   1.073 -0.0697 -0.0767 -0.6125
   59MOL    H1537251   1.552   2.787   1.631  2.6550  0.1776  0.9017
   59MOL    H1637252   1.701   2.756   1.543 -0.9672  1.1019 -0.1982
   59MOL    H1737253   1.562   2.661   1.367  2.7185  2.0577 -0.1392
   59MOL    H1837254   1.419   2.699   1.457 -0.3191  2.0410 -0.9296
   59MOL    H1937255   1.607   2.938   1.394 -1.2978  1.5231 -2.6731
   59MOL    H2037256   1.427   2.934   1.415 -0.3909 -0.4936  0.2989
   59MOL    H2137257   1.443   2.804   1.203  1.8360 -1.0181 -0.3746
   59MOL    H2237258   1.595   2.885   1.163  1.8090  0.4361  1.5275
   59MOL    H2337259   1.515   3.126   1.079 -0.6077  0.2919 -0.1409
   59MOL    H2437260   1.241   3.181   1.054  1.1910 -2.4105  0.7872
   59MOL    H2537261   1.373   3.264   0.989 -0.2928  0.8303  0.4609
   59MOL    H2637262   1.319   3.282   1.281  1.0043 -0.0998 -0.0700
   59MOL    H2737263   1.440   3.373   1.208 -0.5138  0.2751 -0.3758
   59MOL    H2837264   1.218   3.504   1.255 -1.5024  2.4392 -1.0686
   59MOL    H2937265   1.142   3.422   1.132 -0.1806  0.2747 -1.4185
   59MOL    H3037266   1.292   3.524   0.965 -0.1598 -1.3045  0.6890
   59MOL    H3137267   1.397   3.594   1.100 -0.6117  1.8265  0.7339
   59MOL    H3237268   1.109   3.650   1.075 -0.1311  0.3863  0.2852
   59MOL    H3337269   1.718   2.556   1.657  1.4148  0.6544 -0.3392
   59MOL    C3437270   1.245   3.783   1.021  0.3088  0.1464 -0.3903
   59MOL    O3537271   1.357   3.809   0.985  0.0268  0.1176  0.5246
   59MOL    C3637272   1.134   3.894   1.008 -0.7826  0.7256  0.5780
   59MOL    C3737273   1.039   3.874   0.892  0.1588 -0.0288  0.3632
   59MOL    C3837274   1.074   3.963   0.770 -0.1290  0.7076  0.7799
   59MOL    C3937275   1.208   3.922   0.694 -0.0276 -0.2646  0.7505
   59MOL    C4037276   1.233   3.777   0.658 -0.1552 -0.0207 -0.4243
   59MOL    O4137277   1.141   3.700   0.628 -0.1859  0.2601 -0.1680
   59MOL    N4237278   1.367   3.751   0.669 -0.1383  0.0743 -0.2993
   59MOL    C4337279   1.425   3.615   0.671 -0.1189 -0.1152 -0.1951
   59MOL    C4437280   1.570   3.633   0.636 -0.4068  0.2515  0.0675
   59MOL    C4537281   1.606   3.701   0.498 -0.0677  0.2043  0.2481
   59MOL    C4637282   1.750   3.750   0.498 -0.0401 -0.0759  0.0785
   59MOL    N4737283   1.777   3.863   0.588 -0.1083 -0.4521 -0.0653
   59MOL    H4837284   1.078   3.899   1.101 -0.7855 -0.8726  0.6765
   59MOL    H4937285   1.181   3.992   1.004  0.5252  0.1725  1.7875
   59MOL    H5037286   1.033   3.768   0.867  0.7639 -0.7317  3.0396
   59MOL    H5137287   0.946   3.919   0.928  0.2960  0.5137  0.0448
   59MOL    H5237288   1.087   4.068   0.797  1.3018  0.6589  0.2747
   59MOL    H5337289   0.984   3.962   0.707  0.4728 -2.7257 -0.0970
   59MOL    H5437290   1.283   3.947   0.769  0.7156 -1.5855  0.4527
   59MOL    H5537291   1.221   3.988   0.608 -0.6019 -1.2052 -0.0654
   59MOL    H5637292   1.428   3.828   0.691  0.5696 -1.1239  1.9933
   59MOL    H5737293   1.371   3.539   0.614  1.0105 -1.3643  0.3506
   59MOL    H5837294   1.430   3.585   0.776 -1.7735  0.1696 -0.0241
   59MOL    H5937295   1.617   3.691   0.715  0.3109 -2.0576  1.3811
   59MOL    H6037296   1.628   3.542   0.650  0.8707  1.0319 -0.1303
   59MOL    H6137297   1.525   3.766   0.466 -0.1946 -0.3734 -0.6182
   59MOL    H6237298   1.616   3.620   0.426  1.5037 -0.3852  1.0925
   59MOL    H6337299   1.799   3.780   0.405  1.2883  2.6551  1.6005
   59MOL    H6437300   1.815   3.669   0.532  1.7146  2.0966  2.0325
   59MOL    H6537301   1.701   3.911   0.635  0.3917 -2.4926  3.0002
   59MOL    C6637302   1.900   3.899   0.627 -0.0832 -0.2901  0.6621
   59MOL    O6737303   2.003   3.859   0.579  0.0831 -0.0885 -0.2191
   59MOL    C6837304   1.905   3.996   0.743 -0.5098 -0.6611  0.0091
   59MOL    C6937305   2.025   4.103   0.735 -0.0782 -0.2163  0.5455
   59MOL    C7037306   2.050   4.156   0.873 -0.1013  0.0500 -0.1461
   59MOL    C7137307   1.942   4.252   0.923  0.7748 -0.0419 -0.0317
   59MOL    C7237308   1.960   4.401   0.904 -0.4973  0.5505  0.4130
   59MOL    O7337309   1.971   4.446   0.786 -0.3090  0.4268  0.2129
   59MOL    N7437310   1.968   4.489   1.009 -0.4689 -0.1433 -0.2940
   59MOL    C7537311   2.021   4.623   1.001  0.4964 -1.0776  0.0686
   59MOL    C7637312   1.921   4.721   1.071 -0.0663 -0.5043 -0.1282
   59MOL    C7737313   1.968   4.864   1.069  0.0720  0.1030  0.2160
   59MOL    C7837314   1.878   4.968   1.137  0.3360  0.0858 -0.5030
   59MOL    N7937315   1.737   4.957   1.104  0.3091  0.0768  0.4243
   59MOL    H8037316   1.810   4.050   0.750 -1.2541 -2.0559  0.8268
   59MOL    H8137317   1.915   3.937   0.834 -1.3752  0.5972  0.9466
   59MOL    H8237318   2.111   4.053   0.690 -0.3638 -0.9877  0.8599
   59MOL    H8337319   2.015   4.191   0.671  1.2349 -0.8471 -0.5617
   59MOL    H8437320   2.148   4.204   0.884  0.6526 -1.9202  2.1078
   59MOL    H8537321   2.074   4.079   0.945 -0.6825  0.2988  0.3163
   59MOL    H8637322   1.917   4.228   1.027 -2.2526  3.3242  0.1126
   59MOL    H8737323   1.847   4.234   0.873  0.1499 -0.5391  1.3027
   59MOL    H8837324   1.962   4.457   1.105 -0.6857  1.1219  0.1207
   59MOL    H8937325   2.055   4.653   0.901  2.0304 -0.7026  0.6760
   59MOL    H9037326   2.112   4.615   1.061 -0.1098  0.3193  1.2076
   59MOL    H9137327   1.822   4.718   1.025  0.8982 -3.0298 -2.1883
   59MOL    H9237328   1.918   4.695   1.177  2.6730  1.4115  0.4497
   59MOL    H9337329   1.966   4.909   0.970  0.0520  1.3347  0.7596
   59MOL    H9437330   2.071   4.882   1.100  1.1514 -2.7892 -1.5782
   59MOL    H9537331   1.920   5.064   1.106 -1.9049  0.8856 -1.1803
   59MOL    H9637332   1.890   4.950   1.244  0.8784  0.0082 -0.5729
   59MOL    H9737333   1.699   4.867   1.080  0.2894  0.2929 -0.3690
   59MOL    C9837334   1.646   5.058   1.092 -0.7174 -0.2633 -0.2273
   59MOL    O9937335   1.677   5.177   1.112  0.3403  0.3934  1.1136
   59MOL   C10037336   1.502   5.022   1.059 -0.8919 -0.3582 -0.5561
   59MOL   C10137337   1.398   5.048   1.168 -0.3015  0.8478 -0.4728
   59MOL   C10237338   1.355   5.190   1.171 -0.1098 -0.1721  0.2247
   59MOL   C10337339   1.299   5.243   1.302 -0.3746 -0.3697 -0.3766
   59MOL   C10437340   1.154   5.215   1.326  0.1012 -0.8144 -0.4441
   59MOL   O10537341   1.076   5.228   1.232 -0.3206  0.8794  0.0691
   59MOL   N10637342   1.118   5.167   1.445  0.0126 -0.8674  0.2579
   59MOL   C10737343   0.983   5.111   1.462  0.5369  0.0925  1.1689
   59MOL   C10837344   0.974   5.008   1.572  0.4404 -0.6349 -0.1760
   59MOL   C10937345   1.087   4.901   1.569  0.1418 -0.5894  0.7959
   59MOL   C11037346   1.063   4.811   1.444 -0.4145  0.4703 -0.0528
   59MOL   N11137347   1.159   4.700   1.432 -0.0438  0.4720  0.3937
   59MOL   H11237348   1.476   5.071   0.966  0.9006 -2.7809 -2.3891
   59MOL   H11337349   1.500   4.914   1.046  1.1576 -0.6073  0.9937
   59MOL   H11437350   1.314   4.979   1.159  0.8373 -0.8446  1.3051
   59MOL   H11537351   1.451   5.023   1.261  0.3559 -1.1538 -1.3638
   59MOL   H11637352   1.295   5.221   1.086  0.6478  0.6571 -0.0092
   59MOL   H11737353   1.452   5.239   1.170 -0.4927  0.6147  1.0243
   59MOL   H11837354   1.318   5.351   1.301  0.5835 -0.5292  0.1079
   59MOL   H11937355   1.366   5.213   1.382 -1.1755  0.9043  0.8003
   59MOL   H12037356   1.191   5.149   1.512  2.4785  2.7586 -1.2805
   59MOL   H12137357   0.960   5.056   1.371  1.1202 -1.3252  1.8690
   59MOL   H12237358   0.899   5.179   1.478 -0.9657 -1.4399 -0.0684
   59MOL   H12337359   0.969   5.059   1.668  0.9823 -0.5214 -0.2080
   59MOL   H12437360   0.882   4.957   1.542 -0.1459  1.2630 -1.6827
   59MOL   H12537361   1.076   4.848   1.664  3.3803  0.3325  1.7470
   59MOL   H12637362   1.183   4.950   1.580  0.6070 -0.9559 -1.3864
   59MOL   H12737363   1.054   4.872   1.354  0.3180  1.4008  0.4986
   59MOL   H12837364   0.965   4.770   1.468 -0.3137 -0.1133 -0.6289
   59MOL   H12937365   1.215   4.680   1.514 -1.6528 -0.9045  1.2025
   59MOL   C13037366   1.151   4.611   1.325 -0.1490  0.6186 -0.3709
   59MOL   O13137367   1.073   4.630   1.230 -0.1660 -0.2759 -0.1213
   59MOL   C13237368   1.245   4.493   1.337  0.1243 -0.2537  0.0043
   59MOL   C13337369   1.169   4.371   1.373  0.5426  0.9620  0.7815
   59MOL   C13437370   1.222   4.231   1.331 -0.4098  0.3146  0.2610
   59MOL   C13537371   1.213   4.218   1.177  0.4268  0.5930  0.3726
   59MOL   C13637372   1.070   4.196   1.138  0.3176 -0.3114 -0.0008
   59MOL   O13737373   1.005   4.115   1.211 -0.1969  0.2624 -0.1838
   59MOL   N13837374   1.013   4.267   1.040 -0.1470 -0.5335  0.2111
   59MOL   C13937375   0.873   4.268   1.005 -0.1127  0.5084 -0.7177
   59MOL   C14037376   0.832   4.412   1.022  0.2876  0.2561 -0.3562
   59MOL   C14137377   0.891   4.523   0.933 -0.2849 -0.3870  0.5411
   59MOL   C14237378   0.804   4.647   0.925 -0.2571 -0.1781  0.2782
   59MOL   N14337379   0.827   4.726   1.045 -0.2372 -0.4893 -0.9248
   59MOL   H14437380   1.313   4.471   1.254  1.2253 -1.8222  1.2917
   59MOL   H14537381   1.315   4.508   1.419  1.3669  0.7170 -1.1981
   59MOL   H14637382   1.172   4.368   1.482  0.2015  1.1333  0.7975
   59MOL   H14737383   1.063   4.384   1.352  0.9283  1.6078 -0.8600
   59MOL   H14837384   1.181   4.144   1.382  2.6936 -0.5922  1.3210
   59MOL   H14937385   1.326   4.223   1.362 -0.1691  0.8387 -0.3850
   59MOL   H15037386   1.265   4.127   1.145 -4.3708 -1.1531 -3.0203
   59MOL   H15137387   1.248   4.304   1.121 -1.0718  0.9984  0.0518
   59MOL   H15237388   1.069   4.334   0.989  1.2050 -2.4314 -0.8208
   59MOL   H15337389   0.820   4.207   1.079  0.8919  1.1898  0.5733
   59MOL   H15437390   0.858   4.228   0.905 -2.4592 -2.4580  0.7264
   59MOL   H15537391   0.730   4.409   0.985 -0.1576  4.0465  0.3285
   59MOL   H15637392   0.838   4.434   1.128  1.1012  3.0899 -0.9310
   59MOL   H15737393   0.911   4.496   0.830 -0.3659  0.0350  0.4119
   59MOL   H15837394   0.989   4.547   0.974 -0.3476  0.9986 -0.0963
   59MOL   H15937395   0.698   4.623   0.911 -0.2575 -1.4082  2.1348
   59MOL   H16037396   0.818   4.706   0.834  0.5512 -0.6707  0.0803
   59MOL   H16137397   0.895   4.688   1.109 -1.6628  0.5238  1.2293
   59MOL   C16237398   0.750   4.827   1.095  0.5628 -0.5073  0.0439
   59MOL   O16337399   0.639   4.865   1.049  0.3676 -0.4047 -0.2329
   59MOL   C16437400   0.787   4.882   1.230 -1.4508  0.2809 -0.2387
   59MOL   C16537401   0.664   4.909   1.316 -0.5825  0.3255  0.5200
   59MOL   C16637402   0.592   4.787   1.373  0.4798 -0.5829 -0.0749
   59MOL   C16737403   0.459   4.756   1.308  0.7765 -0.4878 -0.6244
   59MOL   C16837404   0.342   4.851   1.317 -0.0116 -0.6225  0.1285
   59MOL   O16937405   0.322   4.913   1.426  0.3703  0.1675 -0.0847
   59MOL   N17037406   0.269   4.862   1.207  0.3953 -0.7569  0.0327
   59MOL   C17137407   0.156   4.945   1.198  0.7000  0.0774 -0.3397
   59MOL   C17237408   0.038   4.864   1.135 -0.5353  0.2920  0.0062
   59MOL   C17337409   7.677   4.749   1.216 -0.1619 -0.4400 -0.0810
   59MOL   C17437410   7.586   4.787   1.333 -0.0252 -0.2229 -0.8270
   59MOL   N17537411   7.529   4.663   1.391 -0.0436 -0.4684  0.1233
   59MOL   H17637412   0.862   4.821   1.280 -0.3175  0.7002 -1.3915
   59MOL   H17737413   0.834   4.980   1.213 -0.2312 -0.2411  0.0655
   59MOL   H17837414   0.693   4.974   1.399  1.1819  0.3326 -0.0772
   59MOL   H17937415   0.598   4.968   1.252  0.0193 -0.7542 -1.1206
   59MOL   H18037416   0.583   4.809   1.479  1.4913 -1.9531  0.3015
   59MOL   H18137417   0.655   4.700   1.356 -0.7880 -1.5255 -0.0222
   59MOL   H18237418   0.427   4.657   1.340 -0.0239 -1.1023 -3.1785
   59MOL   H18337419   0.472   4.741   1.201  1.5433  1.3476 -0.8115
   59MOL   H18437420   0.284   4.798   1.130  1.1383  0.8192 -1.1437
   59MOL   H18537421   0.184   5.022   1.125 -0.8387 -0.0319 -1.0733
   59MOL   H18637422   0.131   4.988   1.295  0.3798  1.9005 -1.2026
   59MOL   H18737423   7.678   4.948   1.101  0.4036  0.9791  0.0041
   59MOL   H18837424   0.078   4.810   1.049  1.4049 -0.0618  1.0984
   59MOL   H18937425   0.049   4.680   1.258 -1.7147 -1.1127  1.5822
   59MOL   H19037426   7.624   4.687   1.143 -0.7848  0.5733 -0.4897
   59MOL   H19137427   7.511   4.855   1.293  0.5445  1.0180  0.2102
   59MOL   H19237428   7.645   4.834   1.411 -0.3038 -0.8492 -0.2326
   59MOL   H19337429   7.584   4.578   1.394  2.4642  1.0790 -0.5240
   59MOL   C19437430   7.408   4.659   1.452  0.7330 -0.2968  0.0100
   59MOL   O19537431   7.332   4.758   1.452 -0.1386  0.3573 -0.3091
   59MOL   C19637432   7.383   4.540   1.536  0.4468 -0.3630 -0.2627
   59MOL   C19737433   7.456   4.553   1.675 -0.4888 -0.2269 -0.0937
   59MOL   C19837434   7.446   4.437   1.770  0.8973 -0.6072 -0.4875
   59MOL   C19937435   7.534   4.458   1.894 -0.0617 -0.0658 -0.4373
   59MOL   C20037436   7.485   4.566   1.995 -0.0670  0.0473 -0.1211
   59MOL   O20137437   7.392   4.541   2.075 -0.1525 -0.4209  0.3384
   59MOL   N20237438   7.551   4.680   2.000  0.3443  0.0714  0.7936
   59MOL   C20337439   7.500   4.804   2.059  0.6480 -0.0854 -0.2893
   59MOL   C20437440   7.510   4.900   1.945 -0.0127 -0.4157  0.7455
   59MOL   C20537441   7.468   5.040   1.987 -0.6901  0.2214  0.5025
   59MOL   C20637442   7.486   5.140   1.874 -0.4243  0.2061  0.1280
   59MOL   N20737443   7.425   5.270   1.892  0.2665  0.3970  0.7019
   59MOL   H20837444   7.276   4.523   1.546  0.6214 -0.7403  0.9659
   59MOL   H20937445   7.416   4.461   1.469 -1.8515 -0.7642 -0.9727
   59MOL   H21037446   7.560   4.578   1.654  0.1909 -0.7349  2.5253
   59MOL   H21137447   7.416   4.639   1.728 -1.6745 -0.5347 -0.4815
   59MOL   H21237448   7.473   4.348   1.712  2.7870  0.8824 -1.9267
   59MOL   H21337449   7.340   4.420   1.788  0.8188  0.1170 -0.2759
   59MOL   H21437450   7.631   4.485   1.852  1.0519  0.5673  2.3931
   59MOL   H21537451   7.546   4.365   1.950 -0.6242  0.5491  0.7241
   59MOL   H21637452   7.635   4.671   1.944 -0.9028  0.3869 -1.1939
   59MOL   H21737453   7.555   4.836   2.147 -0.1983 -0.3595  0.3500
   59MOL   H21837454   7.394   4.796   2.085  0.8998  0.4839  0.9139
   59MOL   H21937455   7.613   4.907   1.910 -0.8510  2.8514 -1.2852
   59MOL   H22037456   7.452   4.871   1.858  1.2822 -0.9629  0.0512
   59MOL   H22137457   7.534   5.080   2.064  0.1571  0.7888 -0.5097
   59MOL   H22237458   7.363   5.035   2.017 -0.6382  0.8413  0.7973
   59MOL   H22337459   7.450   5.094   1.782  1.8034  1.0171 -1.2012
   59MOL   H22437460   7.593   5.155   1.857 -0.3727  0.7232  0.8755
   59MOL   H22537461   7.338   5.275   1.840  0.0377 -2.7394  0.7144
   59MOL   C22637462   7.474   5.374   1.956 -0.7796 -0.0867  0.0154
   59MOL   O22737463   7.595   5.375   1.995 -0.1168  0.0169 -0.0270
   59MOL   C22837464   7.396   5.506   1.956 -0.8147  0.5472  0.0765
   59MOL   C22937465   7.478   5.632   1.927 -0.4128 -0.1663 -0.0101
   59MOL   C23037466   7.537   5.637   1.790 -0.9281 -0.0526  1.1111
   59MOL   C23137467   7.444   5.631   1.671  0.3710  0.6186 -0.5848
   59MOL   C23237468   7.530   5.669   1.548 -0.7197 -0.1259  0.2037
   59MOL   O23337469   7.598   5.587   1.481 -0.3080  0.1063  0.1269
   59MOL   N23437470   7.528   5.800   1.524  0.0454 -0.3847  0.0508
   59MOL   C23537471   7.592   5.858   1.407 -0.6785  0.5375  0.2324
   59MOL   C23637472   0.031   5.895   1.439 -0.0612 -0.7705  0.2109
   59MOL   C23737473   0.046   6.002   1.550  0.8084  0.0350 -0.0444
   59MOL   C23837474   0.002   6.150   1.517 -0.2651 -0.1746 -0.2387
   59MOL   N23937475   7.699   6.232   1.639  0.3626 -0.0040  0.3799
   59MOL   H24037476   7.317   5.497   1.881  0.4851  0.0272 -1.2442
   59MOL   H24137477   7.348   5.521   2.053  0.0131  4.8098 -0.0874
   59MOL   H24237478   7.415   5.718   1.948 -1.4316 -1.4949  2.5625
   59MOL   H24337479   7.561   5.644   1.996 -1.4746 -0.0681  1.2599
   59MOL   H24437480   7.604   5.550   1.791 -1.6015 -0.6359 -0.7765
   59MOL   H24537481   7.593   5.730   1.780 -0.9400 -0.3522 -2.4593
   59MOL   H24637482   7.366   5.703   1.695 -0.1820 -0.8080  1.9893
   59MOL   H24737483   7.388   5.538   1.661 -0.0553  0.9495 -1.2632
   59MOL   H24837484   7.480   5.864   1.586 -2.0361  0.1147 -2.0258
   59MOL   H24937485   7.526   5.938   1.375 -1.2667  0.2396  0.7027
   59MOL   H25037486   7.606   5.790   1.323  0.3295  1.4136 -0.3184
   59MOL   H25137487   0.087   5.809   1.475 -0.1774 -1.4663 -1.2471
   59MOL   H25237488   0.064   5.945   1.348 -1.4508 -0.4236 -0.1145
   59MOL   H25337489   0.148   6.020   1.584  1.1535 -1.0958 -0.4493
   59MOL   H25437490   7.695   5.950   1.631 -2.2437  0.0170 -1.9273
   59MOL   H25537491   7.603   6.156   1.474 -0.3209 -0.9795 -0.2263
   59MOL   H25637492   0.071   6.189   1.442  1.0263  1.6427  1.8163
   59MOL   H25737493   7.680   6.171   1.716 -0.0860  0.2707  0.4866
   59MOL   C25837494   0.023   6.363   1.649 -1.0332  0.0833  0.4803
   59MOL   O25937495   0.055   6.434   1.552 -0.4020  0.3736  0.0349
   59MOL   C26037496   0.001   6.425   1.789 -0.2731  0.4098 -0.0173
   59MOL   C26137497   0.116   6.490   1.864 -0.2248 -0.6260 -0.3696
   59MOL   C26237498   0.202   6.394   1.942 -0.6040  0.6462 -0.2279
   59MOL   C26337499   0.146   6.364   2.083 -0.4522 -0.3820 -0.3177
   59MOL   C26437500   0.024   6.275   2.097  0.0616  0.5221  0.2337
   59MOL   O26537501   7.618   6.317   2.127  0.2121 -0.4034  0.1143
   59MOL   N26637502   0.045   6.144   2.071 -0.0882 -0.1970  0.6051
   59MOL   C26737503   7.642   6.035   2.055 -0.3904 -0.0585 -0.4389
   59MOL   C26837504   7.658   5.939   2.173  0.0076  0.0445 -0.1362
   59MOL   C26937505   0.096   5.867   2.178  0.2439  0.3366  0.0703
   59MOL   C27037506   0.147   5.799   2.318 -0.1302  0.8864 -0.2495
   59MOL   N27137507   0.256   5.704   2.303 -0.3470  0.5856  0.3761
   59MOL   H27237508   7.623   6.498   1.772 -1.9006 -1.4618 -0.7439
   59MOL   H27337509   7.658   6.350   1.856  0.7102  0.3978  0.6247
   59MOL   H27437510   0.182   6.553   1.803  1.1049 -0.6717  1.0056
   59MOL   H27537511   0.065   6.568   1.920  0.0249  0.1379 -1.1834
   59MOL   H27637512   0.306   6.424   1.958 -0.3380 -1.2784  1.9877
   59MOL   H27737513   0.205   6.300   1.887  1.3980  0.2627  0.4943
   59MOL   H27837514   0.137   6.456   2.139 -1.3928  0.4653 -1.8045
   59MOL   H27937515   0.228   6.329   2.145 -0.7887 -0.2301  0.2148
   59MOL   H28037516   0.140   6.110   2.060 -0.0959 -0.2269  0.6330
   59MOL   H28137517   7.661   5.980   1.962  1.3638 -0.4689  0.1490
   59MOL   H28237518   7.542   6.078   2.055  0.5802  2.3243  1.4475
   59MOL   H28337519   7.645   5.994   2.266 -0.3222  1.6366 -1.0926
   59MOL   H28437520   7.585   5.859   2.184  1.1335 -1.2084 -1.5355
   59MOL   H28537521   0.167   5.942   2.144  0.6811  0.9094  2.1977
   59MOL   H28637522   0.095   5.791   2.100  0.4606 -0.1046  0.5010
   59MOL   H28737523   0.058   5.746   2.352  1.2980 -0.5583  1.3285
   59MOL   H28837524   0.182   5.871   2.392  0.8675  0.6425 -0.4835
   59MOL   H28937525   0.340   5.725   2.355  0.2469  1.2620 -0.8330
   59MOL   C29037526   0.240   5.583   2.248  0.2247  0.2575 -0.2700
   59MOL   O29137527   0.138   5.557   2.186 -0.3651 -0.2544  0.2033
   59MOL   C29237528   0.350   5.484   2.270 -0.6510 -0.4748  0.0501
   59MOL   C29337529   0.426   5.430   2.146  0.5053 -0.0088 -0.5539
   59MOL   C29437530   0.393   5.285   2.086 -0.4897  0.0442 -0.6020
   59MOL   C29537531   0.259   5.270   2.008 -0.6445 -0.9204 -0.0797
   59MOL   C29637532   0.264   5.336   1.874  0.2450 -0.6956  0.7041
   59MOL   O29737533   0.324   5.281   1.783 -0.3117 -0.0097 -0.0337
   59MOL   N29837534   0.212   5.463   1.872 -0.1702 -0.1632  0.4282
   59MOL   C29937535   0.236   5.556   1.765 -0.2821  0.4016 -0.4043
   59MOL   C30037536   0.304   5.684   1.830 -0.6911 -0.2692 -0.0474
   59MOL   C30137537   0.289   5.814   1.747 -0.1300  1.0071 -0.1747
   59MOL   C30237538   0.277   5.934   1.831 -0.6576  0.2497  0.1210
   59MOL   N30337539   0.395   5.932   1.922 -0.6006 -0.8129  0.4758
   59MOL   H30437540   0.425   5.524   2.337 -3.4672  1.3143  2.2335
   59MOL   H30537541   0.319   5.399   2.331 -0.5698 -1.4194 -1.1898
   59MOL   H30637542   0.404   5.497   2.063  1.1999  2.0602  0.8951
   59MOL   H30737543   0.532   5.428   2.173  0.5282 -1.2814 -0.7205
   59MOL   H30837544   0.402   5.208   2.162 -1.7774  1.5063  1.0651
   59MOL   H30937545   0.475   5.259   2.019  2.2259  0.5159  2.4290
   59MOL   H31037546   0.175   5.317   2.060 -1.3614  0.9819 -2.8245
   59MOL   H31137547   0.226   5.169   1.987  0.7062 -0.8844 -2.5965
   59MOL   H31237548   0.163   5.499   1.953  1.0723 -0.4272  1.3121
   59MOL   H31337549   0.135   5.585   1.735  0.1441  3.4060  0.9189
   59MOL   H31437550   0.291   5.510   1.683  0.6688  0.1213  0.3843
   59MOL   H31537551   0.268   5.693   1.932 -0.2150 -1.9431  0.2858
   59MOL   H31637552   0.409   5.660   1.848 -0.8571  0.9336  2.6897
   59MOL   H31737553   0.194   5.804   1.694 -0.2520 -2.3769  0.5579
   59MOL   H31837554   0.372   5.814   1.676  1.4232 -1.2654  1.5438
   59MOL   H31937555   0.179   5.928   1.877 -0.7706 -1.6745 -0.3281
   59MOL   H32037556   0.290   6.025   1.773 -1.3416 -0.2135 -0.7729
   59MOL   H32137557   0.450   5.848   1.917  0.7474  0.1132 -0.5020
   59MOL   C32237558   0.417   6.024   2.015  0.0599  0.3816 -0.9343
   59MOL   O32337559   0.337   6.121   2.027 -0.7041  0.4581  0.0942
   59MOL   C32437560   0.524   6.001   2.123  1.4446  0.2033 -0.8004
   59MOL   C32537561   0.527   6.109   2.234 -0.7295 -0.4413  0.8259
   59MOL   C32637562   0.605   6.236   2.204  0.1294  0.1445  0.1548
   59MOL   C32737563   0.620   6.330   2.337  0.4157  0.2020 -0.2762
   59MOL   C32837564   0.745   6.288   2.415 -0.0588 -0.6068  0.5341
   59MOL   O32937565   0.859   6.269   2.361 -0.4779 -0.1778  0.0501
   59MOL   N33037566   0.736   6.290   2.545 -0.0015  0.6053 -0.0531
   59MOL   C33137567   0.847   6.282   2.647  0.4097  0.2079 -0.6607
   59MOL   C33237568   0.892   6.140   2.683 -0.4487  0.3789  0.3230
   59MOL   C33337569   0.924   6.115   2.836 -0.1889 -0.3315  0.4545
   59MOL   C33437570   0.953   5.965   2.881  0.3216 -0.0240 -0.0804
   59MOL   N33537571   1.066   5.908   2.801 -0.0084  0.3540 -0.5154
   59MOL   H33637572   0.483   5.911   2.169  0.8255  1.7498  1.7166
   59MOL   H33737573   0.615   5.986   2.064  1.3338  1.4790 -1.3148
   59MOL   H33837574   0.424   6.132   2.260 -1.3635  0.4476 -2.2654
   59MOL   H33937575   0.573   6.067   2.323  1.6933 -0.1117 -0.2256
   59MOL   H34037576   0.569   6.283   2.113  1.3051 -0.6842 -0.7521
   59MOL   H34137577   0.704   6.207   2.169  1.4832  0.0703  3.8544
   59MOL   H34237578   0.528   6.318   2.395  0.4522  3.3683  0.5121
   59MOL   H34337579   0.632   6.433   2.304 -2.2192  0.5772 -0.1577
   59MOL   H34437580   0.643   6.317   2.573 -0.6339  0.7556 -2.2046
   59MOL   H34537581   0.792   6.317   2.735  1.1037 -0.6983  0.1382
   59MOL   H34637582   0.931   6.345   2.618  0.6231 -0.0961 -0.6947
   59MOL   H34737583   0.815   6.073   2.644  1.2131 -0.4588 -1.6082
   59MOL   H34837584   0.970   6.117   2.610 -0.4595 -2.0249  1.0421
   59MOL   H34937585   0.835   6.148   2.888  0.2641  1.2262  0.2683
   59MOL   H35037586   1.002   6.188   2.856 -1.0922  1.3328 -1.9372
   59MOL   H35137587   0.875   5.897   2.847 -0.1098  1.1820 -1.5970
   59MOL   H35237588   0.978   5.945   2.985 -1.7807 -2.4714  0.0125
   59MOL   H35337589   1.157   5.933   2.839  1.2569 -0.3049 -2.9858
   59MOL   C35437590   1.060   5.801   2.719 -0.0650  0.4211  0.1123
   59MOL   O35537591   0.959   5.745   2.689  0.1548  0.2275  0.2605
   59MOL   C35637592   1.188   5.745   2.655 -0.3349  0.0396  0.0859
   59MOL   C35737593   1.225   5.830   2.527  0.0681 -0.0854 -0.6886
   59MOL   C35837594   1.340   5.770   2.451 -0.1315  0.4081  0.7962
   59MOL   C35937595   1.458   5.746   2.549 -0.2464  0.2991 -0.7346
   59MOL   C36037596   1.576   5.680   2.482 -0.5576  0.3037 -0.8091
   59MOL   O36137597   1.571   5.561   2.452 -0.7724 -0.2355 -0.5646
   59MOL   N36237598   1.690   5.747   2.466  0.1122 -0.0671  0.6474
   59MOL   C36337599   1.811   5.688   2.406 -0.8050  0.0566  0.3999
   59MOL   C36437600   1.886   5.593   2.502 -1.4734 -0.3062 -0.0777
   59MOL   C36537601   1.936   5.661   2.628 -0.0955 -0.2280 -1.1174
   59MOL   C36637602   2.031   5.568   2.702  0.1743 -0.0978  0.3487
   59MOL   N36737603   2.150   5.560   2.613 -0.0021  0.8591 -0.2531
   59MOL   H36837604   1.273   5.759   2.722  0.0174  2.7427 -0.8273
   59MOL   H36937605   1.179   5.640   2.631  0.2087  0.0023  0.0367
   59MOL   H37037606   1.143   5.842   2.456 -2.0906 -0.9388  1.5713
   59MOL   H37137607   1.257   5.929   2.561  0.0876 -0.0178 -0.9047
   59MOL   H37237608   1.384   5.838   2.378 -1.4169  1.5909  1.1137
   59MOL   H37337609   1.317   5.672   2.410  4.0086  0.1627 -1.2142
   59MOL   H37437610   1.437   5.663   2.616  0.2550  0.2059 -0.6913
   59MOL   H37537611   1.482   5.836   2.607  0.5077  0.0198 -0.6014
   59MOL   H37637612   1.699   5.841   2.501  1.0072  0.6980 -1.5520
   59MOL   H37737613   1.885   5.758   2.368  0.4546 -2.1099 -1.2665
   59MOL   H37837614   1.779   5.634   2.317  1.2395 -0.8361  0.1712
   59MOL   H37937615   1.815   5.514   2.525 -1.0286 -0.6003  0.2984
   59MOL   H38037616   1.968   5.557   2.441 -0.0436  0.7245  1.1928
   59MOL   H38137617   1.856   5.684   2.698  1.0578  1.9031 -0.4641
   59MOL   H38237618   1.990   5.753   2.608  0.1645  0.2908  1.8027
   59MOL   H38337619   1.976   5.475   2.717 -0.3053  0.4275  2.0187
   59MOL   H38437620   2.060   5.601   2.802 -2.6439 -0.2467  1.2502
   59MOL   H38537621   2.140   5.532   2.516 -0.0259 -1.0935  0.2755
   59MOL   C38637622   2.264   5.618   2.637 -0.0049  0.0813 -0.8830
   59MOL   O38737623   2.296   5.667   2.745 -0.6643  0.0183  0.0644
   59MOL   C38837624   2.363   5.626   2.524 -0.3513  0.6465 -0.2719
   59MOL   C38937625   2.348   5.741   2.421  0.2522  0.0514  0.6038
   59MOL   C39037626   2.229   5.724   2.333 -0.1473  0.1872  0.4420
   59MOL   C39137627   2.205   5.847   2.249  0.0291 -0.0324  0.1861
   59MOL   C39237628   2.116   5.815   2.123  0.1020  0.3388 -0.0852
   59MOL   O39337629   2.037   5.723   2.134 -0.1971  0.0796 -0.7349
   59MOL   N39437630   2.139   5.890   2.020 -0.6730  0.3322 -0.3073
   59MOL   C39537631   2.057   5.889   1.899 -0.1381  0.3835  0.0894
   59MOL   C39637632   2.105   5.789   1.789  0.5408  0.2623  0.5175
   59MOL   C39737633   2.039   5.806   1.648  0.0504  0.9734  0.7812
   59MOL   C39837634   2.036   5.664   1.579  0.3496  0.4603  0.8439
   59MOL   N39937635   2.174   5.618   1.567 -0.0247  0.3757 -0.4910
   59MOL   H40037636   2.463   5.634   2.566 -0.2157  0.2597 -0.5154
   59MOL   H40137637   2.360   5.537   2.461  0.0779  0.4601 -0.0301
   59MOL   H40237638   2.345   5.836   2.475  1.9479  0.0744  0.7006
   59MOL   H40337639   2.435   5.753   2.356  1.0028 -0.7154  1.4578
   59MOL   H40437640   2.141   5.711   2.396  0.6341 -3.2870  0.8862
   59MOL   H40537641   2.238   5.630   2.279  0.9367 -0.2973  1.4370
   59MOL   H40637642   2.296   5.887   2.204  0.0590 -0.7109 -0.3885
   59MOL   H40737643   2.170   5.936   2.299  0.1991  0.9324 -1.3694
   59MOL   H40837644   2.212   5.959   2.032 -1.5006  1.4394 -1.6015
   59MOL   H40937645   2.054   5.989   1.855  0.0250  0.2360 -0.2579
   59MOL   H41037646   1.951   5.878   1.920 -0.2623  0.6645 -0.4050
   59MOL   H41137647   2.211   5.791   1.765  0.3033  2.3226 -0.4466
   59MOL   H41237648   2.095   5.689   1.833 -0.5134 -0.5913 -1.6267
   59MOL   H41337649   2.097   5.878   1.590  0.8342  0.7501  1.2811
   59MOL   H41437650   1.937   5.841   1.655 -0.5117 -1.0092  3.3705
   59MOL   H41537651   1.987   5.667   1.482  0.4854  2.4076  0.8083
   59MOL   H41637652   1.974   5.593   1.634 -2.3579  0.6467 -1.8567
   59MOL   H41737653   2.208   5.554   1.637 -1.3640  2.4782  2.2097
   59MOL   C41837654   2.249   5.674   1.467  0.4537  0.1598 -0.0930
   59MOL   O41937655   2.210   5.750   1.380  0.5212  1.0814 -0.6030
   59MOL   C42037656   2.395   5.632   1.466  0.0999 -0.6129 -0.0652
   59MOL   C42137657   2.472   5.731   1.371 -0.3804 -0.1421  0.8184
   59MOL   C42237658   2.491   5.877   1.413  0.1841  0.1938  0.5147
   59MOL   C42337659   2.603   5.943   1.331 -0.0247  0.4388 -0.0289
   59MOL   C42437660   2.554   5.995   1.197 -0.2730 -0.4008 -0.2072
   59MOL   O42537661   2.483   6.102   1.188 -0.2031  0.7946 -0.0390
   59MOL   N42637662   2.584   5.926   1.086 -0.2334  0.5310  0.2665
   59MOL   C42737663   2.552   5.971   0.955  0.4195 -0.1113 -0.8168
   59MOL   C42837664   2.669   6.000   0.865 -0.3335 -0.4593  0.2345
   59MOL   C42937665   2.782   6.085   0.936 -0.0291 -0.5107  0.1731
   59MOL   C43037666   2.749   6.223   0.981  0.2721  0.5089 -0.0577
   59MOL   N43137667   2.867   6.283   1.043  0.0826 -0.2590  0.1243
   59MOL   H43237668   2.441   5.638   1.564  1.8667  0.0171 -0.9008
   59MOL   H43337669   2.402   5.525   1.446  0.2392 -0.8428  1.1843
   59MOL   H43437670   2.574   5.693   1.376  0.3511  1.8501  1.7827
   59MOL   H43537671   2.444   5.715   1.267 -2.7559  0.5569  1.3094
   59MOL   H43637672   2.504   5.884   1.520 -2.3497 -1.1748  0.9579
   59MOL   H43737673   2.396   5.928   1.403  0.4665  0.4545 -0.9454
   59MOL   H43837674   2.683   5.873   1.306 -0.1314  0.2031  0.2879
   59MOL   H43937675   2.637   6.022   1.398 -0.0908 -0.0684  0.6049
   59MOL   H44037676   2.630   5.837   1.097 -0.0174  0.2494 -2.5409
   59MOL   H44137677   2.494   6.063   0.951  1.8920  0.8645 -0.2593
   59MOL   H44237678   2.493   5.891   0.912  2.3245 -1.7429 -0.4764
   59MOL   H44337679   2.714   5.908   0.828 -0.0292 -1.8134  3.7846
   59MOL   H44437680   2.637   6.051   0.774 -0.9381 -3.5085 -1.3257
   59MOL   H44537681   2.869   6.083   0.871  1.0250 -3.4320  1.5773
   59MOL   H44637682   2.825   6.038   1.024  0.8496  1.3256  0.7399
   59MOL   H44737683   2.666   6.230   1.050 -2.5342 -0.0978 -3.2393
   59MOL   H44837684   2.722   6.277   0.890  0.5623  0.7230 -0.0172
   59MOL   H44937685   2.951   6.233   1.014  0.5586 -0.6028  2.0031
   59MOL   C45037686   2.883   6.403   1.099 -0.4468 -0.5606  0.1986
   59MOL   O45137687   2.789   6.484   1.094  0.3816 -0.2203  0.2862
   59MOL   C45237688   3.020   6.450   1.152 -0.0742  0.4958 -0.2145
   59MOL   C45337689   3.023   6.430   1.302  0.0765 -0.0205 -0.3025
   59MOL   C45437690   3.135   6.502   1.382  0.4309 -0.1329  0.4663
   59MOL   C45537691   3.101   6.519   1.528  0.6797  0.0072 -0.4619
   59MOL   C45637692   3.204   6.580   1.619  1.1619  0.1876  0.2484
   59MOL   O45737693   3.320   6.586   1.590  0.0789  0.0662  0.0268
   59MOL   N45837694   3.151   6.638   1.728 -0.0753 -0.0626  0.0258
   59MOL   C45937695   3.223   6.713   1.832  0.3974  0.5159 -0.3089
   59MOL   C46037696   3.116   6.787   1.917 -0.8840  0.2904  0.2191
   59MOL   C46137697   3.042   6.692   2.009 -0.3369 -0.1992  0.2614
   59MOL   C46237698   2.924   6.613   1.953  0.3733  0.3885 -0.1076
   59MOL   N46337699   2.810   6.699   1.935  0.5840  0.0951  0.1076
   59MOL   H46437700   3.101   6.387   1.116 -0.5170 -0.4537  0.4117
   59MOL   H46537701   3.046   6.549   1.116  2.1104 -0.8898 -2.6214
   59MOL   H46637702   2.925   6.452   1.344 -0.4593 -1.8982 -0.5313
   59MOL   H46737703   3.021   6.324   1.329 -2.3143  0.5502  1.8375
   59MOL   H46837704   3.159   6.605   1.354  0.1236  0.2570  1.6193
   59MOL   H46937705   3.228   6.449   1.361 -0.0446 -1.0108  0.5655
   59MOL   H47037706   3.069   6.428   1.579 -0.5072  0.6130 -0.0950
   59MOL   H47137707   3.018   6.590   1.527  0.6934  0.0212 -0.5519
   59MOL   H47237708   3.051   6.628   1.730  0.1270 -2.3177  1.1124
   59MOL   H47337709   3.278   6.787   1.773  0.3952  1.5680  0.9903
   59MOL   H47437710   3.293   6.645   1.880  1.1676 -1.8099 -4.4987
   59MOL   H47537711   3.164   6.861   1.982  0.7635 -0.0489 -0.5844
   59MOL   H47637712   3.047   6.849   1.860  0.0718 -0.7503 -2.1413
   59MOL   H47737713   3.006   6.739   2.100  1.9653 -1.6003  1.9423
   59MOL   H47837714   3.117   6.633   2.062  2.0150  0.1970 -2.4922
   59MOL   H47937715   2.892   6.551   2.037  1.1599  1.2167  0.8188
   59MOL   H48037716   2.944   6.552   1.865 -0.2731 -0.9567  0.6670
   59MOL   H48137717   2.825   6.799   1.939  2.0491 -0.0306 -1.6664
   59MOL   C48237718   2.695   6.653   1.883  0.3780 -0.1180 -0.2489
   59MOL   O48337719   2.677   6.534   1.861  0.1797 -0.2507  0.0711
   59MOL   C48437720   2.578   6.753   1.857 -0.2028 -0.1085  0.1148
   59MOL   C48537721   2.521   6.714   1.726  0.2355 -0.2139 -0.4525
   59MOL   C48637722   2.424   6.809   1.664 -0.0066 -0.2380  0.4875
   59MOL   C48737723   2.351   6.768   1.532 -0.6797  0.3928 -0.2344
   59MOL   C48837724   2.334   6.872   1.417  0.6630  0.4601 -0.0467
   59MOL   O48937725   2.305   6.989   1.449  0.0340 -0.1202  0.6111
   59MOL   N49037726   2.333   6.830   1.286  0.0624  0.5518 -0.5484
   59MOL   C49137727   2.290   6.923   1.182  0.0072  0.3465 -0.0351
   59MOL   C49237728   2.295   6.859   1.044 -0.6149  0.2514 -0.1718
   59MOL   C49337729   2.230   6.940   0.934 -0.1343  0.0673 -0.0874
   59MOL   C49437730   2.215   6.863   0.794  0.5682  0.3114  0.3467
   59MOL   N49537731   2.188   6.952   0.680  0.4089  0.1698  0.0749
   59MOL   H49637732   2.508   6.754   1.940 -0.2594 -1.6966  0.0978
   59MOL   H49737733   2.610   6.857   1.845 -0.1373 -0.4707 -3.3487
   59MOL   H49837734   2.599   6.713   1.650 -0.9510 -0.0207 -1.6963
   59MOL   H49937735   2.468   6.618   1.726 -0.3975  0.1232 -1.7964
   59MOL   H50037736   2.464   6.910   1.655  1.7700 -0.9283  0.3563
   59MOL   H50137737   2.347   6.828   1.739 -0.0968 -2.1176  0.8959
   59MOL   H50237738   2.255   6.731   1.567 -0.2454 -0.0874  0.4658
   59MOL   H50337739   2.405   6.676   1.513 -1.3606  0.2477 -1.4606
   59MOL   H50437740   2.345   6.731   1.269  1.1271  0.3612  1.2360
   59MOL   H50537741   2.338   7.020   1.194  1.5128 -0.0113 -2.5894
   59MOL   H50637742   2.189   6.948   1.212 -0.0386 -0.9496  0.9515
   59MOL   H50737743   2.397   6.835   1.018 -0.5278 -1.4010  1.5575
   59MOL   H50837744   2.244   6.763   1.052  2.8837 -1.5965  0.9769
   59MOL   H50937745   2.275   7.036   0.910 -0.3469 -0.2585 -1.8325
   59MOL   H51037746   2.130   6.967   0.968  0.6420  0.7911  1.7193
   59MOL   H51137747   2.147   6.778   0.805  2.5054 -1.2565  0.4194
   59MOL   H51237748   2.316   6.824   0.783 -0.1742 -1.2938 -0.8916
   59MOL   H51337749   2.091   6.955   0.651  0.3097  0.0621  0.3943
   59MOL   C51437750   2.273   7.041   0.632 -0.4121 -0.4082 -0.1535
   59MOL   O51537751   2.378   7.070   0.685 -0.0877  0.3163  0.2254
   59MOL   C51637752   2.240   7.117   0.500 -0.7302  0.8605 -0.7556
   59MOL   C51737753   2.364   7.169   0.425 -0.2369  0.0133 -0.1932
   59MOL   C51837754   2.341   7.220   0.283  0.1122  0.1182 -0.3604
   59MOL   C51937755   2.464   7.253   0.198  0.0690 -0.4551 -0.2279
   59MOL   C52037756   2.506   7.396   0.199  0.0560 -0.2897 -0.0849
   59MOL   O52137757   2.476   7.464   0.297 -0.3162 -0.3227 -0.0789
   59MOL   N52237758   2.585   7.434   0.099 -0.3889  0.0190  0.5014
   59MOL   C52337759   2.649   7.558   0.080  0.6086  0.1558  0.3194
   59MOL   C52437760   2.562   7.643   7.682  0.1756  0.1074 -0.5266
   59MOL   C52537761   2.632   0.071   7.642  0.3720  0.2988  0.3568
   59MOL   C52637762   2.568   0.132   7.514  0.4795  0.4618 -1.0090
   59MOL   N52737763   2.646   0.246   7.467  1.2248  0.3830  0.3211
   59MOL   H52837764   2.185   7.046   0.438 -0.6500 -0.2570  0.4421
   59MOL   H52937765   2.170   7.197   0.526 -0.6505  1.0808 -1.2109
   59MOL   H53037766   2.409   7.254   0.477 -1.0157  0.3142 -0.0048
   59MOL   H53137767   2.446   7.097   0.426  0.7231  1.0628  2.3767
   59MOL   H53237768   2.268   7.301   0.294  0.6825  0.7243 -0.9908
   59MOL   H53337769   2.288   7.140   0.231  2.1773 -1.5962  0.0955
   59MOL   H53437770   2.429   7.230   0.097  1.9668 -1.2491 -0.7350
   59MOL   H53537771   2.555   7.197   0.221  0.4863  0.1233 -0.4622
   59MOL   H53637772   2.605   7.365   0.028 -2.2599 -0.8272  0.7602
   59MOL   H53737773   2.742   7.532   0.029 -0.3510 -0.8069 -0.9602
   59MOL   H53837774   2.674   7.606   0.175 -2.4429  0.6069  0.9437
   59MOL   H53937775   2.536   7.583   7.595 -0.1922  0.1822 -0.4685
   59MOL   H54037776   2.466   7.659   0.029  1.1748 -0.9593  1.9302
   59MOL   H54137777   2.733   0.036   7.621  0.8328  2.0575 -0.4432
   59MOL   H54237778   2.628   0.141   0.024 -1.5468 -2.1058  2.3790
   59MOL   H54337779   2.466   0.166   7.531  1.0188  2.4598 -1.6630
   59MOL   H54437780   2.564   0.059   7.434 -1.6275  0.4576 -0.9425
   59MOL   H54537781   2.737   0.248   7.512  1.5075  0.6132 -0.2639
   59MOL   C54637782   2.593   0.336   7.384 -0.2576  0.3766 -0.1888
   59MOL   O54737783   2.477   0.336   7.342  0.6159 -0.2408  0.4943
   59MOL   C54837784   2.687   0.442   7.345 -0.0831 -0.5298 -0.3030
   59MOL   C54937785   2.684   0.549   7.458 -0.1396  0.0537 -0.5946
   59MOL   C55037786   2.771   0.672   7.422  0.0151  0.1195  0.1514
   59MOL   C55137787   2.753   0.787   7.533 -0.3995 -0.2093  0.0747
   59MOL   C55237788   2.855   0.763   7.645 -0.2954  0.2749 -0.8792
   59MOL   O55337789   2.825   0.731   0.059  0.2145  0.3239 -0.7776
   59MOL   N55437790   2.981   0.780   7.612  0.3332 -0.1398 -0.3914
   59MOL   C55537791   3.096   0.756   7.696  0.9102 -0.1034 -0.1953
   59MOL   C55637792   3.202   0.694   7.606  0.0501  0.1021 -0.2152
   59MOL   C55737793   3.165   0.555   7.549  0.4262 -0.2305 -0.4484
   59MOL   C55837794   3.137   0.441   7.645 -0.2404  0.0572  0.3718
   59MOL   N55937795   3.124   0.317   7.570  0.0956  0.5920  0.2389
   59MOL   H56037796   2.790   0.406   7.337  0.0319 -0.5818  1.2926
   59MOL   H56137797   2.670   0.480   7.244  1.2715  0.2033 -0.2588
   59MOL   H56237798   2.581   0.581   7.466 -0.1359 -0.4045  1.8122
   59MOL   H56337799   2.706   0.504   7.555  1.9183  2.4454  0.1033
   59MOL   H56437800   2.739   0.715   7.328 -1.3424 -2.0311 -0.3971
   59MOL   H56537801   2.873   0.646   7.396  1.3347  1.5961  3.5407
   59MOL   H56637802   2.660   0.784   7.591 -0.3002  1.6679  0.3663
   59MOL   H56737803   2.764   0.888   7.494  1.6044  0.9583  3.4553
   59MOL   H56837804   2.998   0.804   7.516 -1.1328 -3.3250 -1.5356
   59MOL   H56937805   3.071   0.691   0.079 -1.2508  0.2928 -0.4854
   59MOL   H57037806   3.125   0.855   0.029 -0.8829  0.2296  0.4620
   59MOL   H57137807   3.223   0.755   7.518 -0.5841  1.3859  0.4986
   59MOL   H57237808   3.300   0.690   7.653  0.0982 -1.2415 -0.4009
   59MOL   H57337809   3.242   0.528   7.476 -0.4581 -2.0999 -0.7241
   59MOL   H57437810   3.080   0.574   7.483  0.4345 -1.4115 -0.8218
   59MOL   H57537811   3.044   0.456   7.701  0.1590 -0.1590  1.1072
   59MOL   H57637812   3.220   0.414   0.009 -0.2432 -1.0785 -0.0812
   59MOL   H57737813   3.200   0.293   7.508 -1.3077  0.6269 -1.5391
   59MOL   C57837814   3.018   0.240   7.551 -0.2389  0.1669  0.0081
   59MOL   O57937815   2.903   0.267   7.590 -0.2804  0.7594 -0.3899
   59MOL   C58037816   3.057   0.110   7.473 -0.4634 -0.5676 -0.4736
   59MOL   C58137817   2.959   7.687   7.494 -0.4067  1.1610  1.0959
   59MOL   C58237818   3.005   7.557   7.434 -0.2902 -0.2004  0.4618
   59MOL   C58337819   2.922   7.426   7.469 -0.1146 -0.6086 -0.0614
   59MOL   C58437820   2.989   7.348   7.585  0.1334 -0.1082 -0.2425
   59MOL   O58537821   3.013   7.407   7.691 -0.0206  0.2749  0.0393
   59MOL   N58637822   3.028   7.226   7.558 -0.1797  0.3924  0.5593
   59MOL   C58737823   3.065   7.129   7.665 -0.9087  0.0047 -0.3831
   59MOL   C58837824   3.122   7.000   7.608 -0.5008 -0.3163 -0.3904
   59MOL   C58937825   3.103   6.881   7.701  0.2066 -0.0020 -0.7068
   59MOL   C59037826   3.216   6.774   7.681  0.5467 -0.2292  0.0951
   59MOL   N59137827   3.194   6.667   0.074  0.6362  0.1558  0.5580
   59MOL   H59237828   3.041   0.152   7.374 -2.0290 -0.9840 -0.4086
   59MOL   H59337829   3.159   0.084   7.503 -0.4789 -0.2918 -0.1696
   59MOL   H59437830   2.953   7.669   7.602 -1.6463  0.2423  0.8971
   59MOL   H59537831   2.859   7.695   7.450 -0.2812  0.7098  0.7242
   59MOL   H59637832   3.112   7.553   7.451  0.1679  0.9833 -1.9959
   59MOL   H59737833   3.006   7.565   7.325  0.2663 -0.1461  0.4725
   59MOL   H59837834   2.909   7.368   7.378  1.1735  2.4982 -2.3250
   59MOL   H59937835   2.820   7.452   7.496 -0.4816 -0.9890 -1.0584
   59MOL   H60037836   3.009   7.184   7.468 -0.1095 -0.4798  0.9423
   59MOL   H60137837   2.969   7.115   0.014 -0.4620  0.7721  0.6860
   59MOL   H60237838   3.123   7.159   0.050 -0.0723 -0.3112 -0.8311
   59MOL   H60337839   3.074   6.975   7.513 -1.2034 -1.1114  0.1709
   59MOL   H60437840   3.217   7.029   7.563  0.1982  0.8465  1.7738
   59MOL   H60537841   3.001   6.844   7.690  0.1603  0.1601 -0.8114
   59MOL   H60637842   3.099   6.912   0.104  2.2328 -2.6478  0.2152
   59MOL   H60737843   3.315   6.816   7.700  0.5149 -0.3030  0.4382
   59MOL   H60837844   3.214   6.739   7.578 -0.3539  0.7327 -0.2264
   59MOL   H60937845   3.136   6.668   0.156  2.8354  0.2499  2.1564
   59MOL   C61037846   3.267   6.555   0.066 -0.3051  0.2472 -0.8097
   59MOL   O61137847   3.343   6.532   7.672 -0.2614 -0.2826  0.1573
   59MOL   C61237848   3.242   6.456   0.186 -0.0443  0.1307  0.7744
   59MOL   C61337849   3.371   6.426   0.261  0.2385  0.2371  0.6543
   59MOL   C61437850   3.379   6.495   0.395 -1.0054 -0.5536 -0.6875
   59MOL   C61537851   3.511   6.496   0.467  0.0347  0.4973  0.4935
   59MOL   C61637852   3.559   6.362   0.513  0.9378 -0.6157 -0.5582
   59MOL   O61737853   3.498   6.258   0.478  0.7866 -0.9190 -0.4437
   59MOL   N61837854   3.667   6.374   0.586 -0.9318  0.6088  0.4436
   59MOL   C61937855   3.724   6.258   0.646  0.1795  0.3262 -0.1452
   59MOL   C62037856   3.792   6.302   0.775  0.6337 -0.5944  0.0502
   59MOL   C62137857   3.828   6.196   0.874  0.4136 -0.0501  0.5374
   59MOL   C62237858   3.916   6.259   0.985 -0.6220  0.2195  0.0333
   59MOL   N62337859   3.985   6.159   1.074 -0.2009  0.0811  0.0210
   59MOL   H62437860   3.169   6.513   0.244  0.9025  2.5413 -0.3196
   59MOL   H62537861   3.182   6.369   0.160  2.3497 -1.7892  1.5541
   59MOL   H62637862   3.371   6.317   0.269 -2.2382 -0.0165 -2.1112
   59MOL   H62737863   3.454   6.447   0.193 -0.9078 -0.2384 -0.9156
   59MOL   H62837864   3.309   6.451   0.467  0.5330  1.3739  2.0752
   59MOL   H62937865   3.357   6.600   0.375  2.3539  0.0448 -1.3979
   59MOL   H63037866   3.524   6.558   0.556  1.1040 -2.0138  2.1554
   59MOL   H63137867   3.571   6.532   0.383  1.3066 -2.1187  0.2168
   59MOL   H63237868   3.700   6.466   0.612  1.2901 -0.3330  1.0465
   59MOL   H63337869   3.799   6.219   0.577 -2.0191 -2.1248 -1.2344
   59MOL   H63437870   3.649   6.181   0.660  2.0100 -1.3972  0.4837
   59MOL   H63537871   3.882   6.359   0.751  0.7657 -1.3383 -1.2655
   59MOL   H63637872   3.734   6.375   0.831 -0.2140 -2.5297  1.7398
   59MOL   H63737873   3.865   6.101   0.837 -0.8987  0.0018 -0.9756
   59MOL   H63837874   3.742   6.170   0.935  0.0905  0.1079  0.1542
   59MOL   H63937875   3.854   6.314   1.056  1.7547 -0.4710  2.7436
   59MOL   H64037876   3.986   6.331   0.944 -0.9095  1.3556  1.4854
   59MOL   H64137877   4.020   6.207   1.155 -2.4707 -1.5146  2.0448
   59MOL   H64237878   3.917   6.091   1.104 -0.4427 -0.7529 -2.2764
   60MOL     C137879   6.970   1.064   5.528 -0.7112 -0.3154  0.9186
   60MOL     O237880   6.961   0.965   5.595  0.0457 -0.0247 -0.2692
   60MOL     C337881   6.996   1.204   5.586  0.3286 -0.3553  0.5631
   60MOL     C437882   7.127   1.257   5.528  0.2704 -0.9966  0.4771
   60MOL     C537883   7.145   1.254   5.375 -0.2630  0.1766 -0.0927
   60MOL     C637884   7.256   1.353   5.339  0.1936 -0.5578  0.6776
   60MOL     C737885   7.195   1.498   5.339 -0.3758 -0.3543  0.0488
   60MOL     O837886   7.097   1.523   5.272  0.3087 -0.8688  0.1092
   60MOL     N937887   7.259   1.580   5.425  0.4442 -0.2067 -0.6485
   60MOL    C1037888   7.211   1.717   5.456  0.6260 -0.2980  0.2433
   60MOL    C1137889   7.308   1.792   5.544 -0.1729 -0.5813 -0.2664
   60MOL    C1237890   7.262   1.932   5.584  0.1132  0.3729 -0.4580
   60MOL    C1337891   7.341   1.995   5.696  0.1608  0.1498  0.4083
   60MOL    N1437892   7.335   2.140   5.696 -0.6633 -0.5065  0.0240
   60MOL    H1537893   6.924   1.274   5.544  0.3689 -0.1528  0.8320
   60MOL    H1637894   6.986   1.205   5.694 -1.0902  1.0194  0.4356
   60MOL    H1737895   7.121   1.363   5.553 -1.9334 -1.3364  1.5239
   60MOL    H1837896   7.215   1.210   5.572  0.0452 -1.6150  0.2802
   60MOL    H1937897   7.049   1.275   5.329 -0.7702 -2.2738 -0.2018
   60MOL    H2037898   7.170   1.151   5.348  1.7960  0.6458 -0.0577
   60MOL    H2137899   7.280   1.336   5.234 -0.7797 -0.3947  0.4233
   60MOL    H2237900   7.343   1.341   5.403  0.0372  0.1175  1.0158
   60MOL    H2337901   7.341   1.551   5.477  1.2345  3.2690  0.1422
   60MOL    H2437902   7.124   1.699   5.519 -0.4934 -0.6677 -1.3898
   60MOL    H2537903   7.190   1.775   5.367 -0.4365  0.3773  0.9211
   60MOL    H2637904   7.316   1.724   5.629  0.1719  0.9154  0.9291
   60MOL    H2737905   7.402   1.781   5.491 -0.7863  0.8133 -1.6723
   60MOL    H2837906   7.158   1.918   5.615  0.1590  1.4156  0.1851
   60MOL    H2937907   7.258   1.996   5.496  1.0716 -1.2622 -1.7193
   60MOL    H3037908   7.449   1.984   5.687  0.1508  1.7572 -2.0992
   60MOL    H3137909   7.314   1.950   5.791 -2.0428 -2.3830 -1.3541
   60MOL    H3237910   7.377   2.184   5.615 -0.3734  0.6112  0.7724
   60MOL    H3337911   6.946   1.070   5.422 -0.5334  1.6062  0.9685
   60MOL    C3437912   7.271   2.220   5.794 -0.1566  0.1419  0.6821
   60MOL    O3537913   7.216   2.169   5.888 -0.1728 -0.3060  0.1739
   60MOL    C3637914   7.287   2.375   5.790  0.5035  0.7310 -0.1403
   60MOL    C3737915   7.415   2.419   5.720 -0.1032  0.0371  0.4084
   60MOL    C3837916   7.421   2.569   5.706  0.9573 -0.2252  0.8499
   60MOL    C3937917   7.325   2.631   5.600  0.0596 -0.4724 -0.1799
   60MOL    C4037918   7.341   2.579   5.457 -0.3194 -0.8909 -0.9455
   60MOL    O4137919   7.426   2.630   5.388  0.0487  0.2287  0.0074
   60MOL    N4237920   7.257   2.485   5.409  0.0166 -0.1039 -0.6443
   60MOL    C4337921   7.252   2.418   5.277  0.2764  0.5211 -0.2577
   60MOL    C4437922   7.156   2.489   5.183 -0.0392 -0.0527  0.6341
   60MOL    C4537923   7.228   2.570   5.073  0.7048 -0.7228  0.0283
   60MOL    C4637924   7.131   2.640   4.981  0.8506 -1.5530  0.3602
   60MOL    N4737925   7.204   2.732   4.894 -0.1966 -0.0491  0.0435
   60MOL    H4837926   7.201   2.424   5.745  0.5851  1.4254  0.4444
   60MOL    H4937927   7.283   2.396   5.897  0.0768 -0.3530  0.0600
   60MOL    H5037928   7.493   2.384   5.787  0.8768  0.2670 -0.5994
   60MOL    H5137929   7.449   2.363   5.633  0.3487 -2.6635  2.2828
   60MOL    H5237930   7.525   2.598   5.689  0.7361  0.5503  0.7987
   60MOL    H5337931   7.397   2.610   5.805 -0.9566 -0.3982  0.4773
   60MOL    H5437932   7.331   2.740   5.602 -0.2891 -0.4670  2.7789
   60MOL    H5537933   7.221   2.619   5.627  0.1305  1.8713  1.2276
   60MOL    H5637934   7.188   2.447   5.473  0.1631  1.9816  0.8012
   60MOL    H5737935   7.215   2.318   5.300  1.3476 -0.1286 -1.2975
   60MOL    H5837936   7.354   2.402   5.244  0.2830 -0.3266  0.1586
   60MOL    H5937937   7.086   2.419   5.137 -0.5532  0.2038  1.0105
   60MOL    H6037938   7.086   2.553   5.237  0.4967  1.7317 -0.7629
   60MOL    H6137939   7.287   2.508   5.006 -1.6046  0.2383 -3.0270
   60MOL    H6237940   7.303   2.631   5.123  0.1479  1.9061 -2.2522
   60MOL    H6337941   7.079   2.705   5.051  1.3733  1.7132 -2.1741
   60MOL    H6437942   7.056   2.579   4.932 -1.4874  2.3721 -1.1107
   60MOL    H6537943   7.234   2.821   4.930  0.5217 -1.0034  1.9012
   60MOL    C6637944   7.244   2.695   4.769  0.1854  0.8810 -0.9635
   60MOL    O6737945   7.212   2.592   4.714 -0.3622 -0.1183  0.8083
   60MOL    C6837946   7.339   2.789   4.697  0.9912  0.4286  0.1136
   60MOL    C6937947   7.402   2.729   4.573  0.2934 -0.3792  0.4005
   60MOL    C7037948   7.537   2.803   4.536  0.3838 -0.8220 -0.5643
   60MOL    C7137949   7.664   2.742   4.603 -0.3158 -0.6305  0.0960
   60MOL    C7237950   0.003   2.611   4.540 -0.1520 -0.2043  0.0581
   60MOL    O7337951   7.660   2.573   4.432 -0.4120 -0.3063 -0.1114
   60MOL    N7437952   0.087   2.531   4.609  0.2318 -0.4630  0.1442
   60MOL    C7537953   0.163   2.417   4.559 -0.2942  0.0516 -0.3610
   60MOL    C7637954   0.292   2.440   4.477 -0.6328 -0.5219 -0.5965
   60MOL    C7737955   0.391   2.547   4.537 -0.4132  0.0148 -0.1353
   60MOL    C7837956   0.466   2.506   4.667  0.8600 -0.5206 -0.2970
   60MOL    N7937957   0.555   2.388   4.648 -0.5951  0.1810  0.3968
   60MOL    H8037958   7.283   2.880   4.674 -1.9351 -1.2791  0.3220
   60MOL    H8137959   7.409   2.815   4.776 -0.1101 -0.4200  1.3843
   60MOL    H8237960   7.400   2.620   4.574 -0.1672 -0.3918 -0.9763
   60MOL    H8337961   7.341   2.743   4.484  1.7648 -0.0740 -0.5926
   60MOL    H8437962   7.536   2.908   4.565  0.3257 -1.1074  0.4946
   60MOL    H8537963   7.545   2.814   4.428  1.3329  0.9213 -0.3247
   60MOL    H8637964   7.636   2.718   4.706  0.3409 -0.4927  0.3074
   60MOL    H8737965   0.042   2.817   4.602 -1.5773  0.7190 -0.6444
   60MOL    H8837966   0.117   2.570   4.697 -1.6880  0.5151  0.3872
   60MOL    H8937967   0.091   2.364   4.498  0.1669  1.0493 -1.7798
   60MOL    H9037968   0.201   2.356   4.641 -0.4298  1.9047  1.1149
   60MOL    H9137969   0.336   2.343   4.452 -0.0054  0.1485 -2.1707
   60MOL    H9237970   0.264   2.479   4.379  1.2033 -0.9448 -1.3076
   60MOL    H9337971   0.334   2.640   4.550 -1.0621 -0.0705 -2.2111
   60MOL    H9437972   0.464   2.566   4.459 -1.9946 -0.3967 -1.7425
   60MOL    H9537973   0.385   2.477   4.733 -1.1895 -0.9828 -2.9173
   60MOL    H9637974   0.529   2.584   4.709  1.0710 -1.3130  0.8762
   60MOL    H9737975   0.640   2.398   4.595 -1.5352 -0.9176 -1.3647
   60MOL    C9837976   0.529   2.258   4.673  0.0872 -0.3969 -0.8409
   60MOL    O9937977   0.439   2.221   4.740  0.3240  0.3832 -0.2581
   60MOL   C10037978   0.635   2.157   4.621  0.0735  0.3056 -0.1389
   60MOL   C10137979   0.575   2.039   4.541 -0.2977 -0.1179 -0.7347
   60MOL   C10237980   0.538   2.073   4.396  0.1410  0.4155  0.8680
   60MOL   C10337981   0.661   2.121   4.315 -0.1205 -0.0840 -0.3952
   60MOL   C10437982   0.686   2.271   4.294 -0.5127  0.2281 -0.1085
   60MOL   O10537983   0.617   2.355   4.348  0.2257 -0.5860 -0.1313
   60MOL   N10637984   0.780   2.299   4.203 -0.3925  0.2785 -0.0071
   60MOL   C10737985   0.803   2.432   4.152 -0.9009  0.2315 -0.3266
   60MOL   C10837986   0.696   2.493   4.071 -0.4665 -0.1213  0.0956
   60MOL   C10937987   0.752   2.621   4.010 -0.4101  0.1101  0.0001
   60MOL   C11037988   0.640   2.714   3.955 -0.1770  0.2826 -0.6447
   60MOL   N11137989   0.553   2.640   3.865  0.3464 -0.1864  0.0111
   60MOL   H11237990   0.720   2.209   4.575  1.7091 -1.1015  1.1922
   60MOL   H11337991   0.687   2.116   4.708  1.2214  0.9732 -0.4897
   60MOL   H11437992   0.651   1.961   4.532  1.4349  1.6940 -2.0882
   60MOL   H11537993   0.487   1.999   4.593 -1.0875  1.7701 -0.5861
   60MOL   H11637994   0.472   2.160   4.401 -0.3760  0.0406  0.5989
   60MOL   H11737995   0.484   1.991   4.348  1.2618  0.7463 -1.0347
   60MOL   H11837996   0.651   2.085   4.212  3.4730 -0.9915 -0.4753
   60MOL   H11937997   0.750   2.069   4.350 -0.0032  0.5633  0.2715
   60MOL   H12037998   0.830   2.234   4.144 -0.8158  0.0532 -0.1186
   60MOL   H12137999   0.894   2.429   4.092 -1.3568  0.7455 -1.0648
   60MOL   H12238000   0.825   2.503   4.232  0.1495 -0.4271 -0.0170
   60MOL   H12338001   0.668   2.421   3.994 -2.1308 -0.6491  1.1614
   60MOL   H12438002   0.606   2.511   4.130  1.1451  3.1319  1.6294
   60MOL   H12538003   0.823   2.598   3.930 -0.1612  1.5268 -0.2029
   60MOL   H12638004   0.801   2.679   4.088 -0.5431 -0.8743  0.8280
   60MOL   H12738005   0.690   2.803   3.917  1.1638 -0.9271 -1.7552
   60MOL   H12838006   0.583   2.746   4.042  0.4472  1.4987 -0.6669
   60MOL   H12938007   0.477   2.590   3.908  1.4517 -0.4031  1.7654
   60MOL   C13038008   0.539   2.649   3.728 -0.3090 -0.1282 -0.1348
   60MOL   O13138009   0.616   2.706   3.653  0.0333 -0.0630  0.1709
   60MOL   C13238010   0.423   2.580   3.673 -0.3038  0.0125 -0.2118
   60MOL   C13338011   0.449   2.432   3.658  0.2851  0.6934 -0.0448
   60MOL   C13438012   0.319   2.360   3.600  0.4156  0.0994  0.1065
   60MOL   C13538013   0.204   2.335   3.701 -0.2157 -0.4097 -0.1001
   60MOL   C13638014   0.132   2.207   3.672  0.4879  0.3439  0.1801
   60MOL   O13738015   0.181   2.102   3.704  0.1080  0.0965  0.0733
   60MOL   N13838016   0.019   2.219   3.599  0.1697 -0.2008 -0.5189
   60MOL   C13938017   7.639   2.105   3.550 -0.7880  0.4465 -0.0120
   60MOL   C14038018   7.684   2.061   3.406 -0.3431 -0.7488  0.1480
   60MOL   C14138019   7.584   1.976   3.329 -0.0972  0.1775 -0.6696
   60MOL   C14238020   7.532   1.852   3.403 -0.5096  0.4254 -0.4361
   60MOL   N14338021   7.640   1.758   3.412 -0.6316 -1.0532  0.5798
   60MOL   H14438022   0.332   2.588   3.732  0.0553 -1.6008  0.5803
   60MOL   H14538023   0.403   2.610   3.570 -2.0659  0.3207  0.1998
   60MOL   H14638024   0.533   2.405   3.593  1.5674  2.5507  0.8258
   60MOL   H14738025   0.479   2.399   3.757  4.3601  3.4480 -0.2441
   60MOL   H14838026   0.353   2.264   3.559  0.5892  0.4031 -0.4695
   60MOL   H14938027   0.284   2.420   3.515  1.2164 -1.1951 -1.1672
   60MOL   H15038028   0.135   2.419   3.709 -2.5140 -2.2187 -0.3891
   60MOL   H15138029   0.243   2.319   3.802 -2.8640  2.0419  1.3930
   60MOL   H15238030   7.697   2.309   3.558 -0.1284 -0.3825 -0.7528
   60MOL   H15338031   7.536   2.134   3.571 -1.0083  0.1468 -0.6655
   60MOL   H15438032   7.647   2.016   3.612 -0.1700  0.5980  0.1299
   60MOL   H15538033   7.696   2.154   3.351 -1.4072  1.1213  2.9815
   60MOL   H15638034   0.084   2.021   3.413 -0.0584  0.0837  0.7938
   60MOL   H15738035   7.628   1.948   3.234  0.4179 -1.8267  0.1432
   60MOL   H15838036   7.496   2.036   3.306 -2.3159 -2.6192  0.1464
   60MOL   H15938037   7.455   1.797   3.347  0.8672  0.0075 -1.9487
   60MOL   H16038038   7.489   1.872   3.501  0.3936 -0.9410  0.2471
   60MOL   H16138039   7.676   1.700   3.338 -1.2572  0.1134 -0.6560
   60MOL   C16238040   0.007   1.724   3.516  0.2859 -0.5549  0.4364
   60MOL   O16338041   7.692   1.774   3.625 -0.3928  0.2592  0.0819
   60MOL   C16438042   0.088   1.592   3.507  0.5567 -0.9326 -0.2363
   60MOL   C16538043   0.016   1.471   3.447  0.0416 -0.0443 -0.8062
   60MOL   C16638044   0.033   1.335   3.527 -0.2903 -0.1668 -0.0218
   60MOL   C16738045   7.632   1.228   3.479 -0.5640  0.4262 -0.2623
   60MOL   C16838046   7.647   1.183   3.337 -0.2382 -0.1564  0.3765
   60MOL   O16938047   0.048   1.202   3.280 -0.2946 -0.4432 -0.3821
   60MOL   N17038048   7.541   1.123   3.281 -0.2460  0.3327  0.0614
   60MOL   C17138049   7.532   1.095   3.138  1.4947  0.1038 -0.1393
   60MOL   C17238050   7.540   0.940   3.105  0.2700 -0.5374  0.2489
   60MOL   C17338051   7.585   0.920   2.954 -0.0038 -0.4752  0.8454
   60MOL   C17438052   0.013   0.988   2.912  0.4618  0.1499 -0.3177
   60MOL   N17538053   0.112   0.991   3.014 -0.3917  0.0961 -0.1203
   60MOL   H17638054   0.180   1.613   3.453  0.2823 -0.5131 -0.5412
   60MOL   H17738055   0.114   1.562   3.608  0.8764 -1.7501 -0.5507
   60MOL   H17838056   7.611   1.494   3.445  0.5197  2.2605 -0.3921
   60MOL   H17938057   0.044   1.465   3.342  1.0089 -0.1332 -0.5496
   60MOL   H18038058   0.018   1.356   3.633 -1.3953 -0.2570 -0.1537
   60MOL   H18138059   0.133   1.296   3.507  0.3667  1.8807 -0.8205
   60MOL   H18238060   7.532   1.271   3.477 -0.0253  1.7662  0.6156
   60MOL   H18338061   7.644   1.130   3.525  0.3481 -0.3356 -2.0660
   60MOL   H18438062   7.462   1.096   3.337 -0.8541 -0.6344 -1.2492
   60MOL   H18538063   7.592   1.149   3.065 -0.0196  0.7083 -0.9530
   60MOL   H18638064   7.443   1.154   3.114  1.1958 -0.1386  0.3497
   60MOL   H18738065   7.609   0.890   3.173 -0.0326 -0.4297  0.6373
   60MOL   H18838066   7.443   0.893   3.120 -0.2623  0.4299 -0.1334
   60MOL   H18938067   7.503   0.952   2.889  0.8887 -0.2655 -0.1823
   60MOL   H19038068   7.592   0.812   2.943  1.4401 -0.2473 -0.6489
   60MOL   H19138069   0.000   1.088   2.871  0.1365 -0.0631 -0.7353
   60MOL   H19238070   0.052   0.924   2.832 -2.0470 -1.4213 -0.3242
   60MOL   H19338071   0.104   1.064   3.083 -0.4412 -1.6449  1.7617
   60MOL   C19438072   0.218   0.911   3.019  0.0858 -0.6662  0.2592
   60MOL   O19538073   0.242   0.833   2.932  0.1140 -0.3772  0.2410
   60MOL   C19638074   0.305   0.927   3.148  0.0494  0.5684 -0.0022
   60MOL   C19738075   0.356   0.793   3.192 -0.1208 -0.7253  0.1164
   60MOL   C19838076   0.248   0.715   3.267 -0.2224 -0.2679 -0.4729
   60MOL   C19938077   0.297   0.575   3.328 -0.4340 -0.3438  0.2766
   60MOL   C20038078   0.304   0.465   3.223  0.2413  0.5360 -0.0864
   60MOL   O20138079   0.211   0.451   3.141  0.6080 -0.0180  0.0564
   60MOL   N20238080   0.405   0.379   3.224 -0.4805  0.0453 -0.3201
   60MOL   C20338081   0.419   0.244   3.157  0.1931  0.1863  0.1475
   60MOL   C20438082   0.532   0.161   3.230  0.2076 -0.1049 -0.1718
   60MOL   C20538083   0.491   0.112   3.377 -0.5438  0.4906 -0.0368
   60MOL   C20638084   0.452   0.214   3.483  0.0249 -0.0174 -0.3512
   60MOL   N20738085   0.403   0.155   3.606 -0.2610 -0.0492  0.7775
   60MOL   H20838086   0.382   0.999   3.124 -0.0042 -0.2314 -2.7831
   60MOL   H20938087   0.251   0.975   3.230 -0.8076 -0.6201  0.1533
   60MOL   H21038088   0.404   0.740   3.109  1.5144  0.4984  0.2512
   60MOL   H21138089   0.446   0.816   3.250  0.4299 -0.0066 -1.0062
   60MOL   H21238090   0.153   0.691   3.218  0.6181 -1.9312 -1.3427
   60MOL   H21338091   0.218   0.770   3.356 -2.5088 -0.7908 -0.8920
   60MOL   H21438092   0.225   0.540   3.402 -1.5617 -1.8929 -1.4865
   60MOL   H21538093   0.388   0.583   3.386 -0.4554 -0.4384  0.3236
   60MOL   H21638094   0.483   0.403   3.283  1.9084 -1.0799 -2.9078
   60MOL   H21738095   0.436   0.261   3.051  1.2290 -0.8001  0.1438
   60MOL   H21838096   0.327   0.186   3.167 -0.4591  1.3342  0.9781
   60MOL   H21938097   0.555   0.073   3.170  1.7151  1.3046 -1.7232
   60MOL   H22038098   0.622   0.222   3.232 -0.0131  0.2111  0.4332
   60MOL   H22138099   0.563   0.039   3.412 -1.9251 -0.1981  1.4282
   60MOL   H22238100   0.405   0.047   3.358  1.3189 -1.5369 -1.8456
   60MOL   H22338101   0.364   0.269   3.448 -0.0963 -0.2571 -0.4286
   60MOL   H22438102   0.546   0.269   3.490  0.8406 -1.0252 -2.7803
   60MOL   H22538103   0.321   0.100   3.588  1.1358 -1.1432 -2.5566
   60MOL   C22638104   0.467   0.150   3.724  0.6857 -0.5038  0.3869
   60MOL   O22738105   0.581   0.185   3.748 -0.2363  0.0520  0.0956
   60MOL   C22838106   0.381   0.109   3.841 -0.2527  0.8333 -0.7215
   60MOL   C22938107   0.461   0.015   3.936 -0.8511  0.2738  1.0758
   60MOL   C23038108   0.455   7.566   3.898  0.6423  0.3366  0.0044
   60MOL   C23138109   0.519   7.473   4.003  0.4394 -0.7518 -0.4764
   60MOL   C23238110   0.465   7.322   3.991 -0.0870 -0.6830  0.1613
   60MOL   O23338111   0.377   7.283   3.912 -0.4213 -0.2824  0.1522
   60MOL   N23438112   0.528   7.234   4.071 -0.4667 -0.1358  0.4642
   60MOL   C23538113   0.487   7.097   4.084 -0.5423 -0.2404  0.3812
   60MOL   C23638114   0.531   7.027   4.216 -0.5739  1.2019  0.3003
   60MOL   C23738115   0.482   6.883   4.200 -0.1488 -0.5723  0.3374
   60MOL   C23838116   0.537   6.779   4.297  0.0698 -0.3694 -0.1991
   60MOL   N23938117   0.527   6.816   4.437 -0.6242  0.2121  0.5573
   60MOL   H24038118   0.339   0.200   3.883  0.4726  1.5270 -1.4782
   60MOL   H24138119   0.298   0.046   3.808 -0.6267  1.7993 -1.6604
   60MOL   H24238120   0.568   0.033   3.948 -0.0575 -2.3382 -1.7248
   60MOL   H24338121   0.424   0.018   4.039 -1.8202  1.1244  0.7083
   60MOL   H24438122   0.485   7.545   3.795  2.2876  1.5680  0.2068
   60MOL   H24538123   0.348   7.546   3.896  0.5889  0.5643  0.6082
   60MOL   H24638124   0.518   7.508   4.106  2.6487  0.5180 -0.8479
   60MOL   H24738125   0.625   7.459   3.980  0.4339  0.3345 -1.2063
   60MOL   H24838126   0.595   7.267   4.140 -0.2139 -2.0627  1.1615
   60MOL   H24938127   0.539   7.051   4.000  0.0348  0.4180  0.3735
   60MOL   H25038128   0.379   7.083   4.072 -0.4585 -0.0118 -0.7252
   60MOL   H25138129   0.637   7.046   4.233 -0.4460  2.9469 -2.0863
   60MOL   H25238130   0.483   7.067   4.306  2.9173  2.2282  1.8041
   60MOL   H25338131   0.527   6.854   4.105  0.9034 -0.9002  0.9219
   60MOL   H25438132   0.375   6.874   4.184  0.3104 -0.6235 -3.1313
   60MOL   H25538133   0.639   6.751   4.271 -0.0511 -2.0885  1.1710
   60MOL   H25638134   0.484   6.686   4.278  2.5811 -1.5252 -1.8886
   60MOL   H25738135   0.458   6.888   4.452 -1.5132 -0.4199 -0.4115
   60MOL   C25838136   0.586   6.764   4.543 -0.7512 -0.0612 -0.0788
   60MOL   O25938137   0.660   6.668   4.531  0.0983 -0.2903  0.7138
   60MOL   C26038138   0.552   6.817   4.682  0.6356 -0.0213 -0.0690
   60MOL   C26138139   0.552   6.718   4.802  0.4329 -0.7096  0.9860
   60MOL   C26238140   0.464   6.595   4.784  0.2840 -0.1939  0.5555
   60MOL   C26338141   0.310   6.618   4.757 -0.0693 -1.1572 -0.1294
   60MOL   C26438142   0.237   6.628   4.894 -0.0290  0.6144 -0.6371
   60MOL   O26538143   0.296   6.614   5.000 -0.2887 -0.2103  0.3578
   60MOL   N26638144   0.097   6.644   4.886  0.2810 -0.5809 -0.0436
   60MOL   C26738145   7.699   6.646   4.990  0.1669 -0.0638  0.0016
   60MOL   C26838146   7.695   6.775   5.070 -1.0112  0.1916 -0.3947
   60MOL   C26938147   7.589   6.787   5.181  0.7032 -0.5880  0.0977
   60MOL   C27038148   7.621   6.874   5.294  0.0605  0.0139  0.6777
   60MOL   N27138149   7.551   6.842   5.417 -0.3814 -0.3173  0.1004
   60MOL   H27238150   0.625   6.896   4.698  0.2972 -0.1653  2.2712
   60MOL   H27338151   0.456   6.867   4.671  0.8144 -0.1738 -2.8498
   60MOL   H27438152   0.657   6.701   4.828  0.6959 -1.2400 -0.3828
   60MOL   H27538153   0.501   6.764   4.887 -0.0236  0.2175  0.2245
   60MOL   H27638154   0.475   6.521   4.863 -0.5455 -1.6475 -0.6456
   60MOL   H27738155   0.504   6.538   4.700 -0.4597 -2.2704  1.5753
   60MOL   H27838156   0.267   6.528   4.712 -2.0731  0.1265 -0.8634
   60MOL   H27938157   0.298   6.704   4.692  3.6595 -0.3217  0.1972
   60MOL   H28038158   0.054   6.643   4.794 -0.3926 -0.9146  0.2681
   60MOL   H28138159   0.020   6.557   5.049  1.4567 -0.4315 -1.0264
   60MOL   H28238160   7.594   6.633   4.965 -0.6428  0.8386  2.7242
   60MOL   H28338161   0.091   6.762   5.119 -1.8084 -2.2451  0.6027
   60MOL   H28438162   7.698   6.860   5.001  1.4174 -1.1077 -1.9603
   60MOL   H28538163   7.568   6.684   5.212  1.5199 -1.5982 -2.5969
   60MOL   H28638164   7.493   6.814   5.138  0.5205 -0.3962  0.6109
   60MOL   H28738165   7.597   6.975   5.260 -3.5136 -0.7502  0.7588
   60MOL   H28838166   0.024   6.871   5.323  0.3383 -3.5224 -0.4866
   60MOL   H28938167   7.588   6.770   5.477 -0.2089 -0.6307 -0.3790
   60MOL   C29038168   7.419   6.852   5.439  0.8059  0.2570  0.0196
   60MOL   O29138169   7.337   6.892   5.355 -0.6058 -0.0192  0.2204
   60MOL   C29238170   7.374   6.793   5.563  0.0830 -0.6554  0.5053
   60MOL   C29338171   7.299   6.663   5.551 -0.4645  0.6940  0.3671
   60MOL   C29438172   7.254   6.611   5.686 -0.4310 -0.3232 -0.0360
   60MOL   C29538173   7.183   6.473   5.682 -0.0621 -0.2313  0.2477
   60MOL   C29638174   7.144   6.415   5.818 -0.5620 -0.3425 -0.1584
   60MOL   O29738175   7.169   6.470   5.923  0.1720  0.3049  0.6429
   60MOL   N29838176   7.058   6.312   5.811  0.6427 -0.2898 -0.3992
   60MOL   C29938177   6.959   6.281   5.913  0.5738 -0.8902 -0.0779
   60MOL   C30038178   6.953   6.125   5.939 -0.0193 -0.0683 -0.0455
   60MOL   C30138179   7.082   6.070   6.007 -0.0175  0.2416 -0.2923
   60MOL   C30238180   7.079   5.916   5.999  0.6956  0.0666 -0.0844
   60MOL   N30338181   7.209   5.870   6.047  0.7763  0.0053  0.5410
   60MOL   H30438182   7.457   6.783   5.633  0.4031 -1.2116  0.0457
   60MOL   H30538183   7.310   6.873   5.600  0.3669  0.2323 -0.8894
   60MOL   H30638184   7.213   6.686   5.486 -1.1003  0.5521  1.1516
   60MOL   H30738185   7.364   6.588   5.506 -1.9652 -1.5353  1.8353
   60MOL   H30838186   7.192   6.677   5.746  0.6420 -1.4315  2.3530
   60MOL   H30938187   7.338   6.601   5.754 -0.3497  0.9503  0.0698
   60MOL   H31038188   7.240   6.390   5.641 -1.2218 -1.1853  0.5195
   60MOL   H31138189   7.093   6.487   5.621  0.7270  2.1171 -0.4533
   60MOL   H31238190   7.058   6.261   5.724 -2.2159 -1.4421  0.2564
   60MOL   H31338191   6.874   6.320   5.858  0.7965  0.1726  0.3173
   60MOL   H31438192   6.973   6.341   6.002 -0.2626  0.2784 -0.7193
   60MOL   H31538193   6.858   6.096   5.984 -0.4492  3.0404  1.1874
   60MOL   H31638194   6.948   6.079   5.840 -0.1746  0.7942 -0.4404
   60MOL   H31738195   7.088   6.092   6.114  4.3061  0.4361 -0.4892
   60MOL   H31838196   7.172   6.114   5.963  1.5739  2.1970  4.6191
   60MOL   H31938197   7.051   5.896   5.895  0.5230  1.3751 -0.3041
   60MOL   H32038198   6.994   5.888   6.060 -0.3662  0.5260 -1.3347
   60MOL   H32138199   7.296   5.894   6.001 -0.2427 -1.7669 -2.4547
   60MOL   C32238200   7.226   5.760   6.126 -0.7587 -0.5627  0.7513
   60MOL   O32338201   7.131   5.710   6.183  0.2207  0.0162  0.0641
   60MOL   C32438202   7.369   5.700   6.144  0.4051  0.1802  0.2306
   60MOL   C32538203   7.373   5.550   6.177  0.1624 -0.1108  0.8183
   60MOL   C32638204   7.518   5.496   6.194  0.4719  0.2184 -0.4407
   60MOL   C32738205   7.532   5.345   6.171 -0.4766 -0.1395  0.2837
   60MOL   C32838206   7.678   5.297   6.193  0.2980 -0.0339 -0.1469
   60MOL   O32938207   0.073   5.337   6.126 -0.2973  0.1408 -0.5722
   60MOL   N33038208   7.697   5.220   6.305 -0.4841  0.0486 -0.3097
   60MOL   C33138209   0.137   5.201   6.353  0.6237  0.5647 -0.1129
   60MOL   C33238210   0.140   5.101   6.469  0.4406 -0.1447 -0.5077
   60MOL   C33338211   0.276   5.095   6.543  0.5071 -1.0771  0.0065
   60MOL   C33438212   0.366   4.971   6.493 -0.1301  0.3414  0.2014
   60MOL   N33538213   0.352   4.949   6.352 -0.2341 -0.1298 -0.7863
   60MOL   H33638214   7.426   5.724   6.054 -0.6869 -0.8772 -0.7576
   60MOL   H33738215   7.409   5.757   6.227 -0.9021 -1.1825  1.8240
   60MOL   H33838216   7.315   5.527   6.266 -2.5243  0.7844 -0.6574
   60MOL   H33938217   7.326   5.495   6.095 -0.1744 -1.2290  1.7513
   60MOL   H34038218   7.552   5.516   6.295 -0.1882  1.3191 -0.4264
   60MOL   H34138219   7.583   5.543   6.120  0.5975 -0.3700 -0.7069
   60MOL   H34238220   7.517   5.334   6.063 -0.3380  1.3822  0.1001
   60MOL   H34338221   7.454   5.293   6.226 -1.4517  2.0607  1.0385
   60MOL   H34438222   7.618   5.205   6.366  0.6915 -0.4058  1.1236
   60MOL   H34538223   0.190   5.289   6.389  0.2949 -0.0629  2.0052
   60MOL   H34638224   0.188   5.157   6.267  0.4103 -0.0760  0.0847
   60MOL   H34738225   0.066   5.139   6.539  1.4549  0.0150  0.4961
   60MOL   H34838226   0.096   5.002   6.456 -0.4251  0.2031 -0.2181
   60MOL   H34938227   0.242   5.094   6.646  1.2219 -1.2876  0.2400
   60MOL   H35038228   0.334   5.185   6.520  0.0154 -0.7494  0.0172
   60MOL   H35138229   0.340   4.872   6.530  0.9821  0.5948  1.7407
   60MOL   H35238230   0.472   4.980   6.518 -0.3131 -0.4452  1.3029
   60MOL   H35338231   0.263   4.910   6.325  0.4054 -1.2868 -1.2589
   60MOL   C35438232   0.433   4.991   6.258  0.1934  0.1513 -0.2614
   60MOL   O35538233   0.545   5.036   6.278  0.2078 -0.4877 -0.8782
   60MOL   C35638234   0.373   4.986   6.118  0.1236  0.2566  0.5314
   60MOL   C35738235   0.427   5.090   6.020 -0.5491  0.2604  0.1862
   60MOL   C35838236   0.576   5.075   5.972 -0.7571 -0.1725 -0.6448
   60MOL   C35938237   0.631   5.200   5.889 -0.0091 -0.0154  0.0523
   60MOL   C36038238   0.769   5.196   5.826 -0.6181  0.4471  0.4807
   60MOL   O36138239   0.791   5.269   5.734  0.1213  0.0009 -0.0624
   60MOL   N36238240   0.862   5.106   5.874  0.1099 -0.3219 -0.0705
   60MOL   C36338241   0.981   5.058   5.803 -1.2126 -0.5373 -0.1924
   60MOL   C36438242   1.091   5.172   5.804  0.9423 -0.0122 -0.3124
   60MOL   C36538243   1.217   5.130   5.729 -0.6895 -0.2848 -0.2163
   60MOL   C36638244   1.209   5.150   5.577  1.1344 -0.1557  0.4919
   60MOL   N36738245   1.336   5.180   5.507 -0.0211  0.1775  0.4559
   60MOL   H36838246   0.392   4.888   6.075 -0.3318 -1.5159  4.1285
   60MOL   H36938247   0.265   4.996   6.127  0.1830 -0.3463  2.0904
   60MOL   H37038248   0.353   5.087   5.941 -0.2308 -0.1269 -0.0982
   60MOL   H37138249   0.423   5.191   6.060 -1.4772  0.4763 -0.4545
   60MOL   H37238250   0.587   4.979   5.922  1.6312  0.6620 -1.7848
   60MOL   H37338251   0.626   5.063   6.069  1.2847 -0.3906 -1.7023
   60MOL   H37438252   0.623   5.284   5.957  2.8250 -0.0188  0.4650
   60MOL   H37538253   0.564   5.223   5.806  0.5540 -1.5300 -0.8491
   60MOL   H37638254   0.848   5.052   5.958 -1.9751 -0.6308 -0.5930
   60MOL   H37738255   0.964   5.024   5.701 -0.1824  0.4574 -0.7118
   60MOL   H37838256   1.006   4.969   5.861  0.3655 -1.0226 -1.6015
   60MOL   H37938257   1.044   5.265   5.773 -1.5813 -0.2579  2.4035
   60MOL   H38038258   1.118   5.193   5.908  0.4313  2.5117 -0.6582
   60MOL   H38138259   1.246   5.027   5.749 -1.4249 -0.8570 -2.0365
   60MOL   H38238260   1.294   5.191   5.778  0.1795 -1.3230 -0.2837
   60MOL   H38338261   1.137   5.229   5.554  1.8989  0.4070  0.0168
   60MOL   H38438262   1.158   5.066   5.529 -1.1765  0.4908  1.7321
   60MOL   H38538263   1.379   5.269   5.528 -0.4025  1.1581 -2.6032
   60MOL   C38638264   1.400   5.080   5.440  0.6704  0.7754 -0.2862
   60MOL   O38738265   1.357   4.966   5.424 -0.0680  0.0477 -0.6315
   60MOL   C38838266   1.539   5.124   5.378  0.4466 -0.1108 -0.0092
   60MOL   C38938267   1.644   5.009   5.393 -0.2656  0.2685 -0.2458
   60MOL   C39038268   1.787   5.063   5.353 -0.0641 -0.3011 -0.5936
   60MOL   C39138269   1.897   4.964   5.401 -0.0700 -0.1578  0.2459
   60MOL   C39238270   1.936   4.950   5.550 -1.0776 -0.7817 -0.3530
   60MOL   O39338271   1.856   4.988   5.638  0.4337  0.6485 -0.0351
   60MOL   N39438272   2.059   4.907   5.584  0.1061 -0.1096 -0.1039
   60MOL   C39538273   2.104   4.893   5.719 -0.3294  0.2358  0.2780
   60MOL   C39638274   2.258   4.868   5.737 -0.4812  1.0232  0.1608
   60MOL   C39738275   2.307   4.859   5.883  0.0266  0.6925 -0.1492
   60MOL   C39838276   2.445   4.801   5.902  0.6320 -0.0206 -0.1364
   60MOL   N39938277   2.546   4.843   5.798 -0.5686  0.4522  0.1627
   60MOL   H40038278   1.519   5.151   5.274 -0.2855 -2.6286 -0.5625
   60MOL   H40138279   1.565   5.221   5.420  1.3339 -0.4148  0.1630
   60MOL   H40238280   1.644   4.983   5.499  1.4770  0.7969 -0.0962
   60MOL   H40338281   1.629   4.914   5.341 -2.4033 -0.9095  2.3982
   60MOL   H40438282   1.810   5.160   5.397 -1.9792  0.1413 -0.5095
   60MOL   H40538283   1.801   5.081   5.246  0.3239 -1.3215 -0.7141
   60MOL   H40638284   1.987   4.977   5.341  0.2423 -0.1783  0.7011
   60MOL   H40738285   1.868   4.860   5.384  0.3317 -0.1796 -0.2986
   60MOL   H40838286   2.121   4.884   5.508 -0.5971  1.8015 -1.2786
   60MOL   H40938287   2.043   4.825   5.778  0.5125  1.2761  2.4061
   60MOL   H41038288   2.087   4.991   5.763  4.8857  1.5091 -0.2598
   60MOL   H41138289   2.292   4.784   5.676 -0.9011  0.5035  0.6458
   60MOL   H41238290   2.322   4.943   5.690 -0.9700  1.3005 -0.0750
   60MOL   H41338291   2.236   4.796   5.936 -0.2438  0.3743 -0.8817
   60MOL   H41438292   2.314   4.959   5.926  2.5570 -0.7636  3.0293
   60MOL   H41538293   2.442   4.692   5.909 -1.1823 -0.2739 -3.4533
   60MOL   H41638294   2.492   4.825   5.997  0.8329  1.4960 -0.6032
   60MOL   H41738295   2.556   4.942   5.781 -3.7247  0.9327  0.9518
   60MOL   C41838296   2.628   4.754   5.736 -0.4543  0.4585  0.4832
   60MOL   O41938297   2.621   4.635   5.767  0.0233 -0.1615  0.1671
   60MOL   C42038298   2.728   4.792   5.629  0.4332 -0.5186 -0.3077
   60MOL   C42138299   2.671   4.787   5.480  0.4751 -0.5737 -0.0934
   60MOL   C42238300   2.534   4.863   5.463 -0.0207  0.2027  0.0332
   60MOL   C42338301   2.476   4.849   5.319  0.0339  0.5615  0.7177
   60MOL   C42438302   2.339   4.916   5.315  0.1534 -0.1737  0.0814
   60MOL   O42538303   2.248   4.853   5.380 -0.3221  0.3083 -0.4145
   60MOL   N42638304   2.323   5.035   5.263 -0.2178 -0.1764  0.3910
   60MOL   C42738305   2.208   5.119   5.268  0.0143 -0.1235 -0.0274
   60MOL   C42838306   2.241   5.264   5.225 -0.1158  0.6904  0.4600
   60MOL   C42938307   2.108   5.343   5.221  0.5306  0.5159 -0.6297
   60MOL   C43038308   2.126   5.490   5.234 -0.7830  0.2185  1.0709
   60MOL   N43138309   2.210   5.542   5.126 -0.6072 -0.1115 -0.2094
   60MOL   H43238310   2.750   4.899   5.633  0.2158 -0.3631 -2.5087
   60MOL   H43338311   2.826   4.747   5.645  0.5392  0.6876  2.7487
   60MOL   H43438312   2.732   4.828   5.399  0.3581  1.1509  0.6742
   60MOL   H43538313   2.649   4.682   5.466  0.3100 -0.6891  1.0344
   60MOL   H43638314   2.561   4.966   5.486  1.3849 -0.3102  0.7316
   60MOL   H43738315   2.465   4.824   5.538 -0.4541  1.6375  0.3944
   60MOL   H43838316   2.452   4.746   5.291 -0.9598  0.8406  0.5385
   60MOL   H43938317   2.536   4.890   5.238 -0.4695  3.1154  1.5933
   60MOL   H44038318   2.404   5.078   5.221  0.0123 -0.5758  0.4287
   60MOL   H44138319   2.162   5.118   5.367 -1.3465 -0.2544 -0.6435
   60MOL   H44238320   2.141   5.068   5.198 -0.6712  0.0214  0.5146
   60MOL   H44338321   2.323   5.306   5.283  1.1587  1.3095 -1.7353
   60MOL   H44438322   2.274   5.246   5.123 -0.0286  0.8505  0.4614
   60MOL   H44538323   2.044   5.317   5.305  2.1893 -0.3147  0.3952
   60MOL   H44638324   2.057   5.310   5.131  0.9991  0.7426 -0.9863
   60MOL   H44738325   2.177   5.513   5.328  0.5583  3.9601 -0.4693
   60MOL   H44838326   2.032   5.544   5.241 -0.0380  1.3734  2.4938
   60MOL   H44938327   2.302   5.504   5.112  0.0062  1.1488  0.4016
   60MOL   C45038328   2.187   5.650   5.054  0.5057 -0.1795  0.6051
   60MOL   O45138329   2.088   5.725   5.060  0.2593 -0.2757 -0.6211
   60MOL   C45238330   2.307   5.706   4.966 -0.6884 -0.2871  0.3358
   60MOL   C45338331   2.297   5.850   4.912 -0.6545 -0.3268 -0.4072
   60MOL   C45438332   2.298   5.971   5.010 -0.8679  0.1137  0.0773
   60MOL   C45538333   2.319   6.102   4.936 -0.4402  0.4299  0.3142
   60MOL   C45638334   2.323   6.225   5.030 -0.4689 -0.3533  0.8129
   60MOL   O45738335   2.315   6.216   5.151 -0.1640 -0.1592 -0.4562
   60MOL   N45838336   2.351   6.341   4.976  0.5489 -0.4160 -0.3845
   60MOL   C45938337   2.368   6.461   5.066 -0.6234 -0.0893  0.0436
   60MOL   C46038338   2.354   6.583   4.972 -0.1196 -0.0524 -0.6948
   60MOL   C46138339   2.409   6.717   5.033  0.2371  0.3697  0.2811
   60MOL   C46238340   2.365   6.834   4.940  0.3663 -0.5132  0.1273
   60MOL   N46338341   2.399   6.974   4.981  0.3417 -0.0125  0.0878
   60MOL   H46438342   2.389   5.698   5.038 -3.3339 -2.0348  3.3254
   60MOL   H46538343   2.316   5.630   4.888 -2.4008 -0.4713  0.3035
   60MOL   H46638344   2.369   5.871   4.833  0.3476  0.9072  0.8143
   60MOL   H46738345   2.199   5.855   4.864 -0.5563 -1.5883 -0.7441
   60MOL   H46838346   2.374   5.963   5.088 -1.4899  0.8563  0.7662
   60MOL   H46938347   2.213   5.969   5.078 -1.4621 -0.2651 -0.6833
   60MOL   H47038348   2.247   6.136   4.862  2.3085  0.1487 -2.6017
   60MOL   H47138349   2.412   6.104   4.880 -1.9428 -0.5285 -2.3370
   60MOL   H47238350   2.372   6.355   4.878 -2.2528  1.2552 -0.7973
   60MOL   H47338351   2.464   6.463   5.118 -0.2329 -0.0634 -0.6817
   60MOL   H47438352   2.295   6.458   5.148 -0.9226  1.8263 -0.1397
   60MOL   H47538353   2.399   6.568   4.874  1.1965 -1.3670  0.0958
   60MOL   H47638354   2.250   6.590   4.939 -0.7528 -0.1848  1.2076
   60MOL   H47738355   2.517   6.703   5.040  0.1735  0.0069  0.5339
   60MOL   H47838356   2.366   6.743   5.130  0.7273  2.4766 -0.0332
   60MOL   H47938357   2.256   6.831   4.934  0.1926 -1.2036  2.9777
   60MOL   H48038358   2.397   6.823   4.837  3.3046 -3.0125  1.2285
   60MOL   H48138359   2.476   7.014   4.930  2.3791 -2.7389  0.8854
   60MOL   C48238360   2.324   7.063   5.046  0.7183 -0.7110  1.0630
   60MOL   O48338361   2.217   7.038   5.099  0.1942  0.5229  0.2233
   60MOL   C48438362   2.371   7.204   5.039  0.1903  0.3002  0.4790
   60MOL   C48538363   2.404   7.253   5.176 -0.0310 -0.3601  0.2706
   60MOL   C48638364   2.527   7.187   5.237 -0.9482 -0.1853  0.2990
   60MOL   C48738365   2.530   7.162   5.386  0.0364  0.5912 -1.0012
   60MOL   C48838366   2.559   7.292   5.467  0.9282  0.5431 -0.8602
   60MOL   O48938367   2.496   7.391   5.430  0.0718 -0.2976 -0.4818
   60MOL   N49038368   2.646   7.290   5.572  0.5234 -0.4188  0.1013
   60MOL   C49138369   2.685   7.411   5.649 -0.5287  0.4432  0.0832
   60MOL   C49238370   2.834   7.404   5.679 -0.1941  0.2954 -0.3391
   60MOL   C49338371   2.885   7.530   5.755 -0.2064  0.5057  0.0715
   60MOL   C49438372   2.828   7.550   5.897 -0.2174  0.3090 -0.3138
   60MOL   N49538373   2.873   7.437   5.986  0.2653  0.5504  0.2101
   60MOL   H49638374   2.449   7.219   4.965 -0.3121  0.4775 -0.0131
   60MOL   H49738375   2.291   7.262   4.993  1.3714 -0.2817 -2.4263
   60MOL   H49838376   2.396   7.362   5.181  0.4768 -0.1713 -2.1965
   60MOL   H49938377   2.320   7.241   5.244  1.8843  0.4686  2.8971
   60MOL   H50038378   2.607   7.252   5.201 -2.2147  1.1662 -0.1073
   60MOL   H50138379   2.544   7.089   5.193 -3.4977 -0.3133 -0.4751
   60MOL   H50238380   2.617   7.097   5.396  0.0288  0.5866 -0.9678
   60MOL   H50338381   2.438   7.115   5.420  0.5812  0.3510  0.1469
   60MOL   H50438382   2.689   7.202   5.597  0.4563 -0.0690  1.4618
   60MOL   H50538383   2.620   7.418   5.737 -2.2268  0.5174 -1.1386
   60MOL   H50638384   2.673   7.501   5.589  0.2860 -1.4050 -3.0003
   60MOL   H50738385   2.859   7.312   5.732 -1.0869 -0.0488 -0.4944
   60MOL   H50838386   2.882   7.406   5.581  2.3014 -2.7919  0.7445
   60MOL   H50938387   2.847   7.613   5.696 -1.3130 -1.0837 -1.4911
   60MOL   H51038388   2.994   7.520   5.751 -0.1821 -1.4703  3.5961
   60MOL   H51138389   2.720   7.545   5.900 -0.0602 -3.6185  3.1931
   60MOL   H51238390   2.857   7.648   5.934  2.3271 -0.7501  0.6179
   60MOL   H51338391   2.806   7.362   5.986 -0.5827  1.2790  1.8336
   60MOL   C51438392   2.984   7.430   6.050 -0.0457  1.1762 -0.1315
   60MOL   O51538393   3.066   7.520   6.041  0.1473  0.1609  0.0186
   60MOL   C51638394   3.014   7.295   6.115  0.3204  0.3217 -0.1887
   60MOL   C51738395   3.087   7.304   6.252  0.5579 -0.3104  0.5357
   60MOL   C51838396   3.113   7.178   6.340  0.0682  0.0736 -0.4605
   60MOL   C51938397   3.182   7.063   6.266 -0.0319  0.4389 -0.7453
   60MOL   C52038398   3.327   7.105   6.224  0.1065  0.1898 -0.7900
   60MOL   O52138399   3.406   7.167   6.296 -0.0148 -0.9464 -0.6337
   60MOL   N52238400   3.357   7.070   6.099  0.6325 -0.6839  0.8549
   60MOL   C52338401   3.494   7.057   6.050  0.1206 -0.7751 -0.7090
   60MOL   C52438402   3.521   6.904   6.027  0.1031 -0.4334  0.5404
   60MOL   C52538403   3.660   6.874   5.966 -0.7628 -0.7384 -0.1202
   60MOL   C52638404   3.665   6.724   5.937 -0.1399  0.0940  0.2729
   60MOL   N52738405   3.581   6.695   5.824 -0.1066  0.1788 -0.9534
   60MOL   H52838406   2.919   7.242   6.124  0.9911 -0.8729 -0.0504
   60MOL   H52938407   3.072   7.245   6.038 -1.9004 -1.9139 -0.5032
   60MOL   H53038408   3.187   7.341   6.227  2.0032 -3.2050  1.7741
   60MOL   H53138409   3.041   7.381   6.313 -0.7223 -1.8726  1.5582
   60MOL   H53238410   3.010   7.162   6.374  0.4162 -0.5419  0.3408
   60MOL   H53338411   3.179   7.193   6.426 -1.3683  0.5226  0.5780
   60MOL   H53438412   3.125   7.028   6.179 -0.7275  0.7051 -0.4018
   60MOL   H53538413   3.186   6.968   6.319 -1.2058 -0.3838 -2.0614
   60MOL   H53638414   3.292   7.023   6.037  0.5410  1.7305 -0.9611
   60MOL   H53738415   3.568   7.096   6.119 -1.3758 -0.6107  0.8469
   60MOL   H53838416   3.507   7.107   5.954  2.8266 -1.5374 -0.7838
   60MOL   H53938417   3.518   6.855   6.124 -0.2138 -0.2634  0.6171
   60MOL   H54038418   3.449   6.853   5.964  1.9884  0.2928 -2.2957
   60MOL   H54138419   3.744   6.905   6.029 -1.6689 -0.2294  0.8651
   60MOL   H54238420   3.681   6.942   5.884  1.0230  0.8689  1.6156
   60MOL   H54338421   3.634   6.669   6.026  0.0927  0.9458  0.8888
   60MOL   H54438422   3.763   6.683   5.910 -0.7007 -0.7360 -0.5253
   60MOL   H54538423   3.545   6.777   5.776 -0.9173  1.5160  1.8698
   60MOL   C54638424   3.555   6.577   5.773  0.6603  0.0133 -0.0528
   60MOL   O54738425   3.588   6.468   5.831 -0.0165  0.5300 -0.6351
   60MOL   C54838426   3.491   6.556   5.640 -0.6101  0.3365 -0.3294
   60MOL   C54938427   3.370   6.471   5.637 -0.2108  0.7561 -0.0781
   60MOL   C55038428   3.250   6.546   5.712 -0.7794 -0.8173 -0.1652
   60MOL   C55138429   3.220   6.692   5.675 -0.4684  0.0226 -0.0843
   60MOL   C55238430   3.193   6.702   5.523  0.0701 -0.0114 -0.1928
   60MOL   O55338431   3.081   6.688   5.475  0.3136  0.8824  0.9540
   60MOL   N55438432   3.298   6.732   5.444 -0.1104 -0.2351 -0.7081
   60MOL   C55538433   3.292   6.755   5.303  0.1842  0.1851  0.9692
   60MOL   C55638434   3.267   6.634   5.209  0.5910  0.4160  0.1388
   60MOL   C55738435   3.284   6.662   5.057 -0.5422  0.1452  0.6402
   60MOL   C55838436   3.246   6.542   4.972  0.3196 -0.1533 -0.4577
   60MOL   N55938437   3.101   6.516   4.982  0.0765 -0.4076 -0.2124
   60MOL   H56038438   3.473   6.655   5.596  0.8648  1.8074  2.2570
   60MOL   H56138439   3.569   6.506   5.582 -1.9071 -1.4640 -0.5547
   60MOL   H56238440   3.343   6.451   5.533 -0.2512 -1.5521  0.3380
   60MOL   H56338441   3.400   6.377   5.684  2.5522  1.6156 -0.0565
   60MOL   H56438442   3.288   6.549   5.814  1.1654  0.7037 -0.9154
   60MOL   H56538443   3.162   6.482   5.721 -0.4787 -1.2229 -0.1209
   60MOL   H56638444   3.305   6.756   5.697 -0.4290  0.1151 -0.5101
   60MOL   H56738445   3.137   6.734   5.732 -0.1135 -0.1961  0.6006
   60MOL   H56838446   3.385   6.734   5.496 -0.1403  0.0916 -0.6686
   60MOL   H56938447   3.389   6.798   5.276  1.1674 -1.0751  2.4634
   60MOL   H57038448   3.221   6.837   5.287  0.0140  0.0401  0.9783
   60MOL   H57138449   3.340   6.555   5.222 -1.4711 -1.4770  0.5517
   60MOL   H57238450   3.167   6.593   5.227  1.3920 -0.5112  2.5659
   60MOL   H57338451   3.390   6.680   5.041 -0.1841 -3.0035 -0.7717
   60MOL   H57438452   3.236   6.758   5.035  2.0836  1.1713 -0.7863
   60MOL   H57538453   3.297   6.450   5.001  1.7369  1.3583  1.9376
   60MOL   H57638454   3.279   6.573   4.873  0.5218  2.0659  0.2750
   60MOL   H57738455   3.077   6.422   5.009 -1.0728 -0.2556 -0.6897
   60MOL   C57838456   3.000   6.602   4.955 -0.0124 -0.2629 -0.2314
   60MOL   O57938457   3.016   6.712   4.901 -0.1619 -0.2877  0.0440
   60MOL   C58038458   2.858   6.562   5.001 -0.4268 -0.4544  0.2116
   60MOL   C58138459   2.760   6.549   4.886  0.2523  0.1107  0.1148
   60MOL   C58238460   2.764   6.414   4.807 -0.1960 -0.3139 -0.3603
   60MOL   C58338461   2.900   6.402   4.740  0.3332  0.5362  0.4086
   60MOL   C58438462   2.884   6.306   4.629 -0.0606 -0.0983  0.4515
   60MOL   O58538463   2.858   6.193   4.657  0.0803  0.3193  0.7558
   60MOL   N58638464   2.890   6.348   4.500  0.2827  0.1411  0.2295
   60MOL   C58738465   2.870   6.272   4.373 -0.6312 -1.1334 -0.6262
   60MOL   C58838466   2.748   6.323   4.300  0.7232 -0.1666 -0.3425
   60MOL   C58938467   2.727   6.248   4.168  0.0897  0.4274 -0.0726
   60MOL   C59038468   2.582   6.258   4.106  0.1293 -0.4385  0.7304
   60MOL   N59138469   2.581   6.162   4.002 -0.5927 -0.1989 -0.3370
   60MOL   H59238470   2.869   6.461   5.042 -1.6607 -1.4036 -1.7260
   60MOL   H59338471   2.831   6.642   5.070  0.7311  0.0558  0.0875
   60MOL   H59438472   2.656   6.561   4.916 -1.1954 -1.1897 -4.0673
   60MOL   H59538473   2.774   6.624   4.808  1.7823  0.9932  1.1957
   60MOL   H59638474   2.686   6.422   4.732 -0.2344 -0.2164 -0.3107
   60MOL   H59738475   2.737   6.330   4.870  0.0077  1.3487  2.0293
   60MOL   H59838476   2.975   6.373   4.812  1.1472  3.9125  1.0007
   60MOL   H59938477   2.938   6.494   4.695 -1.9435  1.3061 -0.0476
   60MOL   H60038478   2.914   6.446   4.493  1.1820 -0.0929 -0.0423
   60MOL   H60138479   2.863   6.165   4.389 -1.2159 -0.9018  0.6906
   60MOL   H60238480   2.966   6.291   4.324  0.9475 -2.7868  1.7319
   60MOL   H60338481   2.661   6.316   4.366  0.3790 -0.7455 -0.8520
   60MOL   H60438482   2.754   6.431   4.284  0.7773 -0.3086 -1.2624
   60MOL   H60538483   2.754   6.143   4.180  0.3537  0.7106  2.0595
   60MOL   H60638484   2.798   6.294   4.099  0.6436  1.0909  0.9287
   60MOL   H60738485   2.576   6.358   4.063  1.4154 -0.2117  1.0771
   60MOL   H60838486   2.496   6.248   4.173  0.0909 -2.0992  0.4430
   60MOL   H60938487   2.649   6.087   4.004  0.9883  1.2527  2.5346
   60MOL   C61038488   2.498   6.154   3.897 -0.6026 -0.7144  0.4474
   60MOL   O61138489   2.408   6.232   3.874 -0.4637  0.3323 -0.0356
   60MOL   C61238490   2.523   6.035   3.804 -0.2228 -0.4539  0.3601
   60MOL   C61338491   2.443   6.052   3.675 -0.3104  0.2687 -0.3987
   60MOL   C61438492   2.488   5.960   3.565 -0.0019  0.0507 -0.2151
   60MOL   C61538493   2.443   5.812   3.558 -0.2598 -0.1866  0.6498
   60MOL   C61638494   2.553   5.719   3.505  0.2719 -0.1660  0.2099
   60MOL   O61738495   2.632   5.758   3.418  0.5346 -0.0743  0.2103
   60MOL   N61838496   2.549   5.592   3.560  0.8356  0.1307 -0.7493
   60MOL   C61938497   2.645   5.487   3.534  0.4290  0.4680  0.5129
   60MOL   C62038498   2.625   5.412   3.402  0.2155 -0.7880 -0.4692
   60MOL   C62138499   2.476   5.373   3.374 -0.1748 -0.2661  0.8005
   60MOL   C62238500   2.440   5.308   3.236  0.3361  0.0466  0.2321
   60MOL   N62338501   2.303   5.248   3.242 -0.0643 -0.0121 -0.0492
   60MOL   H62438502   2.628   6.019   3.782 -0.7052 -0.3514 -2.1174
   60MOL   H62538503   2.488   5.943   3.852  0.2783 -0.6182  0.4123
   60MOL   H62638504   2.339   6.027   3.696 -0.7770  2.7309  0.3709
   60MOL   H62738505   2.436   6.152   3.635 -0.0235  1.5283  2.5352
   60MOL   H62838506   2.597   5.966   3.563 -0.0405  1.6241  1.7438
   60MOL   H62938507   2.445   5.992   3.470  0.4244 -0.2325 -0.5060
   60MOL   H63038508   2.344   5.798   3.514  0.1163  1.5138 -0.8015
   60MOL   H63138509   2.429   5.779   3.661 -3.8520  0.2998  0.3921
   60MOL   H63238510   2.459   5.573   3.601  1.2591 -0.8079 -0.2271
   60MOL   H63338511   2.644   5.420   3.620 -0.8138 -1.4037 -0.9331
   60MOL   H63438512   2.743   5.534   3.541  0.4571  0.3336  1.0604
   60MOL   H63538513   2.659   5.483   3.326 -0.3633  0.0254  0.0248
   60MOL   H63638514   2.687   5.322   3.402  0.7703 -0.4106 -0.3206
   60MOL   H63738515   2.410   5.460   3.374 -0.4740 -0.4946  0.7872
   60MOL   H63838516   2.444   5.314   3.460 -1.5068  0.8616  1.0966
   60MOL   H63938517   2.502   5.219   3.221 -1.8498 -1.7568  1.5918
   60MOL   H64038518   2.445   5.375   3.151 -2.1167 -0.1912 -0.1276
   60MOL   H64138519   2.301   5.165   3.299 -2.0355 -0.3493 -0.5508
   60MOL   H64238520   2.286   5.212   3.149 -2.8221 -0.2152  0.4899
   61MOL     C138521   1.555   0.349   5.703  0.6314 -0.1379 -0.1390
   61MOL     O238522   1.500   0.401   5.801  0.2992 -0.5773 -1.0133
   61MOL     C338523   1.476   0.336   5.575 -0.2072 -0.7952  0.9739
   61MOL     C438524   1.375   0.451   5.552  0.0170  0.4571 -0.4858
   61MOL     C538525   1.435   0.545   5.448 -0.0128 -0.5800 -0.9596
   61MOL     C638526   1.330   0.623   5.365  0.2974 -0.0978  0.6061
   61MOL     C738527   1.263   0.739   5.441 -0.7133  0.0083  0.3730
   61MOL     O838528   1.238   0.724   5.559  0.1117  0.4102  0.2606
   61MOL     N938529   1.254   0.852   5.366  0.9908 -0.0928 -0.3852
   61MOL    C1038530   1.189   0.973   5.411  0.4921  0.7646 -0.7969
   61MOL    C1138531   1.035   0.959   5.413  0.2910 -0.2857  0.1125
   61MOL    C1238532   0.964   1.085   5.433  0.5700 -1.1553 -0.4870
   61MOL    C1338533   0.814   1.065   5.437 -0.4263 -0.0159 -0.0593
   61MOL    N1438534   0.753   1.184   5.470  0.5530 -1.0006 -0.1912
   61MOL    H1538535   1.548   0.318   5.495  2.9463  1.3878  3.2033
   61MOL    H1638536   1.417   0.245   5.587 -1.2692 -0.4126 -1.1130
   61MOL    H1738537   1.289   0.398   5.513 -0.2989  0.4412  0.2434
   61MOL    H1838538   1.344   0.511   5.637  1.2262 -2.4608  2.0885
   61MOL    H1938539   1.499   0.504   5.370  1.6992  1.2518 -0.5703
   61MOL    H2038540   1.496   0.616   5.504 -2.9111  0.6364  0.7347
   61MOL    H2138541   1.260   0.555   5.317  0.6950  0.1217 -0.2913
   61MOL    H2238542   1.377   0.664   5.276  0.2727 -3.0420 -0.8120
   61MOL    H2338543   1.277   0.843   5.268 -0.4705 -2.0845 -0.5889
   61MOL    H2438544   1.221   1.042   5.332  4.2484 -2.2680 -2.1132
   61MOL    H2538545   1.230   0.995   5.509 -2.0364  1.8298  0.0602
   61MOL    H2638546   1.003   0.903   5.325  3.6039 -0.4398 -1.0827
   61MOL    H2738547   0.997   0.887   5.484  0.1152  1.0166  1.3669
   61MOL    H2838548   0.997   1.154   5.355  2.5972 -2.5301 -0.8951
   61MOL    H2938549   0.992   1.126   5.530 -0.2822 -0.3611 -0.5759
   61MOL    H3038550   0.789   0.983   5.505 -1.3179 -1.5396 -2.1565
   61MOL    H3138551   0.765   1.024   5.349  2.1842 -0.4350 -1.3680
   61MOL    H3238552   0.737   1.251   5.397 -0.4240 -0.1179  0.8302
   61MOL    H3338553   1.654   0.304   5.699  0.1298 -1.2487 -0.3440
   61MOL    C3438554   0.734   1.226   5.601 -0.1266 -0.2344 -0.7116
   61MOL    O3538555   0.762   1.154   5.694 -0.9986 -0.0723 -0.4891
   61MOL    C3638556   0.710   1.374   5.634 -0.4408  0.0396  0.4774
   61MOL    C3738557   0.591   1.404   5.732 -0.2043 -0.0426  0.3327
   61MOL    C3838558   0.452   1.392   5.661  0.5000 -0.1897 -0.0303
   61MOL    C3938559   0.347   1.462   5.752  0.4554  0.8095 -0.0156
   61MOL    C4038560   0.263   1.351   5.828 -0.1682  0.1325  0.3936
   61MOL    O4138561   0.182   1.282   5.765 -0.1859  0.5023 -0.3753
   61MOL    N4238562   0.277   1.345   5.957  0.2343 -0.2270  0.0865
   61MOL    C4338563   0.194   1.249   6.041 -0.0163 -0.2539 -0.2081
   61MOL    C4438564   0.196   1.309   6.182 -0.3741  0.2631  0.0113
   61MOL    C4538565   0.136   1.217   6.289 -0.1605  0.5999  0.0524
   61MOL    C4638566   0.215   1.083   6.300  0.0546 -1.0726  0.0005
   61MOL    N4738567   0.187   1.018   6.425 -0.8828 -0.5896  0.7267
   61MOL    H4838568   0.802   1.417   5.672 -0.9072 -0.2072  1.9329
   61MOL    H4938569   0.698   1.420   5.536 -0.8037 -4.1707 -1.5675
   61MOL    H5038570   0.597   1.333   5.815  2.1990  0.9678  1.0739
   61MOL    H5138571   0.604   1.507   5.765  0.1279 -0.4068  1.3630
   61MOL    H5238572   0.425   1.288   5.648 -0.6105  0.0240  0.5512
   61MOL    H5338573   0.470   1.446   5.568 -0.4201 -1.6575 -1.0678
   61MOL    H5438574   0.281   1.516   5.684 -0.3124 -0.7109 -0.5043
   61MOL    H5538575   0.395   1.534   5.819  2.3742 -1.5489  1.2031
   61MOL    H5638576   0.319   1.424   6.004  1.2205  0.1773 -1.4685
   61MOL    H5738577   0.244   1.152   6.040  0.2863 -0.0862 -1.2819
   61MOL    H5838578   0.092   1.237   6.007 -0.5321  1.1185  0.7862
   61MOL    H5938579   0.299   1.341   6.201 -0.6906  0.6900  1.0702
   61MOL    H6038580   0.144   1.405   6.187 -1.5785 -0.4157  0.7622
   61MOL    H6138581   0.033   1.191   6.264 -0.7342  0.2853  2.6028
   61MOL    H6238582   0.148   1.256   6.390  0.9726 -0.9386  0.5380
   61MOL    H6338583   0.323   1.093   6.294 -0.1103  0.9070  0.0450
   61MOL    H6438584   0.181   1.019   6.219  1.7504 -1.6850 -0.2443
   61MOL    H6538585   0.111   0.951   6.427  0.3838 -2.1009 -0.1295
   61MOL    C6638586   0.258   1.036   6.534 -1.2457 -0.2019 -0.2563
   61MOL    O6738587   0.365   1.105   6.532 -0.4134  0.2022  0.4099
   61MOL    C6838588   0.205   0.979   6.661  0.9658  0.0849  0.1719
   61MOL    C6938589   0.267   1.057   6.782 -0.1992  0.7318  0.1769
   61MOL    C7038590   0.205   1.200   6.799  0.0917 -0.0348 -0.3522
   61MOL    C7138591   0.236   1.288   6.918  0.5345  0.5382 -0.2487
   61MOL    C7238592   0.386   1.318   6.940 -0.4485  0.6576  0.6794
   61MOL    O7338593   0.465   1.229   6.968 -0.1455  0.9380  0.2238
   61MOL    N7438594   0.423   1.439   6.905 -0.4966 -0.0688  0.1075
   61MOL    C7538595   0.558   1.485   6.922  0.8521  0.4486 -0.3304
   61MOL    C7638596   0.650   1.447   6.799 -0.2712  0.2322 -0.3186
   61MOL    C7738597   0.792   1.486   6.820 -0.0461  0.2885 -0.2737
   61MOL    C7838598   0.884   1.487   6.684  0.0162 -0.4680  0.9783
   61MOL    N7938599   0.890   1.355   6.618  0.2733 -0.2347  0.9552
   61MOL    H8038600   0.096   0.983   6.657  1.0551  0.7768 -3.1670
   61MOL    H8138601   0.235   0.875   6.674 -1.7896 -1.0266 -1.8432
   61MOL    H8238602   0.241   0.999   6.871 -2.0031  0.1944 -0.6687
   61MOL    H8338603   0.375   1.064   6.775  0.0157  0.7117  2.9816
   61MOL    H8438604   0.097   1.187   6.792 -0.4663  2.2454  2.6505
   61MOL    H8538605   0.238   1.257   6.712 -0.1643 -1.6657 -1.5312
   61MOL    H8638606   0.195   1.233   7.002  0.4187  1.5983  0.3842
   61MOL    H8738607   0.171   1.375   6.913 -1.0341 -0.5780  0.5332
   61MOL    H8838608   0.354   1.510   6.885  1.4439  1.7678 -0.2334
   61MOL    H8938609   0.605   1.461   7.018  1.1664  0.5451 -0.4582
   61MOL    H9038610   0.549   1.594   6.918  1.7471  0.5821  0.8768
   61MOL    H9138611   0.652   1.338   6.794  2.2415  0.1922  1.0174
   61MOL    H9238612   0.608   1.477   6.702  0.0028 -3.3094 -1.6100
   61MOL    H9338613   0.834   1.439   6.909  5.1768  0.4240 -2.4824
   61MOL    H9438614   0.797   1.592   6.847  2.5843  0.6974 -2.1781
   61MOL    H9538615   0.981   1.520   6.721  0.4883  0.8270 -1.3022
   61MOL    H9638616   0.849   1.561   6.612  3.0169  1.6455  1.6010
   61MOL    H9738617   0.828   1.328   6.543  0.3147  0.7905  0.5545
   61MOL    C9838618   0.950   1.249   6.669 -0.6456 -0.3823  0.1176
   61MOL    O9938619   1.013   1.252   6.775  0.3485 -0.7912  0.1499
   61MOL   C10038620   0.930   1.114   6.585  0.6293  0.5734  0.6642
   61MOL   C10138621   1.019   1.006   6.634 -0.0267  0.0867 -0.0586
   61MOL   C10238622   1.061   0.886   6.539  0.6915  0.7345 -0.6054
   61MOL   C10338623   0.956   0.778   6.518  0.1035  0.4261  0.4168
   61MOL   C10438624   0.852   0.828   6.412  0.3365  0.1720  0.6208
   61MOL   O10538625   0.880   0.911   6.322 -0.6774  0.0143 -0.1817
   61MOL   N10638626   0.733   0.766   6.419  0.2604  0.5072 -0.2544
   61MOL   C10738627   0.620   0.812   6.343 -0.1829  0.0177  0.1686
   61MOL   C10838628   0.501   0.720   6.361  0.0028  0.0620 -0.2136
   61MOL   C10938629   0.395   0.734   6.245  0.3429  0.1254  0.1929
   61MOL   C11038630   0.294   0.617   6.232  0.2906 -0.6436  0.5273
   61MOL   N11138631   0.170   0.664   6.171  0.7582  0.3496 -0.1325
   61MOL   H11238632   0.824   1.088   6.590  0.2354  1.8752 -0.5212
   61MOL   H11338633   0.948   1.136   6.479 -0.8314  0.3750  0.3607
   61MOL   H11438634   1.109   1.055   6.671 -1.8237  2.8476  0.7616
   61MOL   H11538635   0.973   0.966   6.725  0.4508 -1.3539 -0.4292
   61MOL   H11638636   1.137   0.848   6.608 -0.6047  0.7797  0.8701
   61MOL   H11738637   1.103   0.933   6.450 -0.5545  1.9951 -0.5342
   61MOL   H11838638   0.920   0.757   6.619 -0.6254  0.8972  0.2621
   61MOL   H11938639   0.995   0.683   6.482 -0.4118  0.2379  0.3534
   61MOL   H12038640   0.720   0.692   6.486  0.6485 -1.6232 -2.4832
   61MOL   H12138641   0.634   0.812   6.235  1.6194  0.5160  0.3771
   61MOL   H12238642   0.590   0.913   6.371 -2.1639 -1.0206  1.9001
   61MOL   H12338643   0.532   0.617   6.343 -2.0486 -0.4735 -0.7325
   61MOL   H12438644   0.459   0.724   6.461  1.8395 -0.5097  0.6185
   61MOL   H12538645   0.441   0.766   6.151 -0.4493 -0.5601 -0.4357
   61MOL   H12638646   0.339   0.828   6.246 -0.3282 -0.1994 -2.2737
   61MOL   H12738647   0.281   0.582   6.334  0.9162 -0.0133  0.8231
   61MOL   H12838648   0.337   0.536   6.173 -0.4018 -0.0128 -0.8565
   61MOL   H12938649   0.160   0.651   6.071  3.2791  0.5501 -0.4363
   61MOL   C13038650   0.070   0.724   6.237  0.1638  0.4488  0.7561
   61MOL   O13138651   0.062   0.747   6.363  0.0833  0.1941 -0.1235
   61MOL   C13238652   7.645   0.749   6.156 -0.1165 -0.1495  0.1399
   61MOL   C13338653   7.544   0.846   6.212  0.3457 -0.4673  0.2036
   61MOL   C13438654   7.448   0.787   6.315 -0.7907  0.1088 -0.4931
   61MOL   C13538655   7.378   0.895   6.405 -1.0953 -0.1357 -0.0436
   61MOL   C13638656   7.354   0.838   6.546  0.5944  0.0116  0.4058
   61MOL   O13738657   7.305   0.727   6.556  0.4177  0.3370 -0.1938
   61MOL   N13838658   7.382   0.904   6.656  0.5650 -0.2674  0.0030
   61MOL   C13938659   7.361   0.857   6.793  0.1474  0.0384 -0.3315
   61MOL   C14038660   7.476   0.890   6.886  0.6759 -0.0607 -0.9106
   61MOL   C14138661   7.440   0.871   7.033  0.0586 -0.0628 -0.2828
   61MOL   C14238662   7.566   0.883   7.121  0.0043 -0.1611 -0.4997
   61MOL   N14338663   7.521   0.850   7.254 -0.2331 -0.4022  0.6224
   61MOL   H14438664   7.677   0.773   6.054 -1.3727  0.6359 -0.0892
   61MOL   H14538665   7.593   0.654   6.146 -2.7648  1.2655 -0.0460
   61MOL   H14638666   7.598   0.930   6.255  1.2314 -0.5767 -0.6529
   61MOL   H14738667   7.485   0.880   6.126  0.0538 -0.9155  0.2272
   61MOL   H14838668   7.507   0.731   6.387 -0.5052 -0.6110 -1.2906
   61MOL   H14938669   7.377   0.718   6.270 -0.2742  0.0376 -1.2014
   61MOL   H15038670   7.287   0.936   6.361 -1.3231 -2.0656 -1.3960
   61MOL   H15138671   7.452   0.975   6.412 -1.4991  0.0902  1.8961
   61MOL   H15238672   7.429   0.993   6.660  0.3532 -0.1853  0.7809
   61MOL   H15338673   7.330   0.752   6.800 -0.6228  0.2618 -0.3904
   61MOL   H15438674   7.274   0.914   6.824 -0.6057  0.0946 -2.4544
   61MOL   H15538675   7.564   0.832   6.858  0.9256 -0.3982  0.5673
   61MOL   H15638676   7.503   0.995   6.872  1.2431 -0.1376 -0.3800
   61MOL   H15738677   7.394   0.773   7.033  0.4951 -0.2684  0.0842
   61MOL   H15838678   7.360   0.934   7.072 -1.0112 -1.0684 -0.8608
   61MOL   H15938679   7.614   0.981   7.117 -1.8453  0.7684 -0.7093
   61MOL   H16038680   7.635   0.814   7.072  0.7193  0.6282 -0.6256
   61MOL   H16138681   7.423   0.866   7.276  0.4960  2.5761  1.8968
   61MOL   C16238682   7.596   0.781   7.343 -0.3422  0.7606  0.3449
   61MOL   O16338683   0.012   0.755   7.329  0.1994  0.0092 -0.3211
   61MOL   C16438684   7.523   0.737   7.469  0.3983 -0.2663 -0.4020
   61MOL   C16538685   7.560   0.600   7.516 -0.3985 -0.5398  0.2866
   61MOL   C16638686   7.537   0.495   7.409 -0.0123 -0.6703  0.6999
   61MOL   C16738687   7.396   0.475   7.345  0.1131  0.0871 -0.8968
   61MOL   C16838688   7.402   0.364   7.244  0.3732  0.1920 -0.0407
   61MOL   O16938689   7.492   0.352   7.166 -0.0349  0.2978  0.2228
   61MOL   N17038690   7.296   0.280   7.253 -0.0797  0.1099 -0.1193
   61MOL   C17138691   7.272   0.154   7.181  0.9370  0.1748  0.6102
   61MOL   C17238692   7.222   0.189   7.037 -0.4115  0.4558 -0.2493
   61MOL   C17338693   7.181   0.055   6.971  0.3420 -0.4804  1.1869
   61MOL   C17438694   7.119   0.079   6.830 -0.5143  0.2012  0.0555
   61MOL   N17538695   7.113   7.664   6.745  0.7758 -0.5054 -0.4047
   61MOL   H17638696   7.528   0.810   7.550  0.7792 -1.9516  1.1291
   61MOL   H17738697   7.417   0.729   7.446  0.0805  0.1764  0.8496
   61MOL   H17838698   7.664   0.592   7.549 -0.5605 -0.9370  0.7164
   61MOL   H17938699   7.498   0.575   7.603  0.6638 -1.0152  0.9138
   61MOL   H18038700   7.563   0.405   7.464 -1.2313 -0.9155  0.8971
   61MOL   H18138701   7.617   0.495   7.335 -0.2875 -0.3174  0.4021
   61MOL   H18238702   7.377   0.564   7.286  2.8598  0.4679 -1.3008
   61MOL   H18338703   7.323   0.465   7.425  0.4819 -0.4501 -0.6247
   61MOL   H18438704   7.227   0.305   7.322 -1.5697  0.0001 -1.5374
   61MOL   H18538705   7.195   0.099   7.235  2.0972 -1.3572  0.7226
   61MOL   H18638706   7.362   0.093   7.186 -0.3522 -1.7837  0.2777
   61MOL   H18738707   7.130   0.247   7.036 -1.6264 -1.4054 -0.1504
   61MOL   H18838708   7.304   0.242   6.988 -0.3454  0.8740  0.3098
   61MOL   H18938709   7.103   0.013   7.035 -1.5070  0.1783 -0.5864
   61MOL   H19038710   7.265   7.687   6.962 -1.0435 -2.2251  1.3788
   61MOL   H19138711   7.158   0.161   6.771 -1.5568  2.0775  1.9132
   61MOL   H19238712   7.019   0.118   6.849 -0.2474 -0.5631  3.1841
   61MOL   H19338713   7.141   7.677   6.649  3.1690 -0.1154  0.3244
   61MOL   C19438714   7.037   7.553   6.764 -0.2140  0.2307 -0.6019
   61MOL   O19538715   6.979   7.539   6.869  0.3974  0.2806 -0.3644
   61MOL   C19638716   7.034   7.447   6.649  0.1627  0.2294 -0.3024
   61MOL   C19738717   6.896   7.454   6.575  0.4143  0.2870 -0.3900
   61MOL   C19838718   6.896   7.389   6.436 -0.2539  0.7744 -0.5386
   61MOL   C19938719   6.760   7.395   6.366 -0.4844 -0.0270  0.7613
   61MOL   C20038720   6.738   7.319   6.232 -0.2356 -0.6463  1.1032
   61MOL   O20138721   6.826   7.329   6.141 -0.0607 -0.0149 -0.3558
   61MOL   N20238722   6.629   7.243   6.209 -0.0559 -0.5448  0.0078
   61MOL   C20338723   6.573   7.212   6.075  0.0619 -0.5946  0.8289
   61MOL   C20438724   6.517   7.335   6.000  0.6155 -0.3340 -0.3776
   61MOL   C20538725   6.383   7.382   6.052  0.2027 -0.0740  0.4132
   61MOL   C20638726   6.408   7.512   6.140 -0.6013  0.1475  0.8300
   61MOL   N20738727   6.421   7.491   6.279 -0.0439 -0.2338  0.0066
   61MOL   H20838728   7.111   7.456   6.572  1.4517 -0.0677  0.9460
   61MOL   H20938729   7.043   7.343   6.682  3.0144  0.5652  0.0814
   61MOL   H21038730   6.830   7.397   6.640 -0.6713 -0.0062 -1.7361
   61MOL   H21138731   6.855   7.555   6.577 -0.4211 -0.0415 -0.6576
   61MOL   H21238732   6.932   7.288   6.423  2.2459  1.2825  2.0016
   61MOL   H21338733   6.961   7.461   6.385  1.0335  0.5326  0.7335
   61MOL   H21438734   6.749   7.501   6.344  1.1277 -0.1918 -1.0239
   61MOL   H21538735   6.686   7.349   6.431  0.2389 -1.3924  0.6420
   61MOL   H21638736   6.566   7.246   6.288  1.0605 -0.9968  0.9162
   61MOL   H21738737   6.490   7.142   6.089  0.7023 -1.3992  0.6479
   61MOL   H21838738   6.653   7.160   6.022 -0.2527 -0.1444 -0.0986
   61MOL   H21938739   6.595   7.411   5.998  1.3735 -1.0979 -0.1844
   61MOL   H22038740   6.503   7.304   5.897 -1.0712  1.0406 -0.5829
   61MOL   H22138741   6.329   7.305   6.106  0.0245 -0.6178 -0.5220
   61MOL   H22238742   6.320   7.418   5.971  0.9422  0.3000 -0.0068
   61MOL   H22338743   6.328   7.583   6.120 -1.9465 -1.3331  0.8531
   61MOL   H22438744   6.499   7.564   6.112 -0.8406  0.9520  1.5345
   61MOL   H22538745   6.428   7.396   6.312 -0.8220  0.1178  1.2184
   61MOL   C22638746   6.403   7.582   6.377  0.1913  0.3373  0.0599
   61MOL   O22738747   6.371   7.696   6.345 -0.5030  0.3131  0.1078
   61MOL   C22838748   6.425   7.543   6.526 -0.2409 -0.5361 -0.6415
   61MOL   C22938749   6.484   7.650   6.620 -0.0923  0.0676 -0.6046
   61MOL   C23038750   6.517   7.589   6.757  0.3437 -0.1030  0.5997
   61MOL   C23138751   6.618   7.676   6.825  0.1187  0.6470 -0.7190
   61MOL   C23238752   6.624   7.646   6.977  0.8059  0.4218  0.0114
   61MOL   O23338753   6.517   7.647   7.038 -0.8192  0.5682 -0.2280
   61MOL   N23438754   6.740   7.641   7.033  0.2239  0.4528  0.5531
   61MOL   C23538755   6.756   7.604   7.169  0.0050  0.1218 -0.7864
   61MOL   C23638756   6.776   0.022   7.264  0.3289  0.0516 -0.0678
   61MOL   C23738757   6.855   0.142   7.206  0.9511 -0.8990  0.2607
   61MOL   C23838758   6.871   0.256   7.316  0.2719 -0.0750  0.6428
   61MOL   N23938759   6.932   0.208   7.439  0.2511 -0.2475 -0.3017
   61MOL   H24038760   6.324   7.526   6.563 -1.0583 -2.8885 -3.7155
   61MOL   H24138761   6.481   7.449   6.527 -0.2919 -0.6102 -2.6322
   61MOL   H24238762   6.578   7.676   6.573 -0.7133  1.5734 -1.0274
   61MOL   H24338763   6.440   0.048   6.628 -0.7640 -0.3861  1.9261
   61MOL   H24438764   6.561   7.494   6.727  0.1178  0.1681 -0.6019
   61MOL   H24538765   6.433   7.562   6.822 -0.2785  1.2087  0.3468
   61MOL   H24638766   6.586   0.079   6.819 -1.5887  0.1341 -0.7880
   61MOL   H24738767   6.720   7.678   6.786 -0.4530 -0.6130 -2.3504
   61MOL   H24838768   6.824   7.639   6.977 -0.3783 -1.6371 -0.3350
   61MOL   H24938769   6.849   7.548   7.175  0.1563  0.5725  1.7769
   61MOL   H25038770   6.681   7.533   7.205 -1.0203 -0.0351 -3.1742
   61MOL   H25138771   6.675   0.057   7.286  1.3036  1.6452  2.0940
   61MOL   H25238772   6.805   7.696   7.366  3.0416 -0.5347 -0.9533
   61MOL   H25338773   6.803   0.188   7.122 -0.8693  1.7030  2.7092
   61MOL   H25438774   6.955   0.111   7.176  1.9180  1.8788  0.5385
   61MOL   H25538775   6.773   0.290   7.348  0.2195  0.1358  0.2658
   61MOL   H25638776   6.929   0.341   7.280 -0.9053  0.5439  0.1767
   61MOL   H25738777   6.875   0.149   7.499  0.4164  1.0626  1.1806
   61MOL   C25838778   7.038   0.254   7.504 -0.8219  0.2245  0.6294
   61MOL   O25938779   7.111   0.338   7.444 -0.5489  0.2045  0.1581
   61MOL   C26038780   7.066   0.201   7.644  0.4759  0.2714 -0.0875
   61MOL   C26138781   7.196   0.244   0.002 -1.0202 -0.2468  0.2467
   61MOL   C26238782   7.331   0.183   7.635 -0.6167 -0.5417 -0.3404
   61MOL   C26338783   7.455   0.223   0.010 -0.3338 -0.2945  0.3330
   61MOL   C26438784   7.584   0.150   7.677  0.5358 -0.0087  0.4289
   61MOL   O26538785   7.615   0.120   7.558  0.4219 -0.1763  0.0388
   61MOL   N26638786   7.666   0.126   0.081 -0.1951  0.5668 -0.8449
   61MOL   C26738787   0.100   0.078   0.060 -0.3637  0.6553 -0.1818
   61MOL   C26838788   0.192   0.094   0.189 -0.0589 -0.3920  0.1496
   61MOL   C26938789   0.170   7.679   0.283  1.1044  1.1046 -0.3901
   61MOL   C27038790   0.212   0.004   0.424 -0.0888  0.1349 -0.1450
   61MOL   N27138791   0.347   0.021   0.443 -0.4161  0.2082  0.1367
   61MOL   H27238792   6.983   0.249   7.696  1.1432  0.9433  0.3685
   61MOL   H27338793   7.065   0.092   7.644 -2.1275  0.2675  1.2133
   61MOL   H27438794   7.218   0.350   7.691  0.4874 -0.4895  0.7578
   61MOL   H27538795   7.191   0.228   0.110 -0.9565  2.6111  0.7174
   61MOL   H27638796   7.340   0.227   7.536  0.8238 -1.1684 -0.4896
   61MOL   H27738797   7.320   0.074   7.633  0.1503 -0.6605  1.2456
   61MOL   H27838798   7.440   0.219   0.118 -0.8931  1.3915  0.3312
   61MOL   H27938799   7.472   0.325   7.679 -0.3656  0.2116  1.8904
   61MOL   H28038800   7.638   0.137   0.177  1.2708 -0.7758 -0.2440
   61MOL   H28138801   0.148   0.131   7.679 -1.4163  1.3618 -0.3464
   61MOL   H28238802   0.085   7.673   0.039  0.0411  0.2672  1.4129
   61MOL   H28338803   0.300   0.099   0.172 -0.1317  1.4433  0.2023
   61MOL   H28438804   0.175   0.189   0.239 -1.7064 -0.8060  0.4191
   61MOL   H28538805   0.209   7.585   0.244  0.1611  0.1112  1.0170
   61MOL   H28638806   0.062   7.667   0.294  0.9487  0.2248 -2.6367
   61MOL   H28738807   0.167   7.631   0.490  0.9686 -1.4916 -1.2143
   61MOL   H28838808   0.160   0.095   0.456  2.5586  2.0889 -1.1827
   61MOL   H28938809   0.378   0.091   0.377 -0.8530 -0.0336 -0.3309
   61MOL   C29038810   0.433   7.642   0.509 -0.0204  0.0088  0.1073
   61MOL   O29138811   0.395   7.549   0.575  0.1585  0.2672 -0.5013
   61MOL   C29238812   0.578   7.688   0.516 -0.0612  0.4555 -0.6555
   61MOL   C29338813   0.680   7.585   0.451 -0.6291  0.3501  0.0304
   61MOL   C29438814   0.685   7.604   0.302  0.2036 -0.1400  0.4227
   61MOL   C29538815   0.777   7.508   0.222  0.1070 -0.4186 -0.5141
   61MOL   C29638816   0.794   7.552   0.079  0.0107  0.3607 -0.7207
   61MOL   O29738817   0.754   7.474   7.689  0.0862  0.1102 -0.2876
   61MOL   N29838818   0.854   7.665   0.048  0.7197 -0.3065 -0.5360
   61MOL   C29938819   0.909   0.001   7.622  0.5194 -0.6604  0.3193
   61MOL   C30038820   1.034   7.617   7.582  1.2496 -0.6103  0.2284
   61MOL   C30138821   1.129   7.586   7.696 -0.3675 -0.3423  0.3051
   61MOL   C30238822   1.256   7.516   7.653 -0.4659  0.0968 -0.6179
   61MOL   N30338823   1.230   7.376   7.624 -0.8157 -0.2890 -0.5354
   61MOL   H30438824   0.583   0.088   0.477 -1.0502  0.1903 -1.4669
   61MOL   H30538825   0.603   7.698   0.622 -0.7823  2.0235 -0.6282
   61MOL   H30638826   0.777   7.593   0.499  0.3872 -2.0881 -1.5127
   61MOL   H30738827   0.636   7.490   0.479  1.6353 -1.2906 -1.7778
   61MOL   H30838828   0.721   0.004   0.285  2.3076 -1.4825 -3.7262
   61MOL   H30938829   0.585   7.612   0.261  0.2683  1.5295  0.5334
   61MOL   H31038830   0.728   7.412   0.204 -0.7531  0.1227 -1.0447
   61MOL   H31138831   0.872   7.489   0.274 -0.8894  0.4580  1.6984
   61MOL   H31238832   0.880   0.032   0.117  0.4915 -0.6151 -0.1498
   61MOL   H31338833   0.934   0.107   7.619 -0.8773 -0.3271  0.4199
   61MOL   H31438834   0.831   7.684   7.548  1.4775 -0.3689 -0.7746
   61MOL   H31538835   0.995   7.524   7.541  0.5038 -0.6642  1.0667
   61MOL   H31638836   1.071   7.665   7.491  2.0006  2.7222  2.2255
   61MOL   H31738837   1.073   7.530   0.070  0.3288 -0.3604  0.8061
   61MOL   H31838838   1.154   7.680   0.044 -0.2202  0.5527 -1.4413
   61MOL   H31938839   1.319   7.522   0.041  1.9515  2.5855 -2.3839
   61MOL   H32038840   1.313   7.561   7.571 -1.8319 -0.5785 -1.9541
   61MOL   H32138841   1.146   7.341   7.668 -0.2256 -0.8644  0.1579
   61MOL   C32238842   1.310   7.294   7.556 -0.0981  0.7691  0.1201
   61MOL   O32338843   1.414   7.328   7.501  0.4789 -0.4073  0.2936
   61MOL   C32438844   1.271   7.145   7.559 -0.9914 -0.4600  0.3288
   61MOL   C32538845   1.153   7.127   7.464 -0.3162  0.1134  0.5189
   61MOL   C32638846   1.158   7.000   7.376 -0.9185  0.4495 -0.3714
   61MOL   C32738847   1.117   6.865   7.432  0.0220 -0.0910 -0.2742
   61MOL   C32838848   0.964   6.856   7.462  0.3910  0.0715  0.4541
   61MOL   O32938849   0.919   6.910   7.561  0.0475 -0.3520 -0.6741
   61MOL   N33038850   0.880   6.802   7.366  0.3445  0.0176  0.7708
   61MOL   C33138851   0.737   6.800   7.377  0.1746 -0.0355 -0.8314
   61MOL   C33238852   0.690   6.672   7.302  0.3967  0.0108 -0.2403
   61MOL   C33338853   0.547   6.676   7.243 -0.4787 -0.1823  0.2066
   61MOL   C33438854   0.434   6.642   7.343  0.4338 -0.0411 -0.0623
   61MOL   N33538855   0.402   6.746   7.437  0.3824 -0.0733 -0.2422
   61MOL   H33638856   1.352   7.086   7.517 -0.3342 -0.2807  1.3473
   61MOL   H33738857   1.255   7.123   7.664  0.4226  3.4136  1.4396
   61MOL   H33838858   1.070   7.117   7.535 -0.1540  4.2570  1.4069
   61MOL   H33938859   1.133   7.212   7.399 -1.1116 -1.7667 -1.7309
   61MOL   H34038860   1.253   7.004   7.322 -1.0078  1.0313 -0.4808
   61MOL   H34138861   1.092   7.016   7.290 -0.2261 -0.2865 -1.0617
   61MOL   H34238862   1.161   6.846   7.530  1.2358 -0.6525 -0.9295
   61MOL   H34338863   1.134   6.781   7.366  0.5973 -0.8602  0.8436
   61MOL   H34438864   0.919   6.768   7.279  0.3617 -1.3006  1.2787
   61MOL   H34538865   0.710   6.892   7.326  1.6506  0.6711 -0.3473
   61MOL   H34638866   0.694   6.805   7.477  0.7819  4.1916 -0.7272
   61MOL   H34738867   0.762   6.650   7.224  1.8341  3.3935  0.0768
   61MOL   H34838868   0.696   6.592   7.376  1.4284  0.5840  0.2937
   61MOL   H34938869   0.550   6.588   7.179  1.7129  1.0928 -1.4673
   61MOL   H35038870   0.514   6.761   7.184  2.2433  0.5589 -0.2835
   61MOL   H35138871   0.467   6.549   7.391  1.0635  0.9656  1.4918
   61MOL   H35238872   0.345   6.614   7.286  1.2790 -0.3101 -1.2838
   61MOL   H35338873   0.391   6.839   7.401 -1.2454 -1.0718 -2.4647
   61MOL   C35438874   0.399   6.727   7.569  0.3485  0.5261  0.6323
   61MOL   O35538875   0.430   6.619   7.623  0.0888  0.0786 -0.2099
   61MOL   C35638876   0.358   6.849   7.654  0.5153  0.3789 -0.0819
   61MOL   C35738877   0.416   6.870   0.095 -0.5378  0.9561 -0.0351
   61MOL   C35838878   0.369   6.759   0.191 -0.2891  0.0312 -0.6432
   61MOL   C35938879   0.407   6.785   0.338 -0.0377  0.0232 -0.4651
   61MOL   C36038880   0.405   6.652   0.417  0.0582 -0.7536 -0.1366
   61MOL   O36138881   0.300   6.596   0.453 -0.3581 -0.5816  0.8802
   61MOL   N36238882   0.525   6.622   0.462  0.5156  0.4720 -0.2722
   61MOL   C36338883   0.557   6.491   0.534  0.1576 -0.0341  0.1747
   61MOL   C36438884   0.708   6.472   0.557  1.0725 -0.5299  0.1282
   61MOL   C36538885   0.776   6.434   0.428 -0.7306  0.2065  0.2335
   61MOL   C36638886   0.933   6.422   0.441  0.3787 -0.0255  0.2784
   61MOL   N36738887   0.991   6.554   0.457  0.1533  0.2829  0.3084
   61MOL   H36838888   0.386   6.933   7.591  1.3898  0.2165  0.0713
   61MOL   H36938889   0.255   6.830   7.682  0.9073  0.2715  1.3428
   61MOL   H37038890   0.521   6.852   0.072 -1.0216 -1.8672 -0.1949
   61MOL   H37138891   0.381   6.969   0.123 -0.4495  2.0444 -3.4953
   61MOL   H37238892   0.417   6.665   0.165 -0.2462 -0.7073  1.9526
   61MOL   H37338893   0.265   6.730   0.179 -0.1689  0.2153 -2.3490
   61MOL   H37438894   0.348   6.863   0.386  1.8112  0.0443  1.8865
   61MOL   H37538895   0.512   6.813   0.351 -0.0034 -1.0600  1.8749
   61MOL   H37638896   0.605   6.681   0.446  0.4802  0.1036 -1.8448
   61MOL   H37738897   0.524   6.406   0.475  0.4140  0.5949 -0.8780
   61MOL   H37838898   0.487   6.488   0.617 -1.2227  0.9647 -0.9443
   61MOL   H37938899   0.758   6.554   0.607 -0.1668  0.3342 -0.0354
   61MOL   H38038900   0.717   6.390   0.628 -3.9445 -0.6440  0.8419
   61MOL   H38138901   0.769   6.515   0.355  3.9742  2.0102  1.6083
   61MOL   H38238902   0.739   6.343   0.380 -1.7857  0.6229  0.2374
   61MOL   H38338903   0.978   6.362   0.362 -1.9462 -1.3800 -0.0879
   61MOL   H38438904   0.958   6.357   0.525  1.8999 -0.7413 -0.7059
   61MOL   H38538905   0.947   6.631   0.410 -2.0436 -1.3150 -0.3142
   61MOL   C38638906   1.114   6.567   0.501 -0.4855  0.6822 -0.0411
   61MOL   O38738907   1.173   6.479   0.562 -0.6624 -0.1343 -0.4469
   61MOL   C38838908   1.182   6.703   0.476  0.6150 -0.6215 -0.6850
   61MOL   C38938909   1.258   6.704   0.341  0.1379  0.3500  0.3790
   61MOL   C39038910   1.400   6.634   0.345 -0.6360  0.5885  0.3978
   61MOL   C39138911   1.480   6.631   0.207  0.6591  0.4942  0.1343
   61MOL   C39238912   1.507   6.770   0.158 -0.3377  0.4902 -0.2685
   61MOL   O39338913   1.564   6.856   0.224  0.2214 -0.8794 -0.0476
   61MOL   N39438914   1.484   6.782   0.030 -0.4542 -0.7963 -0.3163
   61MOL   C39538915   1.486   6.904   7.657 -0.3893 -0.3119  0.0869
   61MOL   C39638916   1.642   6.924   7.622 -0.1016  0.1763 -0.1220
   61MOL   C39738917   1.660   7.009   7.497  0.6746 -0.5785 -0.1239
   61MOL   C39838918   1.802   6.989   7.446 -0.5544 -0.2630 -0.2610
   61MOL   N39938919   1.828   7.088   7.347  0.8226  0.0717  0.1251
   61MOL   H40038920   1.102   6.776   0.463  0.1417 -1.0111 -0.0151
   61MOL   H40138921   1.245   6.723   0.563  0.0914 -1.4850 -0.0974
   61MOL   H40238922   1.199   6.666   0.258  1.3333  0.9878 -0.7885
   61MOL   H40338923   1.285   6.805   0.310 -1.0316  0.6642  0.3889
   61MOL   H40438924   1.391   6.537   0.393  1.1561  1.5784  2.8247
   61MOL   H40538925   1.460   6.681   0.422  1.0117  0.9482 -1.0580
   61MOL   H40638926   1.426   6.573   0.132 -0.1465  1.3432  0.0461
   61MOL   H40738927   1.578   6.588   0.225 -0.6692 -1.5752  2.8217
   61MOL   H40838928   1.446   6.707   7.676  0.1437 -1.2220 -0.1499
   61MOL   H40938929   1.443   6.985   0.015  1.2924  1.9119 -1.6393
   61MOL   H41038930   1.420   6.888   7.572  2.9523 -0.1724 -2.6118
   61MOL   H41138931   1.691   6.969   0.007  0.5318 -0.1089 -0.3295
   61MOL   H41238932   1.688   6.826   7.606 -2.9165 -0.8173 -2.6322
   61MOL   H41338933   1.646   7.115   7.517 -2.3668 -1.3324  2.2313
   61MOL   H41438934   1.586   6.982   7.423  0.0696 -0.8154  0.5617
   61MOL   H41538935   1.818   6.887   7.410  1.1539 -0.5009  1.0962
   61MOL   H41638936   1.873   7.011   7.526 -0.4732  1.0259 -0.6821
   61MOL   H41738937   1.770   7.170   7.343  0.3860 -0.2063  0.6918
   61MOL   C41838938   1.921   7.075   7.256  0.3830  0.3215 -0.2433
   61MOL   O41938939   2.010   6.991   7.269 -0.4950  0.3377  0.4824
   61MOL   C42038940   1.923   7.172   7.142 -0.0576  0.1971 -0.2804
   61MOL   C42138941   2.060   7.229   7.120 -0.2620  0.3088 -0.8105
   61MOL   C42238942   2.072   7.310   6.996 -0.2244 -0.0967 -0.3724
   61MOL   C42338943   2.209   7.379   6.982 -0.4783  0.2602 -0.3986
   61MOL   C42438944   2.322   7.296   6.923 -0.9259  0.2631  0.5980
   61MOL   O42538945   2.303   7.243   6.810 -0.4724  0.4087  0.2954
   61MOL   N42638946   2.425   7.268   7.004  0.4405 -0.4752 -0.3951
   61MOL   C42738947   2.546   7.206   6.958 -0.0570 -0.1119 -0.2719
   61MOL   C42838948   2.652   7.210   7.069  0.4296  0.3484 -0.0191
   61MOL   C42938949   2.612   7.141   7.200 -0.0982  0.6417  0.2824
   61MOL   C43038950   2.722   7.167   7.306 -0.3760 -0.0726 -0.2947
   61MOL   N43138951   2.715   7.066   7.410 -0.4231  0.1404 -0.0060
   61MOL   H43238952   1.912   7.115   7.049  0.4729 -1.3613  0.5947
   61MOL   H43338953   1.853   7.253   7.161  0.9426  0.6015  1.7969
   61MOL   H43438954   2.090   7.297   7.199 -2.2287 -0.8136  0.9437
   61MOL   H43538955   2.146   7.162   7.128 -0.5611 -0.0599 -0.6870
   61MOL   H43638956   1.992   7.383   6.994  0.4103  0.5847 -1.1641
   61MOL   H43738957   2.062   7.249   6.906  1.5982 -1.2391  0.1503
   61MOL   H43838958   2.219   7.418   7.083 -2.3409 -0.7796  0.2147
   61MOL   H43938959   2.194   7.466   6.918  1.8703 -0.6725 -2.2903
   61MOL   H44038960   2.429   7.326   7.086 -3.2919 -1.1601  0.3833
   61MOL   H44138961   2.589   7.262   6.875 -0.8753  1.6275  0.4602
   61MOL   H44238962   2.536   7.101   6.931 -0.9016 -0.2042  0.3898
   61MOL   H44338963   2.746   7.178   7.025  0.0845 -0.5986 -0.0813
   61MOL   H44438964   2.677   7.315   7.087 -1.4195  0.6018  1.2400
   61MOL   H44538965   2.602   7.037   7.171  0.3452  0.0318  2.2437
   61MOL   H44638966   2.516   7.163   7.247  0.7013  0.4354  2.0540
   61MOL   H44738967   2.714   7.267   7.350  0.8297 -0.0162 -0.1850
   61MOL   H44838968   2.820   7.156   7.260 -0.0322  0.5954  0.2681
   61MOL   H44938969   2.758   6.975   7.398  1.0811  1.1042 -2.1734
   61MOL   C45038970   2.678   7.082   7.539  0.9161 -0.1312  0.1331
   61MOL   O45138971   2.641   7.196   7.578  0.1155 -0.3644  0.4896
   61MOL   C45238972   2.698   6.962   7.628 -0.2866  0.1614 -0.3591
   61MOL   C45338973   2.699   6.992   0.077 -0.7227 -0.0781 -0.2244
   61MOL   C45438974   2.738   6.869   0.156  0.0698 -0.4578 -0.0691
   61MOL   C45538975   2.737   6.887   0.312  0.8426  0.3234  0.1975
   61MOL   C45638976   2.836   6.988   0.366 -0.1022  0.1596 -0.0435
   61MOL   O45738977   2.918   7.046   0.301  0.1340 -0.7682  0.1525
   61MOL   N45838978   2.830   7.009   0.500 -0.9030  0.0789  0.8301
   61MOL   C45938979   2.907   7.103   0.582 -0.1318  0.2510 -0.3382
   61MOL   C46038980   2.859   7.247   0.560  0.5536  0.3154  0.4591
   61MOL   C46138981   2.711   7.287   0.585  0.7754  0.0498 -0.3875
   61MOL   C46238982   2.671   7.259   0.727 -0.0277  0.1921 -0.6384
   61MOL   N46338983   2.535   7.314   0.744 -0.6711  0.5280  0.2877
   61MOL   H46438984   2.797   6.919   7.611 -0.3075  0.0040 -0.0879
   61MOL   H46538985   2.618   6.901   7.587  0.4894 -1.6762  0.7969
   61MOL   H46638986   2.763   7.077   0.101 -0.8226 -0.0203 -0.1671
   61MOL   H46738987   2.594   7.001   0.105 -0.0995  0.9964  1.8087
   61MOL   H46838988   2.844   6.845   0.141  0.7483  0.4324  2.8653
   61MOL   H46938989   2.679   6.788   0.115  1.9118 -2.6444  1.4966
   61MOL   H47038990   2.771   6.790   0.348  1.5546  0.5478  0.1363
   61MOL   H47138991   2.637   6.914   0.346  0.3818  1.0189 -1.6321
   61MOL   H47238992   2.757   6.965   0.554 -1.2204 -2.3479 -1.5039
   61MOL   H47338993   3.009   7.084   0.552 -0.1254  0.6520 -0.5667
   61MOL   H47438994   2.896   7.083   0.689 -1.0924 -3.3344 -1.0260
   61MOL   H47538995   2.926   7.314   0.613  0.4885  1.9234 -1.4367
   61MOL   H47638996   2.867   7.275   0.455 -1.8387  2.5704  0.8044
   61MOL   H47738997   2.645   7.236   0.515  1.8558 -1.6092 -0.2032
   61MOL   H47838998   2.706   7.396   0.573  0.6413  0.2884  1.7693
   61MOL   H47938999   2.736   7.298   0.805  2.6160 -0.2946 -2.5342
   61MOL   H48039000   2.659   7.151   0.723 -0.5131  0.2462 -0.7371
   61MOL   H48139001   2.465   7.241   0.750  0.2622 -0.2604  2.1561
   61MOL   C48239002   2.510   7.434   0.790  0.4258  0.2521 -0.6250
   61MOL   O48339003   2.594   7.519   0.821 -0.1159  0.3204 -0.1873
   61MOL   C48439004   2.358   7.462   0.832 -0.7424  0.4404 -0.3208
   61MOL   C48539005   2.318   7.609   0.843  1.0912  0.0196 -0.7232
   61MOL   C48639006   2.188   7.640   0.923 -0.0667  0.3840  0.6806
   61MOL   C48739007   2.162   0.087   0.959 -0.2117 -0.0010 -0.4778
   61MOL   C48839008   2.249   0.142   1.071 -0.1070  0.0596 -0.3937
   61MOL   O48939009   2.211   0.131   1.187  0.0251 -0.3207  0.0237
   61MOL   N49039010   2.356   0.210   1.028  0.5497  0.4614  0.3192
   61MOL   C49139011   2.440   0.296   1.113 -0.3493 -0.3675  0.2654
   61MOL   C49239012   2.591   0.270   1.077  0.3270  0.4455  0.0569
   61MOL   C49339013   2.642   0.125   1.066  0.2271  0.5477 -0.2821
   61MOL   C49439014   2.785   0.105   1.010  0.7619  0.2512 -0.5372
   61MOL   N49539015   2.805   7.671   0.963 -0.3399 -0.4461 -0.0994
   61MOL   H49639016   2.294   7.415   0.756 -0.5611  4.6800 -3.2256
   61MOL   H49739017   2.334   7.404   0.921 -0.7901  1.2951  0.2234
   61MOL   H49839018   2.393   7.669   0.893  0.5646  1.1166 -1.2432
   61MOL   H49939019   2.323   7.652   0.743  0.7293 -2.5066 -1.8700
   61MOL   H50039020   2.199   7.580   1.013  1.6688  2.0401  1.6097
   61MOL   H50139021   2.100   7.606   0.869  0.3760 -1.1714  0.8893
   61MOL   H50239022   2.056   0.093   0.986 -0.5299 -2.3086 -1.1305
   61MOL   H50339023   2.180   0.140   0.866 -1.2376 -2.1025 -1.9274
   61MOL   H50439024   2.377   0.208   0.929 -1.4050  0.4222 -0.1231
   61MOL   H50539025   2.427   0.262   1.215 -2.6154  1.5469  0.6451
   61MOL   H50639026   2.410   0.400   1.108 -1.9308 -0.7611  1.3009
   61MOL   H50739027   2.602   0.311   0.977  0.0833 -1.9739 -0.9763
   61MOL   H50839028   2.656   0.339   1.131  0.2833 -0.0741  0.7852
   61MOL   H50939029   2.568   0.093   0.993 -1.1219 -0.9604  1.6915
   61MOL   H51039030   2.633   0.063   1.155  0.9204 -1.2520 -1.4326
   61MOL   H51139031   2.861   0.143   1.079  0.6695  1.3949 -1.0526
   61MOL   H51239032   2.798   0.159   0.916 -1.9475  0.1281 -1.0145
   61MOL   H51339033   2.721   7.643   0.916 -1.2857  0.3632  1.0687
   61MOL   C51439034   2.914   7.601   0.988 -0.8631  0.5038  0.0282
   61MOL   O51539035   3.013   7.656   1.041  0.2215 -0.4168 -0.2520
   61MOL   C51639036   2.912   7.458   0.943 -0.3472 -0.0773  0.0111
   61MOL   C51739037   3.033   7.365   0.987  0.5477  0.5865  0.6639
   61MOL   C51839038   3.013   7.216   0.959  0.1975  0.1307 -0.5117
   61MOL   C51939039   3.130   7.122   1.000  0.1180  0.0985  0.2265
   61MOL   C52039040   3.254   7.131   0.906  0.5181 -0.5458 -1.1536
   61MOL   O52139041   3.236   7.161   0.790  0.2455  0.0596 -0.4040
   61MOL   N52239042   3.380   7.102   0.954 -0.0841  0.6809  0.3156
   61MOL   C52339043   3.502   7.122   0.879 -0.2181  0.6092 -0.2740
   61MOL   C52439044   3.549   6.999   0.786 -0.3806  0.6523 -0.5055
   61MOL   C52539045   3.549   6.857   0.846 -0.2405 -0.6317  0.6810
   61MOL   C52639046   3.632   6.751   0.777 -0.2942  0.4350 -0.1336
   61MOL   N52739047   3.766   6.786   0.765 -0.3043  0.4354  0.0621
   61MOL   H52839048   2.813   7.416   0.960 -0.1047 -0.5732  0.2280
   61MOL   H52939049   2.909   7.457   0.834 -2.8183 -0.6798  0.0752
   61MOL   H53039050   3.133   7.389   0.952  0.1372  0.3497 -0.7045
   61MOL   H53139051   3.048   7.376   1.095  3.2705  2.2111  0.1622
   61MOL   H53239052   2.987   7.192   0.857 -0.9737 -1.3664  0.1221
   61MOL   H53339053   2.923   7.191   1.015  0.2169  0.2927 -0.4076
   61MOL   H53439054   3.087   7.023   0.980 -2.2792  1.3605 -1.0941
   61MOL   H53539055   3.150   7.146   1.104 -0.5018  1.5444  0.0160
   61MOL   H53639056   3.388   7.038   1.031 -0.1922  0.1078 -0.1381
   61MOL   H53739057   3.573   7.154   0.956  1.5141 -0.9579 -1.1744
   61MOL   H53839058   3.491   7.208   0.813  0.4530  2.0096  1.4076
   61MOL   H53939059   3.486   6.991   0.697 -0.6976 -0.0534 -0.2206
   61MOL   H54039060   3.644   7.019   0.737 -0.2435 -0.2348 -0.6119
   61MOL   H54139061   3.447   6.819   0.854 -0.7387  0.4414 -0.4274
   61MOL   H54239062   3.576   6.871   0.950 -0.3822  0.4698  0.5689
   61MOL   H54339063   3.586   6.717   0.684  0.8392  0.5127 -0.7316
   61MOL   H54439064   3.644   6.664   0.842 -0.6576 -0.1534 -0.8420
   61MOL   H54539065   3.804   6.867   0.811 -1.5746  1.2835 -0.3299
   61MOL   C54639066   3.864   6.717   0.703  0.7422 -0.6174  0.4831
   61MOL   O54739067   3.840   6.612   0.642 -0.4121  0.0653  0.1368
   61MOL   C54839068   4.003   6.771   0.718  0.3867  0.2007  0.3231
   61MOL   C54939069   4.083   6.676   0.815 -0.2568 -0.2196  0.3783
   61MOL   C55039070   4.218   6.638   0.763  0.4803  0.1930 -0.3836
   61MOL   C55139071   4.195   6.527   0.658  0.9190 -0.8429 -0.0234
   61MOL   C55239072   4.327   6.462   0.617 -0.2769  0.3305  0.2678
   61MOL   O55339073   4.420   6.443   0.690 -0.1036  0.6378  0.2315
   61MOL   N55439074   4.347   6.450   0.483 -0.3748  0.4635  0.3129
   61MOL   C55539075   4.470   6.390   0.431  0.0811 -0.2798  0.1649
   61MOL   C55639076   4.457   6.235   0.433  0.7280 -0.2749  0.3284
   61MOL   C55739077   4.595   6.171   0.409 -0.6492  0.0670 -0.3801
   61MOL   C55839078   4.588   6.020   0.410 -0.2141 -0.1183 -0.5476
   61MOL   N55939079   4.720   5.961   0.393 -0.0238  0.4612  0.7332
   61MOL   H56039080   4.050   6.770   0.620 -1.3751  0.9361 -0.5471
   61MOL   H56139081   4.006   6.875   0.749 -2.2357  0.5393 -0.4505
   61MOL   H56239082   4.101   6.734   0.906 -0.1906  0.0658  0.1846
   61MOL   H56339083   4.025   6.591   0.850 -2.3250  1.3304  0.8322
   61MOL   H56439084   4.278   6.598   0.845  0.4995 -2.8021 -1.7735
   61MOL   H56539085   4.280   6.722   0.734 -0.6636  1.5343  0.9628
   61MOL   H56639086   4.167   6.572   0.562  1.1543 -0.8037 -0.0738
   61MOL   H56739087   4.128   6.448   0.690 -1.0786  1.1294  0.8408
   61MOL   H56839088   4.269   6.466   0.421 -1.9837 -1.8636  1.6612
   61MOL   H56939089   4.559   6.418   0.489 -0.7133  1.7603  0.4548
   61MOL   H57039090   4.506   6.431   0.336  0.5770  2.2893  1.4243
   61MOL   H57139091   4.430   6.205   0.534  1.6409  0.0880  0.6783
   61MOL   H57239092   4.382   6.184   0.373  0.8698  0.8942 -0.8531
   61MOL   H57339093   4.659   6.198   0.493 -3.0360  1.0626  1.1467
   61MOL   H57439094   4.641   6.201   0.315 -0.1196  1.8591  0.4336
   61MOL   H57539095   4.524   5.994   0.325  1.0144 -0.5589 -1.3497
   61MOL   H57639096   4.547   5.995   0.507  0.4802  0.9471  0.0249
   61MOL   H57739097   4.769   5.977   0.307  0.5757 -0.5034  0.8886
   61MOL   C57839098   4.787   5.875   0.474  0.3458  0.4856  0.1082
   61MOL   O57939099   4.744   5.824   0.573  0.6335  0.2682 -0.0162
   61MOL   C58039100   4.922   5.833   0.426  0.8763  0.5535  0.5783
   61MOL   C58139101   5.039   5.856   0.526  0.3786 -0.7504  0.6556
   61MOL   C58239102   5.108   5.995   0.540 -0.2661 -0.3302 -0.0480
   61MOL   C58339103   5.025   6.108   0.609 -0.3027 -0.0356  0.8211
   61MOL   C58439104   5.083   6.247   0.609  0.1792 -0.1701 -0.1563
   61MOL   O58539105   5.178   6.271   0.684  0.7570 -0.6327  0.1576
   61MOL   N58639106   5.024   6.344   0.529 -0.0044  0.0412 -0.5179
   61MOL   C58739107   5.052   6.486   0.539 -0.2353  0.0054 -0.0363
   61MOL   C58839108   5.177   6.535   0.466  0.3067  0.1409 -0.0059
   61MOL   C58939109   5.154   6.686   0.449  0.2042  0.0352 -0.7261
   61MOL   C59039110   5.265   6.763   0.375  0.6516 -0.0676 -0.0712
   61MOL   N59139111   5.214   6.901   0.351  0.4491 -0.4087 -0.1461
   61MOL   H59239112   4.933   5.727   0.401  0.1762  1.1162 -2.3467
   61MOL   H59339113   4.943   5.896   0.339 -1.0828 -0.5076 -0.6962
   61MOL   H59439114   4.996   5.841   0.625  0.4691  1.3402  1.0265
   61MOL   H59539115   5.116   5.780   0.514  0.0236 -0.7670 -1.7147
   61MOL   H59639116   5.134   6.029   0.440 -4.4321  1.8655 -0.4706
   61MOL   H59739117   5.196   5.974   0.601  1.3322 -0.7644 -2.4037
   61MOL   H59839118   5.008   6.077   0.712 -1.2934 -2.3224 -0.0093
   61MOL   H59939119   4.922   6.114   0.576 -1.2017 -2.2554  3.1050
   61MOL   H60039120   4.946   6.328   0.466 -0.4646  1.4212 -0.3323
   61MOL   H60139121   5.051   6.516   0.644 -3.1820  0.4930 -0.1648
   61MOL   H60239122   4.961   6.537   0.509  0.6326  1.1149 -0.7826
   61MOL   H60339123   5.266   6.508   0.522 -0.9494 -0.2143  1.8969
   61MOL   H60439124   5.185   6.481   0.372  0.8438 -1.5133  0.9651
   61MOL   H60539125   5.123   6.740   0.538  1.0688 -0.3133 -0.2068
   61MOL   H60639126   5.066   6.695   0.385 -0.9766 -0.3273  0.8247
   61MOL   H60739127   5.285   6.717   0.278 -0.2119  1.9113 -1.2098
   61MOL   H60839128   5.354   6.766   0.438  0.2531  0.7369  0.4564
   61MOL   H60939129   5.120   6.899   0.315  0.2474  2.1141  0.1525
   61MOL   C61039130   5.270   7.021   0.369  0.5659  0.6348 -0.6734
   61MOL   O61139131   5.371   7.036   0.434  0.0950 -0.1836  0.3604
   61MOL   C61239132   5.209   7.141   0.297 -0.1819  0.7283 -0.7563
   61MOL   C61339133   5.115   7.224   0.382 -0.5985 -0.4681 -0.4202
   61MOL   C61439134   5.184   7.307   0.498  0.1292  0.0759  0.5081
   61MOL   C61539135   5.080   7.340   0.611 -0.2731  0.0573 -0.6088
   61MOL   C61639136   5.144   7.420   0.731 -0.0537 -0.1385  0.4219
   61MOL   O61739137   5.259   7.451   0.731  0.4403  0.2356  0.4460
   61MOL   N61839138   5.057   7.445   0.834  0.5053 -0.1746 -0.4915
   61MOL   C61939139   5.073   7.553   0.927 -1.0903  0.0625  0.4214
   61MOL   C62039140   4.933   7.621   0.950 -0.4541  0.4092 -0.2195
   61MOL   C62139141   4.873   7.692   0.827  0.0102  0.3989  0.1371
   61MOL   C62239142   4.775   7.602   0.741 -0.6177 -0.0064  0.5766
   61MOL   N62339143   4.675   7.540   0.820  0.9900 -0.5283 -0.2520
   61MOL   H62439144   5.292   7.194   0.250  0.7163 -1.0367 -1.1941
   61MOL   H62539145   5.148   7.105   0.214 -1.6280 -0.7850  0.9268
   61MOL   H62639146   5.073   7.296   0.313  0.4976 -1.3987 -2.0856
   61MOL   H62739147   5.028   7.167   0.415 -2.6591  3.6679  1.6056
   61MOL   H62839148   5.221   7.396   0.447 -1.1646  0.8412  0.8832
   61MOL   H62939149   5.274   7.257   0.533 -0.5029 -0.9010  0.7629
   61MOL   H63039150   5.045   7.246   0.652 -0.1932 -0.0716 -0.8380
   61MOL   H63139151   4.984   7.382   0.580  0.6557  2.3723 -0.4342
   61MOL   H63239152   4.973   7.389   0.838  1.1187 -1.1588 -1.1045
   61MOL   H63339153   5.137   7.633   0.891 -0.2267 -0.0481  1.6677
   61MOL   H63439154   5.113   7.516   1.021 -0.5219  0.1865  0.2338
   61MOL   H63539155   4.862   7.547   0.989 -0.0018 -0.1170 -0.3798
   61MOL   H63639156   4.949   7.690   1.033  2.6197 -0.3351 -0.1422
   61MOL   H63739157   4.945   0.032   0.756 -0.4453  0.3359 -0.3696
   61MOL   H63839158   4.806   0.070   0.861  1.3184  1.2461  0.7475
   61MOL   H63939159   4.829   7.521   0.692 -1.9314  0.9053 -2.4533
   61MOL   H64039160   4.723   7.660   0.666 -0.7855  0.2677  0.9051
   61MOL   H64139161   4.604   7.499   0.760  1.0489 -0.6895 -0.2125
   61MOL   H64239162   4.715   7.461   0.869 -0.1820  1.1873  3.6712
   62MOL     C139163   1.282   1.202   3.645 -0.1465 -0.5054  0.1510
   62MOL     O239164   1.189   1.124   3.635 -0.3379  0.6880  0.2643
   62MOL     C339165   1.311   1.307   3.529  0.3779 -0.2914  0.0673
   62MOL     C439166   1.279   1.258   3.387  0.0985  0.0680  0.0333
   62MOL     C539167   1.328   1.357   3.283  0.9247 -0.2335  0.5031
   62MOL     C639168   1.267   1.331   3.135  0.2884 -0.3211 -0.2271
   62MOL     C739169   1.337   1.225   3.051  0.0289  0.7164 -0.1050
   62MOL     O839170   1.461   1.215   3.047 -0.0412 -0.2498 -0.3684
   62MOL     N939171   1.251   1.156   2.980 -0.2122  0.0057  0.0103
   62MOL    C1039172   1.296   1.058   2.880  0.3557 -0.0972 -0.5353
   62MOL    C1139173   1.287   0.908   2.927 -0.4316 -0.2270  0.1484
   62MOL    C1239174   1.133   0.868   2.946  0.4286 -0.2999  0.2023
   62MOL    C1339175   1.105   0.786   3.067  0.1090 -0.3994  0.7805
   62MOL    N1439176   1.160   0.843   3.192  0.1560 -0.1602  0.7792
   62MOL    H1539177   1.254   1.394   3.562  0.8926  0.6525 -1.4712
   62MOL    H1639178   1.416   1.331   3.547 -0.0594  1.3880  0.5280
   62MOL    H1739179   1.323   1.158   3.380 -1.0351 -0.3666 -1.1677
   62MOL    H1839180   1.172   1.244   3.372 -0.3656  3.2159  0.0885
   62MOL    H1939181   1.436   1.347   3.277  1.2202  1.7880  1.9517
   62MOL    H2039182   1.310   1.462   3.306 -0.4301 -0.5130  0.7639
   62MOL    H2139183   1.280   1.419   3.072 -0.2001  0.1001  0.2533
   62MOL    H2239184   1.159   1.321   3.140  0.3866 -0.9898  0.6075
   62MOL    H2339185   1.155   1.182   2.993  0.0177  0.1519  1.5139
   62MOL    H2439186   1.391   1.090   2.838  0.5110  1.5635  0.9816
   62MOL    H2539187   1.228   1.071   2.796 -1.3215  0.7549  0.9114
   62MOL    H2639188   1.338   0.839   2.860  0.1778 -2.2124  2.5659
   62MOL    H2739189   1.338   0.903   3.023  0.2582 -2.0425 -0.2941
   62MOL    H2839190   1.081   0.830   2.858 -0.1784  1.9110 -0.4277
   62MOL    H2939191   1.078   0.961   2.960  1.3705  0.4122 -0.6605
   62MOL    H3039192   1.134   0.682   3.052 -1.8397 -0.6323 -1.6035
   62MOL    H3139193   0.996   0.784   3.075 -0.0887 -0.1319 -1.5411
   62MOL    H3239194   1.143   0.940   3.214  1.7796  0.4920 -0.7483
   62MOL    H3339195   1.339   1.203   3.738 -0.5323 -1.0904  0.3924
   62MOL    C3439196   1.224   0.767   3.283  0.2186 -0.3293 -0.5870
   62MOL    O3539197   1.231   0.644   3.273 -0.7049  0.1620  0.2334
   62MOL    C3639198   1.299   0.845   3.394  0.7357  0.7310  0.8847
   62MOL    C3739199   1.304   0.755   3.528  1.0872  0.3495  0.5792
   62MOL    C3839200   1.180   0.668   3.577  0.6840 -0.3282  0.0440
   62MOL    C3939201   1.073   0.754   3.648 -0.1042  0.1696 -0.7279
   62MOL    C4039202   1.097   0.785   3.793 -0.4684 -0.0429 -0.5923
   62MOL    O4139203   1.080   0.692   3.877 -0.0097 -0.5038  0.0317
   62MOL    N4239204   1.143   0.904   3.824  0.0888  0.3118  0.4243
   62MOL    C4339205   1.177   0.948   3.961 -0.4708 -0.2585  0.3229
   62MOL    C4439206   1.117   1.087   3.984  0.1203 -0.4414 -0.2533
   62MOL    C4539207   1.149   1.151   4.124  0.3741 -0.2117  0.1851
   62MOL    C4639208   1.091   1.293   4.129  0.1779 -0.0272 -0.3004
   62MOL    N4739209   1.105   1.362   4.257 -0.2394  0.0967  0.2098
   62MOL    H4839210   1.400   0.864   3.358  1.0092 -1.1583  0.6316
   62MOL    H4939211   1.251   0.937   3.426  1.8171  1.4895  0.3633
   62MOL    H5039212   1.375   0.674   3.516  0.2246 -0.2586 -0.4484
   62MOL    H5139213   1.329   0.821   3.612  0.6320  3.1784 -1.4547
   62MOL    H5239214   1.211   0.595   3.652 -1.4674 -2.3571 -0.9601
   62MOL    H5339215   1.138   0.613   3.493  2.3900  0.0421 -1.0747
   62MOL    H5439216   0.982   0.695   3.633 -0.8935  0.1969  3.4042
   62MOL    H5539217   1.079   0.849   3.594  2.0070  0.1205 -0.6273
   62MOL    H5639218   1.138   0.974   3.751 -1.0958  0.5415  0.7180
   62MOL    H5739219   1.285   0.958   3.966 -0.5087  0.2265  0.2056
   62MOL    H5839220   1.154   0.879   4.042  1.1517  0.4840  1.4618
   62MOL    H5939221   1.158   1.153   3.909 -1.9967  1.6706  0.4019
   62MOL    H6039222   1.008   1.081   3.983  0.0920 -0.7076  1.8360
   62MOL    H6139223   1.254   1.147   4.154  0.6255  1.7535 -0.3496
   62MOL    H6239224   1.097   1.088   4.196  0.0939  0.8065  0.8899
   62MOL    H6339225   0.986   1.300   4.102  0.1966  2.3179  0.0963
   62MOL    H6439226   1.137   1.353   4.050 -2.8590 -0.1594 -2.2450
   62MOL    H6539227   1.159   1.306   4.321  0.5708 -0.1861 -0.7012
   62MOL    C6639228   1.056   1.477   4.294  0.5262  0.7176  0.2680
   62MOL    O6739229   1.001   1.544   4.213  0.2714 -0.4121 -0.4984
   62MOL    C6839230   1.074   1.526   4.444  0.1458  0.2867  0.0674
   62MOL    C6939231   1.017   1.670   4.474 -0.3281  0.3204 -0.2197
   62MOL    C7039232   1.063   1.786   4.387  0.4118  0.1366  0.6875
   62MOL    C7139233   0.978   1.911   4.410  0.5535 -0.4461 -0.5581
   62MOL    C7239234   1.000   1.986   4.538  0.3975 -1.1563  0.2306
   62MOL    O7339235   0.997   1.933   4.650  0.0833  0.1607  0.0217
   62MOL    N7439236   1.030   2.118   4.525 -0.0693 -0.3134 -0.7289
   62MOL    C7539237   1.037   2.208   4.635  0.4932 -0.0050  0.4418
   62MOL    C7639238   1.179   2.212   4.693  0.1301 -0.0650  0.4747
   62MOL    C7739239   1.197   2.325   4.794  0.0104 -0.0931 -0.6931
   62MOL    C7839240   1.129   2.311   4.932  0.3571  0.1421 -0.5809
   62MOL    N7939241   1.123   2.170   4.979  0.5149  0.1249 -0.4301
   62MOL    H8039242   1.029   1.457   4.516  0.2210  1.3292  1.1293
   62MOL    H8139243   1.175   1.501   4.477  0.2956 -0.3466 -0.8490
   62MOL    H8239244   0.908   1.659   4.474 -0.3475  0.3148 -1.6465
   62MOL    H8339245   1.047   1.676   4.578 -1.3620 -0.8857  0.1604
   62MOL    H8439246   1.049   1.764   4.281  0.6326 -0.4583  0.7788
   62MOL    H8539247   1.169   1.805   4.400  1.1224  0.2537 -4.4013
   62MOL    H8639248   0.871   1.891   4.400  1.1039 -2.9135 -2.0214
   62MOL    H8739249   0.993   1.980   4.327 -0.6070  0.1575 -0.2728
   62MOL    H8839250   1.047   2.151   4.431 -1.4191  0.4176 -0.7350
   62MOL    H8939251   0.964   2.182   4.712  1.2057 -1.2012  0.7362
   62MOL    H9039252   1.015   2.306   4.595  2.8906  0.4548  0.1489
   62MOL    H9139253   1.202   2.117   4.740 -0.1677  0.0123  0.7716
   62MOL    H9239254   1.254   2.213   4.613 -0.9760  2.2922 -0.5810
   62MOL    H9339255   1.179   2.423   4.751 -0.5981  0.8605  1.6911
   62MOL    H9439256   1.302   2.344   4.812 -0.3852  0.5478  0.9373
   62MOL    H9539257   1.026   2.345   4.916  0.2993  0.5645  0.6258
   62MOL    H9639258   1.171   2.370   5.014 -1.2765  0.4914  0.0227
   62MOL    H9739259   1.024   2.151   4.982 -0.4714  4.8490  1.3010
   62MOL    C9839260   1.206   2.093   5.048  0.6106 -0.4511 -0.3502
   62MOL    O9939261   1.324   2.123   5.066 -0.0201 -0.1890  0.0345
   62MOL   C10039262   1.144   1.979   5.134  0.1141 -0.1557  0.0662
   62MOL   C10139263   1.178   1.835   5.082  0.1054  0.0530 -0.4835
   62MOL   C10239264   1.105   1.796   4.952 -0.6857  0.1819  0.0585
   62MOL   C10339265   1.192   1.730   4.840 -0.4307 -0.5261  1.0750
   62MOL   C10439266   1.248   1.587   4.847 -0.0751  0.2760  0.1723
   62MOL   O10539267   1.233   1.515   4.947 -0.6707 -0.4302  0.0161
   62MOL   N10639268   1.308   1.542   4.727  0.6721 -0.1695 -0.4251
   62MOL   C10739269   1.357   1.405   4.705  0.3835 -0.8101  0.2192
   62MOL   C10839270   1.466   1.401   4.598  0.0360  0.1738  0.8482
   62MOL   C10939271   1.598   1.449   4.660 -0.3181 -1.0102 -0.0931
   62MOL   C11039272   1.713   1.478   4.561 -0.1518 -0.0765  0.2285
   62MOL   N11139273   1.705   1.589   4.461  0.0620  0.5070  0.3728
   62MOL   H11239274   1.161   1.992   5.240  1.5278 -0.0855 -0.1608
   62MOL   H11339275   1.037   2.001   5.132  0.3925  1.4281  1.4997
   62MOL   H11439276   1.283   1.816   5.063 -0.3988 -0.9936 -2.2926
   62MOL   H11539277   1.141   1.764   5.156  1.0880  1.5485  1.4934
   62MOL   H11639278   1.061   1.888   4.916  0.1133  0.7793  0.5852
   62MOL   H11739279   1.023   1.732   4.984 -0.7917  0.0208 -0.5378
   62MOL   H11839280   1.278   1.797   4.841 -0.6811 -0.0778 -2.0857
   62MOL   H11939281   1.134   1.747   4.749  1.7669 -0.7588 -0.3950
   62MOL   H12039282   1.308   1.611   4.653  0.5583  0.8827  0.5338
   62MOL   H12139283   1.267   1.346   4.685 -0.1092 -0.6523  1.9024
   62MOL   H12239284   1.401   1.357   4.792  0.5250  0.0136  0.6058
   62MOL   H12339285   1.485   1.301   4.558 -0.4410  0.1966  0.5538
   62MOL   H12439286   1.454   1.474   4.519  0.0152 -0.5692  0.1558
   62MOL   H12539287   1.632   1.375   4.732 -0.5054 -1.5574 -0.5615
   62MOL   H12639288   1.584   1.538   4.720  1.3516 -0.8692  0.1169
   62MOL   H12739289   1.719   1.379   4.516  1.3920  0.1852 -0.1972
   62MOL   H12839290   1.806   1.489   4.618  2.4830 -1.2582 -3.6424
   62MOL   H12939291   1.646   1.668   4.480 -0.1731  0.8202 -1.5250
   62MOL   C13039292   1.774   1.585   4.347  0.4385  0.1915 -0.2835
   62MOL   O13139293   1.862   1.502   4.325  0.3447  0.0415 -0.1804
   62MOL   C13239294   1.753   1.698   4.258 -0.1387 -0.9696  0.2602
   62MOL   C13339295   1.840   1.705   4.126 -0.3651 -0.7294  0.2342
   62MOL   C13439296   1.776   1.802   4.024 -0.6864  0.4619 -0.0175
   62MOL   C13539297   1.835   1.784   3.883 -0.3705  0.4921  0.6263
   62MOL   C13639298   1.798   1.662   3.807 -0.4270  0.3147  0.4775
   62MOL   O13739299   1.856   1.554   3.822  0.9586 -0.1202  0.7184
   62MOL   N13839300   1.717   1.691   3.706  0.4718  0.2866 -0.2140
   62MOL   C13939301   1.650   1.592   3.621  0.4173 -0.1443  0.0387
   62MOL   C14039302   1.523   1.659   3.565 -0.1962 -0.4052 -0.2101
   62MOL   C14139303   1.415   1.708   3.664  0.4099  0.0635  0.3058
   62MOL   C14239304   1.431   1.854   3.716  0.2082  0.4979 -0.0006
   62MOL   N14339305   1.433   1.945   3.609 -0.8012  0.0184  0.3787
   62MOL   H14439306   1.649   1.697   4.227 -0.7137  2.2709  1.8823
   62MOL   H14539307   1.758   1.801   4.293 -2.1907 -0.4736 -0.8008
   62MOL   H14639308   1.935   1.745   4.159 -0.7844 -0.5676  1.2644
   62MOL   H14739309   1.858   1.607   4.081  0.5741 -0.3322 -0.2682
   62MOL   H14839310   1.789   1.906   4.056 -0.6448  1.7672 -3.9544
   62MOL   H14939311   1.671   1.774   4.020 -0.1141 -1.7985  0.1359
   62MOL   H15039312   1.944   1.783   3.887 -0.2417 -0.8071 -2.2091
   62MOL   H15139313   1.811   1.877   3.829  0.1574  1.3964  1.9292
   62MOL   H15239314   1.690   1.788   3.696  0.9875  0.3703 -0.8780
   62MOL   H15339315   1.634   1.501   3.679  2.2751 -0.1783  0.5348
   62MOL   H15439316   1.719   1.568   3.540  1.0254  1.7137 -0.0077
   62MOL   H15539317   1.552   1.740   3.497 -0.5688 -1.8992 -2.2102
   62MOL   H15639318   1.467   1.595   3.497 -1.5427 -0.1381  0.6274
   62MOL   H15739319   1.408   1.645   3.752 -1.8711 -0.1932 -0.0426
   62MOL   H15839320   1.319   1.703   3.612 -0.5015 -0.5524  2.0224
   62MOL   H15939321   1.515   1.848   3.785  0.0573 -2.2683 -0.0213
   62MOL   H16039322   1.347   1.883   3.780  2.2971  0.0082  3.0484
   62MOL   H16139323   1.345   1.959   3.562 -0.7344 -0.5456  0.0732
   62MOL   C16239324   1.531   2.024   3.566  0.0283  0.1226  0.5865
   62MOL   O16339325   1.647   2.013   3.609 -0.0139  0.0965 -0.4650
   62MOL   C16439326   1.500   2.123   3.448  0.0370 -0.6755  0.3490
   62MOL   C16539327   1.528   2.063   3.313 -0.0684  0.9195 -0.1860
   62MOL   C16639328   1.404   1.985   3.259 -0.0937 -0.8135  0.0464
   62MOL   C16739329   1.420   1.926   3.120 -0.0689  0.3531 -0.1371
   62MOL   C16839330   1.524   1.813   3.104 -0.1929  0.3053  0.3218
   62MOL   O16939331   1.631   1.809   3.164  0.3256  0.8800 -0.6594
   62MOL   N17039332   1.494   1.719   3.012 -0.3751  0.1911  0.5247
   62MOL   C17139333   1.588   1.617   2.974 -0.2121  0.5401  0.4642
   62MOL   C17239334   1.532   1.538   2.855  0.4445  0.4736  0.5393
   62MOL   C17339335   1.629   1.417   2.820 -0.1753  0.1115  0.1643
   62MOL   C17439336   1.776   1.443   2.808  0.1463  0.1333  0.0946
   62MOL   N17539337   1.814   1.446   2.664 -0.6364 -0.7004 -0.0231
   62MOL   H17639338   1.396   2.154   3.459  0.1832 -0.3402  0.8451
   62MOL   H17739339   1.569   2.207   3.462 -0.6315 -0.1399  0.4759
   62MOL   H17839340   1.546   2.144   3.242 -1.2248 -0.7080 -2.3840
   62MOL   H17939341   1.612   1.995   3.327 -0.7161  0.3078  0.8048
   62MOL   H18039342   1.320   2.055   3.259  0.6728  0.1246 -1.3318
   62MOL   H18139343   1.371   1.906   3.327  0.3579 -2.5437 -1.7198
   62MOL   H18239344   1.442   2.004   3.047  0.5279  2.9506  2.6718
   62MOL   H18339345   1.328   1.885   3.081 -0.0146  0.4134 -0.3285
   62MOL   H18439346   1.412   1.733   2.955 -0.5268  0.2167  0.7465
   62MOL   H18539347   1.621   1.553   3.056 -1.2223  1.1473  1.3621
   62MOL   H18639348   1.673   1.677   2.943 -0.6350 -0.1229 -2.0606
   62MOL   H18739349   1.432   1.509   2.886  0.5151  0.5756  0.8655
   62MOL   H18839350   1.511   1.599   2.768 -2.3159 -0.4843  0.4757
   62MOL   H18939351   1.586   1.369   2.732 -0.0476  2.5173 -1.2502
   62MOL   H19039352   1.622   1.336   2.893 -0.2053  0.1181  0.1687
   62MOL   H19139353   1.835   1.367   2.858  1.6271  0.5154 -1.0275
   62MOL   H19239354   1.791   1.541   2.852  1.4317 -0.1886  0.3721
   62MOL   H19339355   1.854   1.360   2.632  0.4720  1.0614 -3.5819
   62MOL   C19439356   1.817   1.554   2.588  0.7910  0.9459  0.3939
   62MOL   O19539357   1.770   1.657   2.631  0.0173  0.2205  0.0488
   62MOL   C19639358   1.883   1.538   2.448 -0.1530 -0.2103  0.1448
   62MOL   C19739359   1.941   1.672   2.387  0.1502 -0.1157 -0.1363
   62MOL   C19839360   1.832   1.759   2.316  0.0356  0.7679  0.0956
   62MOL   C19939361   1.891   1.882   2.249 -0.1630 -0.8375 -0.3665
   62MOL   C20039362   1.793   2.001   2.268  0.9301  0.2608 -0.4261
   62MOL   O20139363   1.686   2.008   2.204 -0.2548  0.2312  0.0843
   62MOL   N20239364   1.841   2.116   2.326 -0.4730  0.3898  0.2750
   62MOL   C20339365   1.774   2.243   2.335 -0.4742  0.1425 -0.1827
   62MOL   C20439366   1.674   2.255   2.451 -0.3929  0.1136 -0.0845
   62MOL   C20539367   1.605   2.393   2.469  0.5328 -0.2343 -0.8451
   62MOL   C20639368   1.473   2.382   2.542 -0.3503  0.6687  0.5596
   62MOL   N20739369   1.489   2.340   2.684 -0.3199 -0.1946  0.0014
   62MOL   H20839370   1.960   1.461   2.447 -0.2341 -0.2899 -0.0094
   62MOL   H20939371   1.801   1.499   2.388 -0.6318  0.6760  0.2204
   62MOL   H21039372   1.988   1.734   2.463 -0.4450 -0.8799  0.8690
   62MOL   H21139373   2.025   1.632   2.330 -1.2854 -1.4903 -1.3284
   62MOL   H21239374   1.755   1.776   2.391  0.2762  0.8329  0.3280
   62MOL   H21339375   1.786   1.697   2.239  1.6439 -0.7103  0.3069
   62MOL   H21439376   1.924   1.876   2.145 -0.4703  1.3839 -0.6192
   62MOL   H21539377   1.988   1.905   2.293 -1.6124  1.0874  1.9620
   62MOL   H21639378   1.929   2.104   2.374 -0.7682 -1.4429  0.3797
   62MOL   H21739379   1.716   2.246   2.243  1.0707  1.2680 -1.1263
   62MOL   H21839380   1.846   2.324   2.324  0.8535 -0.6693  2.0884
   62MOL   H21939381   1.597   2.181   2.429  0.0572 -0.5862  0.6913
   62MOL   H22039382   1.723   2.235   2.545  2.7533  1.4384 -1.3720
   62MOL   H22139383   1.591   2.441   2.372  0.6076  1.8944  0.1670
   62MOL   H22239384   1.667   2.450   2.538  0.6292 -2.1346  0.6735
   62MOL   H22339385   1.417   2.305   2.489  1.6492 -1.5616  1.5857
   62MOL   H22439386   1.422   2.478   2.544 -0.4869  0.7063 -2.9917
   62MOL   H22539387   1.558   2.381   2.744  1.5888 -0.1856 -2.1193
   62MOL   C22639388   1.396   2.281   2.752  0.2813  0.9735 -0.2060
   62MOL   O22739389   1.300   2.223   2.704  0.6238  0.3370  0.6560
   62MOL   C22839390   1.412   2.293   2.905 -0.1613  0.2539 -1.1038
   62MOL   C22939391   1.281   2.282   2.989  0.4937 -0.1789  0.7729
   62MOL   C23039392   1.206   2.409   2.980  0.0830  0.5042 -0.3198
   62MOL   C23139393   1.092   2.425   3.077  0.3071 -0.3146 -0.0006
   62MOL   C23239394   0.980   2.319   3.071 -0.1397 -0.1406 -0.3976
   62MOL   O23339395   0.980   2.232   3.159 -0.1690  0.2428 -0.5265
   62MOL   N23439396   0.904   2.322   2.965  0.6680 -0.2122 -0.6989
   62MOL   C23539397   0.827   2.206   2.922  0.6946  0.0227 -0.0130
   62MOL   C23639398   0.676   2.232   2.928  0.0150  0.0614 -0.3967
   62MOL   C23739399   0.576   2.113   2.922  0.2849  0.1709  0.6596
   62MOL   C23839400   0.555   2.053   2.782  0.4464 -0.2990  0.7421
   62MOL   N23939401   0.654   1.951   2.754 -0.2649  0.3759  0.1938
   62MOL   H24039402   1.476   2.209   2.930  0.2581  1.7143  3.0026
   62MOL   H24139403   1.476   2.375   2.939 -1.5724  0.8947  0.0574
   62MOL   H24239404   1.219   2.197   2.961  0.3483  0.7078 -1.7158
   62MOL   H24339405   1.302   2.258   3.093 -1.5996  1.2867  1.5606
   62MOL   H24439406   1.163   2.420   2.880 -1.9466  1.0458  0.5736
   62MOL   H24539407   1.281   2.488   2.988  1.2207 -0.3751 -2.0860
   62MOL   H24639408   1.053   2.524   3.054  0.0431 -0.4634 -0.1923
   62MOL   H24739409   1.126   2.415   3.180  0.8454  0.4417 -0.1028
   62MOL   H24839410   0.918   2.384   2.886  0.0072  0.5201 -0.2475
   62MOL   H24939411   0.865   2.118   2.974  1.2521  0.1304 -0.2422
   62MOL   H25039412   0.859   2.201   2.818  0.7447  1.3606 -0.0682
   62MOL   H25139413   0.644   2.288   3.016 -0.1549  2.8642 -2.1799
   62MOL   H25239414   0.658   2.309   2.853  0.1005  0.1700 -0.3065
   62MOL   H25339415   0.477   2.148   2.952  0.6189 -0.4853  2.6361
   62MOL   H25439416   0.594   2.046   3.007 -1.1563 -0.3790  0.5576
   62MOL   H25539417   0.546   2.121   2.698  1.4446 -0.2324  0.6826
   62MOL   H25639418   0.455   2.012   2.778 -0.8966  2.6524  2.5171
   62MOL   H25739419   0.683   1.895   2.833 -1.3511 -1.2609 -0.5367
   62MOL   C25839420   0.705   1.925   2.637 -0.2637 -0.1621 -0.0826
   62MOL   O25939421   0.679   1.989   2.533 -0.1244 -0.6888  0.3299
   62MOL   C26039422   0.809   1.817   2.636 -0.3100  0.6470  0.5004
   62MOL   C26139423   0.948   1.877   2.661 -0.1969 -0.0990 -0.0523
   62MOL   C26239424   0.976   1.887   2.809 -0.0079 -0.5703  0.4671
   62MOL   C26339425   1.114   1.955   2.835  0.7194  0.1127 -0.2404
   62MOL   C26439426   1.239   1.869   2.788  0.1470 -0.6144 -0.3819
   62MOL   O26539427   1.263   1.752   2.832  0.5236 -0.6392  0.3374
   62MOL   N26639428   1.323   1.931   2.701 -0.5356 -0.6598 -0.5620
   62MOL   C26739429   1.433   1.870   2.629 -0.5653  0.2107 -0.2826
   62MOL   C26839430   1.557   1.956   2.633 -0.5456  0.1278  0.0842
   62MOL   C26939431   1.622   1.965   2.771  0.2747  0.2102 -0.4965
   62MOL   C27039432   1.726   2.066   2.786 -0.2322  0.2581  0.0857
   62MOL   N27139433   1.778   2.059   2.921  0.1890  0.4091 -0.5388
   62MOL   H27239434   0.790   1.727   2.695 -1.0610  1.1125  0.9836
   62MOL   H27339435   0.818   1.778   2.535  2.4110  0.8443  0.6365
   62MOL   H27439436   1.028   1.824   2.609 -0.8157  2.0381 -3.3614
   62MOL   H27539437   0.957   1.979   2.623 -3.2841  0.6006  0.9206
   62MOL   H27639438   0.974   1.789   2.857  1.1275  0.2406  2.2074
   62MOL   H27739439   0.897   1.948   2.851  0.0761  0.4204 -0.7815
   62MOL   H27839440   1.128   1.973   2.942 -2.1525 -0.6713  0.3114
   62MOL   H27939441   1.106   2.054   2.790  0.8554 -1.1249 -3.0708
   62MOL   H28039442   1.305   2.027   2.674 -0.0227 -0.0126  1.3194
   62MOL   H28139443   1.399   1.867   2.525 -1.6705 -0.0252  0.0775
   62MOL   H28239444   1.452   1.767   2.658 -0.9911 -0.6164 -2.8051
   62MOL   H28339445   1.634   1.933   2.559  0.1173  0.0168  0.7908
   62MOL   H28439446   1.521   2.054   2.602 -2.0150 -0.5588 -0.3985
   62MOL   H28539447   1.659   1.863   2.783 -0.2609 -0.1476 -1.8741
   62MOL   H28639448   1.549   1.986   2.850 -1.1073  2.3275 -2.2807
   62MOL   H28739449   1.690   2.167   2.766  0.2037  0.1341 -1.3595
   62MOL   H28839450   1.799   2.060   2.706 -1.8269  1.4557 -1.4853
   62MOL   H28939451   1.807   1.970   2.960  0.3851  0.3753 -0.7566
   62MOL   C29039452   1.787   2.158   3.009  0.4806  0.0819  0.0075
   62MOL   O29139453   1.746   2.271   2.978  0.3343 -0.2610  0.8011
   62MOL   C29239454   1.839   2.134   3.155  0.3777 -0.1803 -0.2324
   62MOL   C29339455   1.989   2.121   3.166 -0.3681  0.4004  0.4040
   62MOL   C29439456   2.062   2.260   3.153  0.1214 -0.3501  0.3624
   62MOL   C29539457   2.213   2.252   3.164 -0.3829 -0.2061 -0.0610
   62MOL   C29639458   2.274   2.397   3.159  0.1392  0.0073  0.4141
   62MOL   O29739459   2.220   2.470   3.078  0.7912  0.9566  1.2323
   62MOL   N29839460   2.384   2.423   3.228 -0.0224  0.0443  0.0670
   62MOL   C29939461   2.451   2.550   3.222  0.0343  1.1668  0.3414
   62MOL   C30039462   2.384   2.647   3.324 -0.1606 -0.4253 -0.5578
   62MOL   C30139463   2.471   2.768   3.349 -0.5214  0.9167  0.1615
   62MOL   C30239464   2.429   2.849   3.476  0.4364  0.3143  0.2957
   62MOL   N30339465   2.298   2.908   3.455  0.5019 -0.3695  0.0398
   62MOL   H30439466   1.821   2.230   3.202 -2.3036 -1.2404  0.9600
   62MOL   H30539467   1.781   2.056   3.204 -1.2707  0.8577 -0.5300
   62MOL   H30639468   2.016   2.090   3.266 -2.1621  0.1132  0.8207
   62MOL   H30739469   2.022   2.036   3.107 -2.2611  1.2751 -2.0402
   62MOL   H30839470   2.024   2.328   3.230  1.0256 -0.2106  0.6966
   62MOL   H30939471   2.029   2.308   3.061  1.9540 -1.6745 -1.0157
   62MOL   H31039472   2.245   2.194   3.078 -0.7985 -3.2805  1.7793
   62MOL   H31139473   2.245   2.213   3.261 -1.0098  0.6022  0.4832
   62MOL   H31239474   2.419   2.355   3.293  0.7777 -1.6549 -2.0868
   62MOL   H31339475   2.467   2.591   3.122  1.6127  0.1438  0.1482
   62MOL   H31439476   2.552   2.529   3.257 -0.4296 -2.0958 -0.1044
   62MOL   H31539477   2.285   2.676   3.287  1.6279  3.5351 -2.5144
   62MOL   H31639478   2.371   2.591   3.417 -0.0808 -1.9918 -1.4700
   62MOL   H31739479   2.473   2.827   3.257  1.7087  0.0568 -0.3815
   62MOL   H31839480   2.567   2.719   3.366 -0.3466  1.7802  1.8083
   62MOL   H31939481   2.504   2.922   3.507  1.2156 -0.4348  0.1999
   62MOL   H32039482   2.426   2.783   3.563 -0.4128  0.2362  0.2091
   62MOL   H32139483   2.215   2.853   3.473 -1.7894  3.0571  0.4364
   62MOL   C32239484   2.283   3.020   3.383 -0.4273 -0.6073  0.0825
   62MOL   O32339485   2.380   3.086   3.345 -0.0305 -0.1876  0.0053
   62MOL   C32439486   2.143   3.062   3.351 -0.3358  0.3531 -0.2469
   62MOL   C32539487   2.126   3.096   3.195 -0.2539  0.9376 -0.2338
   62MOL   C32639488   2.049   2.992   3.111  0.2104  0.2479  0.5807
   62MOL   C32739489   2.118   2.859   3.094  0.2254 -0.0814  0.6388
   62MOL   C32839490   2.025   2.754   3.040  0.5715  0.0865 -0.1496
   62MOL   O32939491   2.018   2.730   2.919 -0.1359 -0.1486  0.2810
   62MOL   N33039492   1.960   2.681   3.132 -0.1529  0.5088 -0.0661
   62MOL   C33139493   1.847   2.590   3.103 -0.0114 -0.4025 -0.0959
   62MOL   C33239494   1.747   2.575   3.218 -0.0037 -0.1255  0.3957
   62MOL   C33339495   1.606   2.531   3.165  0.3085 -0.0245  0.5566
   62MOL   C33439496   1.513   2.487   3.273  0.1516  0.6014 -0.1535
   62MOL   N33539497   1.494   2.592   3.368  0.4399 -0.3783 -0.4940
   62MOL   H33639498   2.079   2.977   3.375  0.3516  0.0165  0.4065
   62MOL   H33739499   2.115   3.147   3.414  0.5430  0.8357 -0.4905
   62MOL   H33839500   2.054   3.177   3.208  0.5487  1.9534 -2.0187
   62MOL   H33939501   2.220   3.132   3.154 -1.4948  1.1597 -2.9819
   62MOL   H34039502   2.037   3.026   3.008  1.6746  0.3130  0.4319
   62MOL   H34139503   1.944   2.982   3.141  0.2143  3.1754  1.6739
   62MOL   H34239504   2.160   2.828   3.190 -0.8030 -2.6786  0.2981
   62MOL   H34339505   2.195   2.866   3.017 -2.1799  1.5203 -1.7073
   62MOL   H34439506   1.997   2.685   3.226  1.3288  1.7047 -0.6645
   62MOL   H34539507   1.892   2.493   3.086  0.3808 -0.0553 -1.0779
   62MOL   H34639508   1.797   2.633   3.016  0.2209  0.5293  0.2224
   62MOL   H34739509   1.784   2.495   3.283  0.2177  0.4916  1.0368
   62MOL   H34839510   1.738   2.665   3.279 -0.8715  0.3567 -0.4358
   62MOL   H34939511   1.625   2.449   3.097  1.8891  1.0831 -0.3829
   62MOL   H35039512   1.558   2.606   3.102 -0.4921 -1.3913 -0.4693
   62MOL   H35139513   1.556   2.401   3.324 -1.5292 -1.4928 -2.1759
   62MOL   H35239514   1.422   2.445   3.231  0.5331  0.1270 -0.5110
   62MOL   H35339515   1.454   2.679   3.334 -0.1209 -1.2680 -2.1651
   62MOL   C35439516   1.543   2.591   3.494 -0.1413 -0.0163 -0.4928
   62MOL   O35539517   1.591   2.494   3.548  0.2689  0.2491 -0.6513
   62MOL   C35639518   1.536   2.719   3.577 -0.4590  0.4951  0.1884
   62MOL   C35739519   1.493   2.703   3.717 -0.7403  0.1789 -0.4073
   62MOL   C35839520   1.466   2.824   3.802 -0.5056  0.0409  0.9985
   62MOL   C35939521   1.403   2.797   3.942  0.1995 -0.1799 -0.5153
   62MOL   C36039522   1.251   2.792   3.942 -0.4648  0.3195 -0.3190
   62MOL   O36139523   1.196   2.685   3.946  0.0624 -0.5643 -0.8339
   62MOL   N36239524   1.185   2.914   3.938 -0.1844 -0.4012 -0.1781
   62MOL   C36339525   1.041   2.928   3.916  0.1549  0.4753 -0.1910
   62MOL   C36439526   0.972   2.949   4.049  0.3215 -0.1796 -0.4568
   62MOL   C36539527   1.023   3.076   4.128  0.0993  0.3983 -0.4232
   62MOL   C36639528   0.984   3.065   4.282 -0.0849  0.1942  0.0906
   62MOL   N36739529   1.065   3.160   4.355  0.4932 -0.0563 -0.4735
   62MOL   H36839530   1.634   2.766   3.582 -1.0183  1.8004 -0.8101
   62MOL   H36939531   1.467   2.792   3.534  0.2325  1.6421  0.9924
   62MOL   H37039532   1.408   2.635   3.721  0.8586 -2.0487 -2.5307
   62MOL   H37139533   1.573   2.650   3.771 -0.6049 -0.1992 -0.9776
   62MOL   H37239534   1.413   2.902   3.747 -0.7340 -0.8794 -0.1154
   62MOL   H37339535   1.565   2.863   3.823 -0.4646 -0.9212  2.7057
   62MOL   H37439536   1.448   2.863   4.016  3.3387 -1.9548 -0.7650
   62MOL   H37539537   1.437   2.699   3.977 -1.8786 -0.8028 -0.1735
   62MOL   H37639538   1.243   2.996   3.926 -0.4198 -0.4424 -1.6866
   62MOL   H37739539   1.005   2.840   3.862 -1.4277 -0.0496  1.6836
   62MOL   H37839540   1.023   3.014   3.851 -0.4348 -0.1539 -0.8757
   62MOL   H37939541   0.865   2.964   4.033 -0.0294 -0.3379  1.5339
   62MOL   H38039542   0.964   2.853   4.100 -1.6979  0.0667 -0.2578
   62MOL   H38139543   0.987   3.158   4.067 -1.3105 -1.4340 -2.1262
   62MOL   H38239544   1.131   3.088   4.136  0.0995 -0.8349  2.0434
   62MOL   H38339545   1.003   2.966   4.326 -0.7042  0.4403  0.9346
   62MOL   H38439546   0.879   3.089   4.301 -0.1804 -1.0357  1.2080
   62MOL   H38539547   1.029   3.253   4.367 -0.1403 -0.1478 -1.5567
   62MOL   C38639548   1.176   3.132   4.420 -0.5805 -0.1200 -0.3747
   62MOL   O38739549   1.226   3.225   4.476 -0.0032 -0.1750  0.0404
   62MOL   C38839550   1.256   3.007   4.384 -0.8022 -0.0606  0.0143
   62MOL   C38939551   1.405   3.022   4.397  0.1149  0.0406  0.5751
   62MOL   C39039552   1.482   3.080   4.278 -0.0265 -0.2035  0.4147
   62MOL   C39139553   1.638   3.055   4.269  0.3179 -0.1493  0.5757
   62MOL   C39239554   1.680   2.936   4.191  0.6196  0.5452  0.0076
   62MOL   O39339555   1.644   2.825   4.228  0.2652  0.0338  0.4741
   62MOL   N39439556   1.745   2.954   4.074 -0.4066 -0.0425 -0.4723
   62MOL   C39539557   1.793   2.847   4.000 -0.4401  0.7970 -0.4899
   62MOL   C39639558   1.876   2.890   3.875  0.4757  0.4856 -0.3200
   62MOL   C39739559   1.925   2.771   3.789  0.4526 -0.2538  0.0057
   62MOL   C39839560   2.042   2.811   3.701 -0.1267  0.6141 -0.3356
   62MOL   N39939561   2.086   2.693   3.631  0.1131  0.2944  0.1148
   62MOL   H40039562   1.227   2.926   4.450 -1.9299  0.5740  0.3094
   62MOL   H40139563   1.235   2.972   4.283 -1.5497 -0.4278  0.2957
   62MOL   H40239564   1.421   3.076   4.490 -0.8760  1.1976  0.0939
   62MOL   H40339565   1.441   2.921   4.414  1.4368  0.1360 -1.5550
   62MOL   H40439566   1.463   3.188   4.282 -0.8514 -0.3085 -0.5071
   62MOL   H40539567   1.443   3.034   4.187 -0.0388  0.5711  0.0212
   62MOL   H40639568   1.694   3.053   4.363 -0.8591 -2.4963  1.2690
   62MOL   H40739569   1.688   3.136   4.217  0.9587 -1.3016 -0.6302
   62MOL   H40839570   1.785   3.042   4.044  1.6307 -0.3961  1.1130
   62MOL   H40939571   1.703   2.787   3.984 -0.2166  0.6455 -1.1943
   62MOL   H41039572   1.861   2.789   4.063 -0.3121 -0.3632 -1.6636
   62MOL   H41139573   1.807   2.941   3.809  2.5535  0.4816 -2.5730
   62MOL   H41239574   1.956   2.959   3.904  1.4353 -0.3466 -0.9366
   62MOL   H41339575   1.843   2.743   3.723 -0.3378  1.5571  0.1898
   62MOL   H41439576   1.955   2.682   3.844  1.4923  0.1627  0.1112
   62MOL   H41539577   2.126   2.845   3.762  0.4404  0.0164 -0.7712
   62MOL   H41639578   2.012   2.893   3.636  2.0912  0.7221 -1.2919
   62MOL   H41739579   2.127   2.624   3.692 -0.0716 -0.3128 -0.4354
   62MOL   C41839580   2.054   2.648   3.509 -0.5767  0.1952 -0.0184
   62MOL   O41939581   2.017   2.718   3.415 -0.2435 -0.0420  0.5167
   62MOL   C42039582   2.084   2.499   3.490  0.3572 -0.1435 -0.5114
   62MOL   C42139583   1.967   2.411   3.544  0.3681 -0.8707 -0.0540
   62MOL   C42239584   1.981   2.355   3.684 -0.5336  0.0277  0.2584
   62MOL   C42339585   1.906   2.225   3.717 -0.2784 -0.2422 -0.5367
   62MOL   C42439586   1.990   2.110   3.670  0.3643  0.8772 -0.1882
   62MOL   O42539587   2.113   2.108   3.684  0.0245 -0.2160  0.4954
   62MOL   N42639588   1.939   2.012   3.596  0.7737 -0.2566 -0.1351
   62MOL   C42739589   2.016   1.907   3.528  0.2417  0.1523  0.4116
   62MOL   C42839590   1.923   1.829   3.433 -0.5838  0.4386  0.2397
   62MOL   C42939591   2.003   1.720   3.344 -0.1425 -1.0514 -0.6206
   62MOL   C43039592   1.906   1.622   3.281  0.5023  0.0112  0.2067
   62MOL   N43139593   1.967   1.559   3.167 -0.1199 -0.0304 -0.0895
   62MOL   H43239594   2.096   2.493   3.381  0.1616  0.1797 -0.5484
   62MOL   H43339595   2.173   2.459   3.539  0.2982 -0.3759 -0.5909
   62MOL   H43439596   1.868   2.456   3.546  0.2092 -1.1472 -1.1118
   62MOL   H43539597   1.944   2.331   3.473 -3.9971  1.3640 -1.3090
   62MOL   H43639598   1.948   2.427   3.759 -2.1355  1.0645 -1.3866
   62MOL   H43739599   2.088   2.347   3.705 -0.3697 -0.3576 -0.6877
   62MOL   H43839600   1.805   2.223   3.677 -0.8309 -0.9108  0.8659
   62MOL   H43939601   1.901   2.211   3.825 -1.5596  0.6542 -0.4674
   62MOL   H44039602   1.842   2.026   3.572  0.8187  0.9079  0.3263
   62MOL   H44139603   2.044   1.836   3.607 -2.8955 -1.9732 -0.2909
   62MOL   H44239604   2.105   1.950   3.483  1.5361  2.6158  5.0702
   62MOL   H44339605   1.862   1.765   3.497  0.3921 -1.0588 -0.2840
   62MOL   H44439606   1.870   1.890   3.360  0.4545 -0.6016 -1.4291
   62MOL   H44539607   2.078   1.670   3.405 -0.8871 -3.3126 -1.5062
   62MOL   H44639608   2.059   1.775   3.268 -0.3309  0.4044  0.2786
   62MOL   H44739609   1.813   1.676   3.262 -1.8173 -2.7312  3.2572
   62MOL   H44839610   1.882   1.554   3.362  1.0824 -0.1585  0.2366
   62MOL   H44939611   1.920   1.580   3.081 -2.2164  1.9067  1.4861
   62MOL   C45039612   2.036   1.444   3.182  0.0043 -0.1938  0.0892
   62MOL   O45139613   2.083   1.403   3.288 -0.1807 -0.3757  0.2402
   62MOL   C45239614   2.084   1.378   3.054  0.1043  0.1266  0.2297
   62MOL   C45339615   2.223   1.311   3.055 -0.2739 -1.0074  0.3517
   62MOL   C45439616   2.237   1.172   3.116 -0.4593 -0.0848 -0.3271
   62MOL   C45539617   2.385   1.121   3.135 -0.3900  0.1622  0.6835
   62MOL   C45639618   2.415   1.027   3.260 -0.4989 -0.0316 -0.1238
   62MOL   O45739619   2.333   0.952   3.306 -0.5410  0.1999  0.6064
   62MOL   N45839620   2.530   1.049   3.329 -0.3379  0.1491  0.0764
   62MOL   C45939621   2.574   0.980   3.444  0.7587  0.0705 -0.5876
   62MOL   C46039622   2.688   0.882   3.415 -0.0523 -0.8290  0.7044
   62MOL   C46139623   2.749   0.801   3.530 -0.2507  0.0617  0.0406
   62MOL   C46239624   2.856   0.707   3.482 -0.1288  0.2888  0.1322
   62MOL   N46339625   2.982   0.768   3.460 -0.1524 -0.2144  0.6284
   62MOL   H46439626   2.006   1.309   3.021  0.6465  0.3542 -1.5614
   62MOL   H46539627   2.091   1.445   2.968  0.2543 -0.6514 -0.3750
   62MOL   H46639628   2.270   1.310   2.957  0.0958  1.4162  0.4858
   62MOL   H46739629   2.296   1.376   3.104 -0.4652  1.5479 -2.6318
   62MOL   H46839630   2.169   1.106   3.061 -0.8118 -0.0429  0.0475
   62MOL   H46939631   2.183   1.171   3.211 -0.8717 -1.1586 -0.5562
   62MOL   H47039632   2.452   1.207   3.135  2.0227 -1.6542 -0.6954
   62MOL   H47139633   2.411   1.068   3.043 -0.7294  1.1889 -0.0217
   62MOL   H47239634   2.584   1.129   3.296  0.2545 -0.2550  0.0523
   62MOL   H47339635   2.493   0.944   3.507  1.1348  3.0520  1.7510
   62MOL   H47439636   2.614   1.050   3.518  2.1468 -0.4770 -0.8089
   62MOL   H47539637   2.653   0.808   3.342  1.1487 -1.7810  1.0657
   62MOL   H47639638   2.765   0.932   3.357 -0.2686  0.0737  1.2000
   62MOL   H47739639   2.674   0.752   3.591 -0.9639  0.7567 -0.2576
   62MOL   H47839640   2.803   0.862   3.602  1.8232 -1.8743  0.1457
   62MOL   H47939641   2.826   0.655   3.391 -0.4913 -0.3012  0.5815
   62MOL   H48039642   2.865   0.625   3.554  1.4285 -0.9434 -1.4268
   62MOL   H48139643   2.986   0.844   3.393  0.0485 -0.5844  0.2200
   62MOL   C48239644   3.089   0.740   3.537  0.0337  0.1556  0.3904
   62MOL   O48339645   3.087   0.664   3.635  0.4316  0.3942 -0.1690
   62MOL   C48439646   3.216   0.805   3.491  0.1970 -0.1389  0.6683
   62MOL   C48539647   3.252   0.947   3.539  0.0855  0.2503  0.0329
   62MOL   C48639648   3.178   1.064   3.475 -0.5192  0.1156 -0.4386
   62MOL   C48739649   3.213   1.073   3.321 -0.0752 -0.0108  0.2937
   62MOL   C48839650   3.122   0.980   3.238 -0.7515  0.5726  0.0508
   62MOL   O48939651   3.003   0.968   3.256  0.2968  0.5576 -0.3503
   62MOL   N49039652   3.173   0.911   3.136 -0.2085  0.3054 -0.4187
   62MOL   C49139653   3.105   0.811   3.054 -0.0917  0.3380  0.3120
   62MOL   C49239654   3.199   0.711   2.990 -0.8106  0.8443 -1.0662
   62MOL   C49339655   3.225   0.751   2.849  0.1541  0.9138  0.0013
   62MOL   C49439656   3.115   0.731   2.745  0.2002  0.0800 -0.3378
   62MOL   N49539657   3.115   0.601   2.683 -0.0203  0.4665  0.2389
   62MOL   H49639658   3.294   0.734   3.521  1.8740  1.4303  0.1096
   62MOL   H49739659   3.227   0.795   3.383 -1.1012  1.0062  0.4210
   62MOL   H49839660   3.216   0.932   3.641 -1.2054 -1.2559 -0.6151
   62MOL   H49939661   3.358   0.969   3.550 -0.4240  1.4922  2.9522
   62MOL   H50039662   3.208   1.162   3.511  0.3482 -0.1469 -0.4338
   62MOL   H50139663   3.072   1.055   3.500  0.1444 -3.8970  1.4962
   62MOL   H50239664   3.317   1.056   3.295  0.1812  3.5545 -1.2583
   62MOL   H50339665   3.201   1.172   3.278 -0.7045 -0.5460 -0.7843
   62MOL   H50439666   3.267   0.934   3.108 -0.8629  1.7547 -1.5241
   62MOL   H50539667   3.054   0.869   2.978  2.0816 -0.2486 -1.6745
   62MOL   H50639668   3.035   0.761   3.121 -0.5172  1.0765  0.4220
   62MOL   H50739669   3.291   0.695   3.047 -0.5239 -2.1489 -2.2823
   62MOL   H50839670   3.150   0.614   2.983  0.0614  0.1284  2.0018
   62MOL   H50939671   3.320   0.708   2.816 -0.9413 -1.1869 -0.4701
   62MOL   H51039672   3.237   0.859   2.840  0.2542  0.8386 -0.9076
   62MOL   H51139673   3.128   0.802   2.664  1.2350  0.7878  0.4487
   62MOL   H51239674   3.019   0.761   2.788  0.1724 -0.2084 -0.1918
   62MOL   H51339675   3.152   0.597   2.589 -0.7595  0.4805 -0.0528
   62MOL   C51439676   3.033   0.506   2.723  0.0777 -0.3791 -0.5266
   62MOL   O51539677   2.960   0.514   2.822  0.1162 -0.4250  0.3380
   62MOL   C51639678   3.030   0.381   2.633  0.5034 -0.0779 -0.4296
   62MOL   C51739679   3.105   0.256   2.686 -0.7331 -0.2622 -0.0423
   62MOL   C51839680   3.255   0.262   2.643 -0.0805  0.3350 -0.3046
   62MOL   C51939681   3.342   0.137   2.685  0.9327 -0.8140 -0.3261
   62MOL   C52039682   3.359   0.114   2.839  0.0001  0.4709 -0.5110
   62MOL   O52139683   3.367   7.698   2.884  0.3076 -0.0613 -0.1157
   62MOL   N52239684   3.369   0.219   2.917  0.3110  0.0248  0.2322
   62MOL   C52339685   3.381   0.216   3.062  0.0466  0.1780  0.9189
   62MOL   C52439686   3.313   0.344   3.116  0.1153  1.0755  0.0267
   62MOL   C52539687   3.157   0.335   3.104 -0.0598 -0.1552 -0.8745
   62MOL   C52639688   3.089   0.438   3.191 -0.2796 -0.1415  0.1863
   62MOL   N52739689   2.953   0.441   3.146  0.1016  0.7928 -0.1121
   62MOL   H52839690   2.925   0.352   2.626  1.1082 -2.2299 -0.8129
   62MOL   H52939691   3.049   0.409   2.530  0.7408 -1.6539 -0.8214
   62MOL   H53039692   3.094   0.252   2.795  0.6289 -0.6267  0.0938
   62MOL   H53139693   3.065   0.158   2.659  1.0359 -0.8730 -0.5436
   62MOL   H53239694   3.304   0.355   2.674 -1.2653  0.3527  1.5946
   62MOL   H53339695   3.248   0.281   2.536  1.5364  0.5828 -0.3829
   62MOL   H53439696   3.441   0.131   2.641 -0.5427 -1.8765 -3.6247
   62MOL   H53539697   3.302   0.047   2.638  2.8689 -1.0038 -1.6636
   62MOL   H53639698   3.352   0.314   2.886  1.9767 -0.3922 -2.0788
   62MOL   H53739699   3.488   0.222   3.082 -0.1456  0.4607  1.8845
   62MOL   H53839700   3.333   0.125   3.098 -0.2108 -0.1699 -0.2704
   62MOL   H53939701   3.350   0.347   3.219  0.5976 -2.2389  0.0183
   62MOL   H54039702   3.353   0.435   3.073 -0.6503  2.4640  2.1373
   62MOL   H54139703   3.120   0.234   3.122 -2.3652  0.7008 -0.6915
   62MOL   H54239704   3.134   0.351   2.998 -1.3861  0.5133 -0.4920
   62MOL   H54339705   3.140   0.533   3.195 -0.0585 -0.3087  1.5065
   62MOL   H54439706   3.099   0.407   3.295 -0.9177  1.1049  0.6289
   62MOL   H54539707   2.945   0.460   3.047 -3.0652  0.4759  0.0165
   62MOL   C54639708   2.842   0.412   3.215 -0.1008 -0.1126 -0.2278
   62MOL   O54739709   2.846   0.391   3.337  0.2601 -0.3967  0.0363
   62MOL   C54839710   2.716   0.387   3.139  0.4542 -1.0188  0.4154
   62MOL   C54939711   2.625   0.514   3.126 -0.7050 -0.7950 -0.1146
   62MOL   C55039712   2.686   0.634   3.036 -0.0490 -0.6578  0.4712
   62MOL   C55139713   2.589   0.753   3.047  0.0571  0.3291  0.4515
   62MOL   C55239714   2.656   0.874   2.988  0.5726 -0.9966  0.1081
   62MOL   O55339715   2.751   0.919   3.047  0.3227  0.2623  0.0666
   62MOL   N55439716   2.607   0.936   2.882  0.0195  0.3127  0.2885
   62MOL   C55539717   2.652   1.070   2.848  0.5601 -0.0083  0.5104
   62MOL   C55639718   2.539   1.147   2.768  0.1791  0.5874 -0.0544
   62MOL   C55739719   2.573   1.283   2.717 -0.1582  0.1285  0.2864
   62MOL   C55839720   2.456   1.375   2.672 -0.3308  0.4224  0.1446
   62MOL   N55939721   2.489   1.506   2.619 -0.5782  0.2770 -0.4591
   62MOL   H56039722   2.731   0.352   3.037  1.8703 -2.0443  0.9577
   62MOL   H56139723   2.667   0.304   3.191 -0.8852 -2.1924 -2.6096
   62MOL   H56239724   2.530   0.484   3.082 -0.5273 -1.4061 -0.0770
   62MOL   H56339725   2.592   0.547   3.225  0.5443  0.9356 -0.2474
   62MOL   H56439726   2.710   0.595   2.937  2.5072  3.3201 -0.5881
   62MOL   H56539727   2.780   0.675   3.073 -0.5365 -0.1940  1.2113
   62MOL   H56639728   2.558   0.774   3.149  0.0748 -0.6488  0.6609
   62MOL   H56739729   2.494   0.731   2.998  0.7237 -0.0298 -0.6995
   62MOL   H56839730   2.520   0.905   2.842  0.3373 -0.0017 -0.1594
   62MOL   H56939731   2.746   1.065   2.794  0.6156 -2.8677  0.7597
   62MOL   H57039732   2.671   1.123   2.941 -1.9750  0.6055  0.7169
   62MOL   H57139733   2.504   1.089   2.683 -1.2315  2.2167 -0.6119
   62MOL   H57239734   2.457   1.161   2.838  2.1221  0.5799  2.2902
   62MOL   H57339735   2.641   1.267   2.634  1.1845 -4.1181  2.0945
   62MOL   H57439736   2.632   1.345   2.785  1.0831 -1.2399  0.4629
   62MOL   H57539737   2.399   1.385   2.764  0.4690 -0.9675  0.8173
   62MOL   H57639738   2.387   1.314   2.613  0.8507 -0.0420 -0.7758
   62MOL   H57739739   2.544   1.574   2.671  0.1939  0.4822 -1.5320
   62MOL   C57839740   2.439   1.559   2.508 -0.0316 -0.6977  0.2416
   62MOL   O57939741   2.389   1.497   2.409  0.0600 -0.1495 -0.5318
   62MOL   C58039742   2.457   1.710   2.488  0.4726 -1.1488  0.1652
   62MOL   C58139743   2.329   1.785   2.442 -0.3161 -0.2022  0.4048
   62MOL   C58239744   2.359   1.926   2.378 -0.1885  0.1981 -0.1022
   62MOL   C58339745   2.357   2.032   2.496 -0.3219 -0.1046 -0.5632
   62MOL   C58439746   2.219   2.050   2.562  0.6685 -0.0875  0.0963
   62MOL   O58539747   2.118   2.031   2.495  0.7141  0.1265  0.4495
   62MOL   N58639748   2.211   2.095   2.689  0.5928 -0.0620 -0.8451
   62MOL   C58739749   2.087   2.138   2.751  0.4667  0.7288  0.5212
   62MOL   C58839750   2.062   2.294   2.754  0.1673  1.0542 -0.0790
   62MOL   C58939751   2.062   2.358   2.606 -0.3582 -0.1544  0.1317
   62MOL   C59039752   2.020   2.507   2.592 -0.5846  0.4501 -0.4839
   62MOL   N59139753   2.023   2.540   2.448  0.4067 -0.1104  0.3934
   62MOL   H59239754   2.502   1.763   2.572  0.4581 -2.9924  1.3680
   62MOL   H59339755   2.537   1.717   2.413 -2.1790 -1.2645 -2.7717
   62MOL   H59439756   2.284   1.725   2.363  0.9045  0.2791 -0.6774
   62MOL   H59539757   2.259   1.789   2.525 -1.1051 -1.5496 -0.1695
   62MOL   H59639758   2.282   1.964   2.310 -0.6977 -2.3299 -0.9616
   62MOL   H59739759   2.456   1.922   2.329 -0.8441  0.6313 -1.4581
   62MOL   H59839760   2.377   2.128   2.448 -3.0811  1.4451  1.2817
   62MOL   H59939761   2.430   2.008   2.574  0.1582 -0.2847 -1.0606
   62MOL   H60039762   2.294   2.114   2.743  0.9922  1.5308 -1.9717
   62MOL   H60139763   2.100   2.083   2.845 -0.2358 -0.7856 -0.2410
   62MOL   H60239764   2.002   2.093   2.699 -1.0449  1.1690  2.5536
   62MOL   H60339765   1.968   2.319   2.803  0.6871 -1.4951  2.3539
   62MOL   H60439766   2.144   2.331   2.816 -0.1188  2.0301 -0.2805
   62MOL   H60539767   1.983   2.306   2.552  1.8460 -4.0291  0.4407
   62MOL   H60639768   2.153   2.321   2.559 -0.6007  0.0751 -0.5228
   62MOL   H60739769   2.105   2.559   2.636 -0.6153 -1.4657  1.9252
   62MOL   H60839770   1.927   2.534   2.643  0.2767 -0.8322  1.8348
   62MOL   H60939771   2.072   2.478   2.385  0.1189 -1.9408  1.9602
   62MOL   C61039772   1.968   2.650   2.392 -1.3939  1.3430  0.0184
   62MOL   O61139773   1.892   2.717   2.465  0.4095 -0.4692 -0.5515
   62MOL   C61239774   1.990   2.704   2.250  0.4472 -0.2372 -0.0768
   62MOL   C61339775   1.863   2.669   2.170 -0.0682 -0.2334 -0.1608
   62MOL   C61439776   1.886   2.657   2.025  0.9903 -0.1933 -0.3050
   62MOL   C61539777   1.761   2.622   1.938 -0.0383 -0.1926 -0.4658
   62MOL   C61639778   1.699   2.485   1.959 -0.4646 -0.2084 -0.4543
   62MOL   O61739779   1.599   2.475   2.030 -0.3445 -0.0017 -0.3172
   62MOL   N61839780   1.764   2.386   1.898  0.2152  0.0972  0.5118
   62MOL   C61939781   1.737   2.247   1.927 -0.8500  0.4462  0.9399
   62MOL   C62039782   1.650   2.192   1.817  0.7103 -0.3750  0.4741
   62MOL   C62139783   1.621   2.042   1.817  0.2442 -0.3565  0.6207
   62MOL   C62239784   1.524   2.002   1.702 -0.4471 -0.2091  0.5259
   62MOL   N62339785   1.509   1.855   1.693 -0.3758 -0.3084  0.3839
   62MOL   H62439786   1.987   2.813   2.246  0.2427 -0.1489  1.9935
   62MOL   H62539787   2.084   2.672   2.205  1.2937 -0.4566  1.7810
   62MOL   H62639788   1.818   2.575   2.202 -1.0278  0.0509 -0.6489
   62MOL   H62739789   1.790   2.744   2.199 -0.3741 -0.8263  0.6159
   62MOL   H62839790   1.961   2.579   2.011  0.6508 -0.6596  0.4198
   62MOL   H62939791   1.911   2.758   1.995 -3.3298  0.9147 -0.5101
   62MOL   H63039792   1.787   2.643   1.834 -2.7373 -1.0529 -1.3603
   62MOL   H63139793   1.687   2.698   1.961  0.4691  0.9463 -2.3964
   62MOL   H63239794   1.849   2.407   1.848  0.1122 -0.0745  0.2633
   62MOL   H63339795   1.691   2.231   2.025  0.4866  2.6403  1.9606
   62MOL   H63439796   1.830   2.190   1.924 -0.4292  1.2015 -0.9220
   62MOL   H63539797   1.551   2.238   1.822  0.7344  0.0574 -2.1763
   62MOL   H63639798   1.696   2.217   1.722 -0.5883  0.9485  0.1775
   62MOL   H63739799   1.576   1.998   1.906 -0.2019  1.0726  1.1137
   62MOL   H63839800   1.710   1.982   1.795  0.8274  1.6837 -2.9315
   62MOL   H63939801   1.580   2.038   1.616 -1.2451  0.8409  0.4446
   62MOL   H64039802   1.431   2.056   1.719  0.2050  0.5217  1.9322
   62MOL   H64139803   1.480   1.823   1.784  1.5367  1.6777  1.7332
   62MOL   H64239804   1.435   1.837   1.626 -0.0899 -0.4951  0.1150
   63MOL     C139805   2.830   0.390   2.333 -0.4903  0.7703  0.5842
   63MOL     O239806   2.716   0.425   2.360  0.1332 -0.0477  0.0627
   63MOL     C339807   2.895   0.405   2.193 -0.5024  0.4386 -0.0751
   63MOL     C439808   3.004   0.528   2.192  0.0431  0.3813 -0.1205
   63MOL     C539809   3.151   0.484   2.220 -0.1104 -0.2954 -0.0550
   63MOL     C639810   3.253   0.598   2.196  0.4033 -0.7124  0.4173
   63MOL     C739811   3.278   0.694   2.312 -0.6420 -0.2509 -0.4343
   63MOL     O839812   3.207   0.686   2.411  0.6357 -0.2310 -0.6208
   63MOL     N939813   3.368   0.799   2.293 -0.3651  0.4510  0.0742
   63MOL    C1039814   3.408   0.901   2.389  0.5599 -0.6195  0.1935
   63MOL    C1139815   3.536   0.870   2.464  0.0829  0.1669 -0.3500
   63MOL    C1239816   3.641   0.819   2.361 -0.0735  0.7716  0.2527
   63MOL    C1339817   3.779   0.815   2.433 -0.1709 -0.2877  0.2224
   63MOL    N1439818   3.877   0.732   2.369  0.8192 -0.4850  0.4195
   63MOL    H1539819   2.952   0.313   2.178 -1.1044  0.1951 -0.9300
   63MOL    H1639820   2.817   0.408   2.117  0.4446  0.6058 -1.0498
   63MOL    H1739821   3.007   0.579   2.096  1.6061  0.5945  0.0298
   63MOL    H1839822   2.968   0.601   2.264  1.9115 -0.0655  1.3175
   63MOL    H1939823   3.159   0.400   2.150  3.0928 -0.1022  0.0038
   63MOL    H2039824   3.152   0.439   2.319  0.6352  0.2429  0.1817
   63MOL    H2139825   3.213   0.657   2.114 -1.1891 -0.5180  1.3029
   63MOL    H2239826   3.347   0.550   2.170  0.0094 -1.9846  1.2545
   63MOL    H2339827   3.422   0.807   2.208 -1.7712  2.4757 -0.6624
   63MOL    H2439828   3.326   0.921   2.458  0.8471  0.6800  0.1664
   63MOL    H2539829   3.415   0.997   2.339  1.2462 -1.7134 -1.8743
   63MOL    H2639830   3.572   0.950   2.529 -0.0240 -1.0852  1.3060
   63MOL    H2739831   3.512   0.795   2.540 -0.1023 -0.4954 -1.0603
   63MOL    H2839832   3.644   0.892   2.280  0.7971 -0.5134 -0.9005
   63MOL    H2939833   3.611   0.725   2.315 -0.3048  0.9824 -0.0352
   63MOL    H3039834   3.773   0.785   2.537  2.7370  0.6729  0.7322
   63MOL    H3139835   3.824   0.915   2.438 -1.6965  0.6319 -2.8304
   63MOL    H3239836   3.847   0.649   2.320  1.4520 -0.8097  0.5714
   63MOL    H3339837   2.897   0.343   2.405 -2.6638 -0.9476  1.5533
   63MOL    C3439838   4.009   0.738   2.405  0.1814  0.2497  0.3802
   63MOL    O3539839   4.061   0.839   2.462 -0.7869 -0.8892 -0.4058
   63MOL    C3639840   4.092   0.626   2.346  0.3978 -0.1279  0.1865
   63MOL    C3739841   4.122   0.518   2.448 -0.9695 -0.3508 -0.2607
   63MOL    C3839842   4.210   0.550   2.572  0.2734 -0.5753  0.5531
   63MOL    C3939843   4.353   0.600   2.554 -0.0781 -0.1779 -0.2432
   63MOL    C4039844   4.430   0.510   2.454  0.4488  0.6234 -0.5229
   63MOL    O4139845   4.427   0.390   2.468 -0.1289 -0.2344  0.0848
   63MOL    N4239846   4.501   0.571   2.354  0.3404  0.2125 -0.5605
   63MOL    C4339847   4.582   0.495   2.266 -0.3796 -0.1097 -0.2759
   63MOL    C4439848   4.703   0.570   2.210  0.7089  0.0625 -0.2910
   63MOL    C4539849   4.802   0.477   2.140  0.1262 -0.1654 -0.1203
   63MOL    C4639850   4.936   0.538   2.100 -0.5063  0.4988 -0.2979
   63MOL    N4739851   5.028   0.439   2.043  0.3298 -0.5019 -0.2754
   63MOL    H4839852   4.035   0.585   2.264  0.0265  0.2506  0.2544
   63MOL    H4939853   4.187   0.663   2.307  0.9041 -2.4105 -0.8271
   63MOL    H5039854   4.027   0.481   2.489 -2.2866  1.4289 -1.6667
   63MOL    H5139855   4.164   0.435   2.391  0.8946  2.6847 -3.4385
   63MOL    H5239856   4.203   0.465   2.639  1.6367 -1.0972  0.0459
   63MOL    H5339857   4.152   0.618   2.635  2.3836  1.6009  0.2306
   63MOL    H5439858   4.407   0.621   2.646 -2.6945 -0.7935  1.4745
   63MOL    H5539859   4.349   0.700   2.511  2.4481 -0.5908 -1.5572
   63MOL    H5639860   4.494   0.670   2.339 -2.9543 -0.0232 -0.8849
   63MOL    H5739861   4.513   0.444   2.198  0.0103 -2.6398  1.1634
   63MOL    H5839862   4.628   0.408   2.313 -0.2457 -0.1833 -0.5382
   63MOL    H5939863   4.675   0.656   2.149  3.1985 -0.4877 -2.3031
   63MOL    H6039864   4.745   0.620   2.297  2.1689  0.5984 -1.2743
   63MOL    H6139865   4.744   0.451   2.052 -0.2466 -1.2806  0.4325
   63MOL    H6239866   4.821   0.385   2.196 -1.5507  0.0669  0.8796
   63MOL    H6339867   4.983   0.592   2.182 -0.4169  0.1679 -0.1299
   63MOL    H6439868   4.918   0.612   2.022  0.6681 -0.0692 -1.1271
   63MOL    H6539869   4.974   0.373   1.989 -1.0965  0.9870 -0.7439
   63MOL    C6639870   5.162   0.446   2.025  0.4295  0.2104 -0.0004
   63MOL    O6739871   5.228   0.543   2.061 -0.2390  0.5539 -0.1044
   63MOL    C6839872   5.226   0.316   1.961  0.2330  0.0608  0.2796
   63MOL    C6939873   5.274   0.327   1.815 -0.0506  0.1174  0.8230
   63MOL    C7039874   5.148   0.315   1.722 -0.1701  1.3723  0.4114
   63MOL    C7139875   5.170   0.280   1.570  0.3366 -0.2843 -0.0091
   63MOL    C7239876   5.164   0.405   1.481 -0.3804 -0.9825  0.6114
   63MOL    O7339877   5.083   0.493   1.500  0.6367 -0.8170 -0.0934
   63MOL    N7439878   5.259   0.424   1.395 -0.8729 -0.1812  0.4466
   63MOL    C7539879   5.285   0.545   1.308 -0.4861 -0.1756 -0.2163
   63MOL    C7639880   5.249   0.533   1.159 -0.6403 -0.2635  0.2873
   63MOL    C7739881   5.282   0.402   1.086 -0.0651 -0.0258  0.4902
   63MOL    C7839882   5.262   0.415   0.941  0.2774  0.0529  0.5758
   63MOL    N7939883   5.337   0.309   0.873 -0.3382 -0.0892 -0.0831
   63MOL    H8039884   5.315   0.287   2.019 -0.7938 -1.2156  1.2531
   63MOL    H8139885   5.161   0.229   1.969  1.2186 -0.7662 -0.5671
   63MOL    H8239886   5.335   0.413   1.788  0.0272  0.1864  1.2243
   63MOL    H8339887   5.333   0.235   1.807 -0.2272  0.1007 -0.4466
   63MOL    H8439888   5.101   0.413   1.732  0.7307  1.8286  0.2790
   63MOL    H8539889   5.084   0.246   1.776 -2.1556  1.4449 -1.8020
   63MOL    H8639890   5.101   0.201   1.542  0.4292  0.3475 -2.1294
   63MOL    H8739891   5.268   0.233   1.560  0.5608  0.0609  0.5368
   63MOL    H8839892   5.318   0.342   1.396 -1.9925 -0.9944  1.2350
   63MOL    H8939893   5.393   0.559   1.306 -0.3978 -0.4342  2.0858
   63MOL    H9039894   5.253   0.637   1.357  1.2675 -0.6008  1.8247
   63MOL    H9139895   5.141   0.540   1.174 -1.3329 -1.9507 -3.4775
   63MOL    H9239896   5.299   0.617   1.110 -0.7293 -0.6558 -0.4801
   63MOL    H9339897   5.242   0.313   1.135  0.0567 -0.7524 -0.7235
   63MOL    H9439898   5.388   0.394   1.108  0.3976 -0.1298 -1.6552
   63MOL    H9539899   5.312   0.502   0.900  1.5911 -0.3773  1.2515
   63MOL    H9639900   5.159   0.417   0.905 -0.0632  0.9489  1.5799
   63MOL    H9739901   5.431   0.295   0.906  0.1364 -0.3151 -1.4726
   63MOL    C9839902   5.292   0.241   0.764 -0.5072  0.8293  0.3121
   63MOL    O9939903   5.183   0.266   0.716  0.9834  0.0494  0.5876
   63MOL   C10039904   5.385   0.136   0.704 -0.7620  0.0339  0.3152
   63MOL   C10139905   5.390   0.135   0.548 -0.1201  0.5926  0.5058
   63MOL   C10239906   5.329   0.006   0.489  0.4542  0.3284 -0.5992
   63MOL   C10339907   5.173   7.699   0.494  0.7787  0.3178  0.2514
   63MOL   C10439908   5.104   0.101   0.406  0.2934  0.4288 -0.2699
   63MOL   O10539909   5.072   0.074   0.290 -0.1860  0.0257  0.5186
   63MOL   N10639910   5.074   0.221   0.461  0.3354  0.5981 -0.0638
   63MOL   C10739911   5.018   0.327   0.379  0.2884  0.1438 -0.3726
   63MOL   C10839912   5.032   0.466   0.454 -0.0975 -0.3918  0.2999
   63MOL   C10939913   5.017   0.587   0.364 -0.0547  0.3600 -0.3864
   63MOL   C11039914   4.961   0.708   0.433 -0.1172 -0.2824 -0.3159
   63MOL   N11139915   4.814   0.717   0.417 -0.3344 -0.1717 -0.0962
   63MOL   H11239916   5.488   0.153   0.736  0.2349 -1.9760 -1.6795
   63MOL   H11339917   5.349   0.042   0.745  0.0439 -0.9088 -1.0703
   63MOL   H11439918   5.356   0.229   0.504 -0.9489  0.0224 -0.0772
   63MOL   H11539919   5.493   0.122   0.518 -1.2100 -4.1078 -1.6605
   63MOL   H11639920   5.385   7.627   0.537 -1.3555  0.9441  2.6579
   63MOL   H11739921   5.363   0.003   0.386  0.4517 -1.5927 -0.5660
   63MOL   H11839922   5.131   0.017   0.593 -1.2435  2.2954 -0.9401
   63MOL   H11939923   5.136   7.603   0.458  2.9196  0.5377 -2.6989
   63MOL   H12039924   5.114   0.249   0.549  1.6653  1.6263 -0.9770
   63MOL   H12139925   4.912   0.312   0.359  0.1419  0.5208  0.0952
   63MOL   H12239926   5.067   0.340   0.283 -0.8338  2.1416 -0.7241
   63MOL   H12339927   4.960   0.467   0.536  0.5109  1.7162  0.8400
   63MOL   H12439928   5.127   0.473   0.507 -0.2351  0.2848  0.4670
   63MOL   H12539929   4.953   0.567   0.278 -0.3587  0.4707 -0.1821
   63MOL   H12639930   5.117   0.607   0.325  0.0652  0.3969 -0.0552
   63MOL   H12739931   5.018   0.794   0.398  0.6050 -0.4958  0.3143
   63MOL   H12839932   4.975   0.698   0.541 -0.5706 -1.8230 -0.3805
   63MOL   H12939933   4.759   0.649   0.467  1.8102 -1.0167  1.2159
   63MOL   C13039934   4.757   0.797   0.321  0.2370  0.0093  0.3025
   63MOL   O13139935   4.813   0.883   0.256  0.1009  0.5438 -0.3224
   63MOL   C13239936   4.607   0.784   0.306  0.0751  1.2068 -0.1389
   63MOL   C13339937   4.541   0.915   0.344 -0.0311 -1.2044 -0.3789
   63MOL   C13439938   4.508   1.010   0.222 -0.2390  0.3695  0.2875
   63MOL   C13539939   4.433   1.142   0.263  0.1982  0.5396 -0.2586
   63MOL   C13639940   4.434   1.249   0.159 -0.1870 -0.3951 -0.0525
   63MOL   O13739941   4.539   1.288   0.122 -0.4322 -0.0663  0.4864
   63MOL   N13839942   4.318   1.299   0.115 -0.5486  0.2942 -0.0519
   63MOL   C13939943   4.303   1.397   0.012  0.3277  0.2111 -0.4762
   63MOL   C14039944   4.281   1.330   7.574 -0.4121  0.0187  0.1468
   63MOL   C14139945   4.155   1.245   7.543  0.2639 -0.7230  0.4725
   63MOL   C14239946   4.157   1.199   7.396 -1.5717 -0.2807 -0.4792
   63MOL   N14339947   4.022   1.171   7.355  0.9345 -0.0680  0.1784
   63MOL   H14439948   4.584   0.746   0.207  0.3379  1.0154 -0.1265
   63MOL   H14539949   4.572   0.702   0.368  2.1169  0.0701 -0.4279
   63MOL   H14639950   4.452   0.886   0.400 -0.5262 -1.0914 -1.1127
   63MOL   H14739951   4.611   0.971   0.407  1.0761 -3.3916  0.3720
   63MOL   H14839952   4.452   0.946   0.154  0.3587 -0.5079  0.6199
   63MOL   H14939953   4.603   1.034   0.175  0.4913 -2.1258  0.4136
   63MOL   H15039954   4.481   1.186   0.350 -0.7977  0.0364  0.5611
   63MOL   H15139955   4.332   1.110   0.291 -0.2651  2.3444  0.1713
   63MOL   H15239956   4.235   1.276   0.168  0.2020 -1.7170  0.2956
   63MOL   H15339957   4.385   1.467   0.027  0.2040 -0.0421  1.4881
   63MOL   H15439958   4.217   1.459   0.036 -0.6745 -0.9639 -1.0121
   63MOL   H15539959   4.287   1.404   7.495 -2.4261 -2.2656 -2.2262
   63MOL   H15639960   4.370   1.268   7.563  0.9103  1.4976  2.1260
   63MOL   H15739961   4.074   1.316   7.561 -0.0719 -1.2846  1.2765
   63MOL   H15839962   4.142   1.168   7.619 -1.6091  1.6331  2.6325
   63MOL   H15939963   4.217   1.109   7.385  0.2944  0.8254  0.4601
   63MOL   H16039964   4.189   1.285   7.337  1.0039  0.2398  1.6218
   63MOL   H16139965   3.959   1.110   7.406 -0.0293  1.5746  1.0002
   63MOL   C16239966   3.966   1.219   7.243 -0.5122 -0.2808 -0.3102
   63MOL   O16339967   4.015   1.301   7.168  0.6161  0.2099 -0.7471
   63MOL   C16439968   3.821   1.178   7.224 -0.3327  0.5499  0.4844
   63MOL   C16539969   3.749   1.235   7.098  0.1349  0.0544  0.4269
   63MOL   C16639970   3.802   1.188   6.959  0.2368  0.1620  0.1910
   63MOL   C16739971   3.700   1.195   6.848 -0.5868  0.1171  0.4619
   63MOL   C16839972   3.571   1.116   6.853  0.5946  1.2863  0.2649
   63MOL   O16939973   3.568   0.997   6.894 -0.2470 -0.2153 -0.1579
   63MOL   N17039974   3.464   1.174   6.802  0.4619 -0.4824 -0.0258
   63MOL   C17139975   3.324   1.127   6.822  0.1787 -0.3978  0.3720
   63MOL   C17239976   3.245   1.153   6.689 -1.0551  0.4963 -0.7479
   63MOL   C17339977   3.103   1.089   6.680 -0.0961  0.1719  0.0713
   63MOL   C17439978   3.030   1.150   6.556 -0.4380 -0.2580 -0.2357
   63MOL   N17539979   2.906   1.084   6.533 -0.3840 -0.3991  0.0658
   63MOL   H17639980   3.810   1.070   7.218 -0.0813  0.5003  0.8874
   63MOL   H17739981   3.758   1.191   7.311  1.0032  1.1770  1.3816
   63MOL   H17839982   3.649   1.192   7.108 -0.3491  1.3149  1.0790
   63MOL   H17939983   3.754   1.343   7.110 -1.5057 -0.0788  2.7436
   63MOL   H18039984   3.834   1.084   6.960 -1.3038 -0.3549 -1.5728
   63MOL   H18139985   3.883   1.251   6.923 -0.0315  0.4573  0.0981
   63MOL   H18239986   3.744   1.177   6.750 -2.5856  0.3237 -0.4902
   63MOL   H18339987   3.671   1.300   6.853 -2.7048 -0.5092  1.8740
   63MOL   H18439988   3.473   1.267   6.764 -1.9705  0.1572  0.8249
   63MOL   H18539989   3.286   1.173   6.913  0.1850 -0.1620  0.2559
   63MOL   H18639990   3.330   1.019   6.831 -0.1479 -0.4523 -0.0443
   63MOL   H18739991   3.236   1.260   6.672 -0.7271  0.6906  0.2417
   63MOL   H18839992   3.306   1.126   6.603 -0.6721  0.2556 -0.4057
   63MOL   H18939993   3.053   1.111   6.775  3.2363 -0.8141  2.1392
   63MOL   H19039994   3.102   0.981   6.669  1.5622  0.3880 -2.5736
   63MOL   H19139995   3.088   1.134   6.465 -0.9455  1.5966 -0.9069
   63MOL   H19239996   3.009   1.256   6.570 -1.1860 -0.4361  0.0240
   63MOL   H19339997   2.916   0.985   6.548 -0.7153 -0.5544 -0.6856
   63MOL   C19439998   2.794   1.147   6.483 -0.9398  0.2366  0.0105
   63MOL   O19539999   2.795   1.265   6.452 -0.1101 -0.3939 -0.2151
   63MOL   C19640000   2.670   1.057   6.484  0.7118  0.5727  0.4546
   63MOL   C19740001   2.559   1.096   6.583  0.0402 -0.3371  0.0693
   63MOL   C19840002   2.601   1.065   6.729  0.2764 -0.7618 -0.2165
   63MOL   C19940003   2.489   1.007   6.828  0.1384  0.1316  0.3181
   63MOL   C20040004   2.402   0.894   6.759  0.2060 -0.1847 -0.4527
   63MOL   O20140005   2.458   0.803   6.700  0.5514  0.1464  0.1952
   63MOL   N20240006   2.269   0.896   6.776  0.4370  0.0439 -0.6048
   63MOL   C20340007   2.188   0.775   6.766  0.1741 -0.0771 -0.6855
   63MOL   C20440008   2.141   0.757   6.620 -0.1684  0.5427  0.7902
   63MOL   C20540009   2.055   0.630   6.603 -0.0535  0.2816  0.3927
   63MOL   C20640010   1.997   0.617   6.461 -0.0400 -0.4193 -0.5397
   63MOL   N20740011   1.922   0.490   6.452 -0.1247  0.6254 -1.1659
   63MOL   H20840012   2.629   1.059   6.383  2.7492  3.2332 -0.3962
   63MOL   H20940013   2.698   0.954   6.504  2.2285  1.2462  2.0355
   63MOL   H21040014   2.534   1.201   6.572  1.1707 -0.1229 -0.5857
   63MOL   H21140015   2.478   1.033   6.546  1.7183 -2.1985 -0.5106
   63MOL   H21240016   2.648   1.147   6.784  0.3208 -0.7255 -0.3095
   63MOL   H21340017   2.684   0.994   6.723  0.4790 -0.7820  2.1976
   63MOL   H21440018   2.430   1.094   6.856  0.0485 -0.3266  1.5734
   63MOL   H21540019   2.543   0.971   6.915  1.6636  3.2334  0.7398
   63MOL   H21640020   2.240   0.977   6.829  2.0303  0.8909 -0.9781
   63MOL   H21740021   2.098   0.785   6.826  0.0599  1.0818 -1.0376
   63MOL   H21840022   2.237   0.683   6.799 -1.4656 -0.8129 -0.2594
   63MOL   H21940023   2.078   0.843   6.599 -0.7221  0.0404  0.3959
   63MOL   H22040024   2.221   0.771   6.547  0.1070  1.3400  1.2369
   63MOL   H22140025   1.971   0.646   6.670  0.8897  1.4236  1.3164
   63MOL   H22240026   2.111   0.539   6.627 -1.9321 -0.6572  1.3097
   63MOL   H22340027   2.079   0.601   6.391 -1.6058 -1.0597 -2.2971
   63MOL   H22440028   1.933   0.695   6.420  0.7427  1.1675  1.2132
   63MOL   H22540029   1.829   0.493   6.492 -0.1250  0.1649 -1.1270
   63MOL   C22640030   1.973   0.370   6.409  0.2179 -0.6254  0.5958
   63MOL   O22740031   2.092   0.360   6.379  0.0657  0.1653  0.9726
   63MOL   C22840032   1.874   0.255   6.392 -0.3818 -0.2972 -0.0209
   63MOL   C22940033   1.914   0.151   6.301  0.3470  0.5123  0.3964
   63MOL   C23040034   1.837   0.018   6.301 -0.3161 -0.7596 -0.3099
   63MOL   C23140035   1.686   0.020   6.280 -0.0623 -0.0840 -0.4580
   63MOL   C23240036   1.635   0.082   6.154 -0.5072  0.1045  0.4962
   63MOL   O23340037   1.606   0.198   6.150 -0.1882 -0.6537 -0.4466
   63MOL   N23440038   1.636   0.012   6.044 -0.3359  0.5844  0.1389
   63MOL   C23540039   1.587   0.052   5.908 -0.5038 -0.8046 -1.0655
   63MOL   C23640040   1.516   7.635   5.839 -0.1676 -0.0383  0.1824
   63MOL   C23740041   1.444   7.673   5.706 -0.9891 -0.0935  0.5100
   63MOL   C23840042   1.370   7.552   5.640  0.2117 -0.9299 -0.7348
   63MOL   N23940043   1.332   7.582   5.502 -0.1000  0.3267  0.7337
   63MOL   H24040044   1.862   0.213   6.491 -1.0617 -1.1264 -0.4387
   63MOL   H24140045   1.775   0.287   6.358 -0.4757 -0.4219  0.1369
   63MOL   H24240046   1.889   0.186   6.201 -1.4732 -0.1777  0.5871
   63MOL   H24340047   2.020   0.126   6.306 -0.0378 -1.9253 -1.9208
   63MOL   H24440048   1.857   7.664   6.393  0.0110  0.3389  0.2866
   63MOL   H24540049   1.873   7.650   6.225 -0.6932 -1.3884  0.0760
   63MOL   H24640050   1.634   0.072   6.360  2.3649 -1.1750  1.9457
   63MOL   H24740051   1.655   7.617   6.271  2.2405 -1.0084  1.6748
   63MOL   H24840052   1.683   7.624   6.053 -0.9421  0.3392  0.8854
   63MOL   H24940053   1.672   0.080   5.846 -0.1999  2.4184  0.7406
   63MOL   H25040054   1.530   0.144   5.918 -3.1329 -2.7354  3.0286
   63MOL   H25140055   1.586   7.552   5.827 -0.8624 -0.4757 -0.9160
   63MOL   H25240056   1.438   7.600   5.907 -0.9555  1.1364 -0.1196
   63MOL   H25340057   1.523   0.016   5.645  0.8798 -1.1561  2.1285
   63MOL   H25440058   1.377   0.056   5.726  0.8354  1.3253  0.7403
   63MOL   H25540059   1.282   7.526   5.698 -1.3544 -0.0972 -2.6915
   63MOL   H25640060   1.433   7.462   5.638  0.6628 -0.6010 -2.6959
   63MOL   H25740061   1.364   7.518   5.430 -2.9396 -1.7811  1.2734
   63MOL   C25840062   1.240   7.670   5.460 -0.6423 -0.1246  0.2369
   63MOL   O25940063   1.185   0.050   5.536  0.3698  0.6518 -0.1193
   63MOL   C26040064   1.206   7.666   5.306  0.3150  0.1600  0.1636
   63MOL   C26140065   1.116   0.072   5.249 -0.2251  0.1451 -0.2572
   63MOL   C26240066   1.190   0.214   5.234  0.0620 -0.1216 -0.6189
   63MOL   C26340067   1.146   0.319   5.123 -0.8923  0.1391  0.2479
   63MOL   C26440068   1.231   0.300   5.001 -0.5777  0.0347 -0.1963
   63MOL   O26540069   1.348   0.340   5.006  0.0626  0.2622 -0.0105
   63MOL   N26640070   1.188   0.223   4.904  0.3790 -0.2694 -0.7407
   63MOL   C26740071   1.273   0.171   4.799 -0.2779 -0.1559 -0.7355
   63MOL   C26840072   1.309   0.025   4.841 -0.2738 -0.0926 -0.3524
   63MOL   C26940073   1.192   7.631   4.859 -0.7618  0.3711  0.0849
   63MOL   C27040074   1.243   7.488   4.886 -0.0352  0.3299  0.0573
   63MOL   N27140075   1.135   7.392   4.867 -0.6374  0.0911 -0.1502
   63MOL   H27240076   1.308   7.676   5.267  0.1786  1.4054  0.1130
   63MOL   H27340077   1.170   7.566   5.281  1.0251 -0.7427  2.6534
   63MOL   H27440078   1.097   0.037   5.148 -4.1712  0.1828  0.3906
   63MOL   H27540079   1.018   0.075   5.297  0.3583 -1.4144  1.0811
   63MOL   H27640080   1.298   0.199   5.242  0.4612  2.1485 -1.2492
   63MOL   H27740081   1.168   0.268   5.326  1.1699 -0.8235  0.0690
   63MOL   H27840082   1.156   0.421   5.159 -1.1559  1.4485 -3.2309
   63MOL   H27940083   1.042   0.302   5.097 -0.5659 -0.3913 -0.7609
   63MOL   H28040084   1.095   0.186   4.918  0.8201 -0.8915  0.6495
   63MOL   H28140085   1.369   0.221   4.794  0.4964 -1.5630 -0.4086
   63MOL   H28240086   1.217   0.177   4.705  0.6802  1.4937 -1.2137
   63MOL   H28340087   1.375   7.693   4.761  2.2215 -1.2231  2.0808
   63MOL   H28440088   1.368   0.018   4.932  0.4152 -0.3068 -0.8163
   63MOL   H28540089   1.139   7.638   4.764 -0.2692  0.2050 -0.2041
   63MOL   H28640090   1.124   7.660   4.939 -1.1715  0.6683 -0.3655
   63MOL   H28740091   1.289   7.479   4.984 -0.1855 -0.0401  0.0942
   63MOL   H28840092   1.327   7.463   4.821  1.4356 -0.7753  2.3035
   63MOL   H28940093   1.105   7.342   4.949  2.4016 -0.2686  0.7927
   63MOL   C29040094   1.088   7.362   4.747 -0.2010 -0.4180 -0.2128
   63MOL   O29140095   1.136   7.407   4.645 -0.3913 -0.2887  0.0097
   63MOL   C29240096   0.963   7.273   4.749  0.1334  0.6127 -0.0672
   63MOL   C29340097   0.875   7.264   4.623 -0.0956 -0.2689  0.3019
   63MOL   C29440098   0.752   7.174   4.653  0.4049  0.4778 -0.3086
   63MOL   C29540099   0.657   7.161   4.531  0.0909  0.1168  0.2612
   63MOL   C29640100   0.561   7.283   4.519 -0.4852 -0.6403 -0.0923
   63MOL   O29740101   0.596   7.398   4.507 -0.2736 -0.4080 -0.3279
   63MOL   N29840102   0.429   7.252   4.518 -0.5772 -0.1056 -0.1219
   63MOL   C29940103   0.322   7.344   4.495  0.4284 -0.4108 -0.4795
   63MOL   C30040104   0.309   7.369   4.347 -0.5847  0.4724  0.1015
   63MOL   C30140105   0.190   7.459   4.313 -1.0195  0.8592  0.5212
   63MOL   C30240106   0.193   7.508   4.166 -0.1918 -0.0177 -0.0175
   63MOL   N30340107   0.097   7.614   4.136  0.1406  0.4297  0.9421
   63MOL   H30440108   0.987   7.172   4.780 -1.0187  0.5632  0.6747
   63MOL   H30540109   0.901   7.323   4.824 -0.4842 -2.3273  1.4422
   63MOL   H30640110   0.844   7.363   4.593  1.8623  0.5377  0.8509
   63MOL   H30740111   0.940   7.220   4.548  0.9093 -0.3268  1.1913
   63MOL   H30840112   0.698   7.208   4.741 -1.6300  0.5450 -1.5740
   63MOL   H30940113   0.793   7.075   4.673 -2.9261 -1.1026 -1.0546
   63MOL   H31040114   0.594   7.073   4.538  0.0990 -0.0525 -1.6602
   63MOL   H31140115   0.706   7.145   4.436  0.2205  0.8273  0.2057
   63MOL   H31240116   0.403   7.155   4.516  0.2760 -0.3154 -2.2590
   63MOL   H31340117   0.349   7.437   4.544 -0.0490 -1.0453  1.0191
   63MOL   H31440118   0.229   7.308   4.540  2.0174 -1.2148  2.2124
   63MOL   H31540119   0.402   7.411   4.307 -1.1623  2.5593  0.8608
   63MOL   H31640120   0.286   7.272   4.304 -1.0004  1.8747 -2.9896
   63MOL   H31740121   0.194   7.543   4.383 -0.7707 -0.4534  2.1113
   63MOL   H31840122   0.094   7.409   4.328 -0.3504 -0.3237  0.8327
   63MOL   H31940123   0.177   7.428   4.094 -0.3417 -1.4797  1.6075
   63MOL   H32040124   0.295   7.540   4.147 -0.7424  0.6473 -1.8836
   63MOL   H32140125   0.135   0.006   4.143  1.2348  0.0222  0.5334
   63MOL   C32240126   7.674   7.592   4.088  0.2102  0.3006  0.0243
   63MOL   O32340127   7.630   7.478   4.077  0.2559 -0.1187  0.3745
   63MOL   C32440128   7.585   0.018   4.069 -0.1239 -0.1146  0.1033
   63MOL   C32540129   7.615   0.106   3.942 -0.3785  0.5190 -0.4214
   63MOL   C32640130   7.659   0.250   3.952 -0.1496 -0.7721  0.0124
   63MOL   C32740131   7.549   0.354   3.934 -0.0786  0.2220 -0.0152
   63MOL   C32840132   7.589   0.496   3.976 -0.2436 -0.2213  0.0126
   63MOL   O32940133   0.003   0.535   3.952 -0.2370  0.3376  0.1838
   63MOL   N33040134   7.500   0.574   4.038 -0.4751  0.0985  0.3119
   63MOL   C33140135   7.522   0.710   4.074  0.2336 -0.4466  0.2857
   63MOL   C33240136   7.407   0.764   4.154 -0.3099  0.5687  0.0688
   63MOL   C33340137   7.437   0.904   4.202  0.4532  0.0669  0.5614
   63MOL   C33440138   7.308   0.998   4.224  0.1808 -0.3574 -0.2082
   63MOL   N33540139   7.203   0.916   4.287  0.2801 -0.3896 -0.0400
   63MOL   H33640140   7.482   7.683   4.061  0.1590 -0.4659 -2.4467
   63MOL   H33740141   7.589   0.073   4.163  1.1599  2.4645 -1.3986
   63MOL   H33840142   7.680   0.055   3.871 -1.1016 -0.2664 -0.5175
   63MOL   H33940143   7.524   0.107   3.882  0.4918 -1.9730 -1.8481
   63MOL   H34040144   0.022   0.262   3.864  1.4181 -0.5055  1.1639
   63MOL   H34140145   0.020   0.261   4.041  0.6040 -0.9269 -0.4924
   63MOL   H34240146   7.454   0.331   3.982 -0.0234 -0.3857 -0.2035
   63MOL   H34340147   7.518   0.360   3.830 -0.4393  0.4209  0.1018
   63MOL   H34440148   7.408   0.538   4.058 -0.7648 -1.2408 -3.1563
   63MOL   H34540149   7.526   0.778   3.988 -2.3550  0.1619  0.5955
   63MOL   H34640150   7.605   0.721   4.143  0.3520 -2.4761  0.4886
   63MOL   H34740151   7.314   0.757   4.098  0.5221  0.6371 -1.3590
   63MOL   H34840152   7.391   0.698   4.239 -2.7209  1.9406  0.7259
   63MOL   H34940153   7.503   0.960   4.135 -1.2194  2.0192  0.4680
   63MOL   H35040154   7.494   0.898   4.295 -0.8606  0.0910  1.3715
   63MOL   H35140155   7.282   1.042   4.128 -0.4131  0.7726  0.4565
   63MOL   H35240156   7.332   1.082   4.289 -0.1618  1.6473 -2.6061
   63MOL   H35340157   7.120   0.899   4.233  0.4805 -1.3511 -0.0522
   63MOL   C35440158   7.206   0.871   4.416  0.4873  0.0216 -0.1236
   63MOL   O35540159   7.292   0.904   4.492 -0.3386 -0.2751  0.1190
   63MOL   C35640160   7.091   0.789   4.477 -0.2789  0.7081  0.2031
   63MOL   C35740161   7.107   0.634   4.457 -0.5685 -0.7626 -0.8004
   63MOL   C35840162   7.062   0.584   4.318  0.1540  0.0126  0.0988
   63MOL   C35940163   7.088   0.429   4.310 -0.2666 -0.4688 -0.0037
   63MOL   C36040164   7.238   0.399   4.283  0.1450  0.5655 -0.3121
   63MOL   O36140165   7.292   0.437   4.177  0.2409 -0.2568  0.0765
   63MOL   N36240166   7.312   0.337   4.379 -0.0532  0.2476 -0.2247
   63MOL   C36340167   7.456   0.316   4.386 -0.4559  0.3163 -0.3634
   63MOL   C36440168   7.534   0.455   4.403  0.2522 -0.0453 -0.5443
   63MOL   C36540169   7.506   0.521   4.534 -0.3821 -0.2565 -0.1142
   63MOL   C36640170   7.545   0.668   4.543 -0.0707  0.1712 -0.6970
   63MOL   N36740171   7.486   0.755   4.646 -0.1012  0.2011 -0.1512
   63MOL   H36840172   7.090   0.806   4.585 -1.0697 -0.7734  0.4539
   63MOL   H36940173   6.991   0.816   4.442  0.3939  1.6269 -1.0133
   63MOL   H37040174   7.210   0.613   4.487 -0.0477  0.4574 -1.7078
   63MOL   H37140175   7.039   0.582   4.525  1.0977 -1.5349  0.3017
   63MOL   H37240176   7.120   0.634   4.240  2.1348  0.6486  1.8912
   63MOL   H37340177   6.962   0.625   4.306 -0.5131 -2.3987 -3.1272
   63MOL   H37440178   7.034   0.394   4.221  1.0282  0.6539 -1.2643
   63MOL   H37540179   7.052   0.385   4.402 -0.5993  0.3031  0.2445
   63MOL   H37640180   7.265   0.319   4.466  0.6858 -0.2630  0.0729
   63MOL   H37740181   7.492   0.261   4.300  0.6150  0.8493 -0.2636
   63MOL   H37840182   7.473   0.254   4.474 -1.1199 -0.5377 -0.8386
   63MOL   H37940183   7.639   0.426   4.400  0.6027  1.1918 -0.6186
   63MOL   H38040184   7.512   0.531   4.327 -1.6421 -0.4485 -0.4393
   63MOL   H38140185   7.557   0.462   4.609  2.0509  0.7564 -0.9101
   63MOL   H38240186   7.397   0.515   4.545 -0.3608 -0.8242 -0.1983
   63MOL   H38340187   7.529   0.720   4.448 -2.4427  3.1649  1.2291
   63MOL   H38440188   7.653   0.663   4.556  0.0208 -1.1429 -1.7807
   63MOL   H38540189   7.420   0.823   4.612  0.5213 -0.6811 -3.2631
   63MOL   C38640190   7.489   0.728   4.780  1.0571 -0.0732 -0.1447
   63MOL   O38740191   7.569   0.648   4.833  0.9767  0.3079 -0.0708
   63MOL   C38840192   7.385   0.797   4.867 -0.3972  0.7828  0.0661
   63MOL   C38940193   7.358   0.735   5.012  0.3884 -0.2881  0.0399
   63MOL   C39040194   7.353   0.833   5.134 -0.4258  0.1972 -0.1375
   63MOL   C39140195   7.484   0.887   5.176  0.5396  0.1321 -0.2106
   63MOL   C39240196   7.463   0.953   5.313  0.2229 -0.3262  0.1847
   63MOL   O39340197   7.351   0.985   5.346 -0.5990  0.2429 -0.0213
   63MOL   N39440198   7.570   0.973   5.385  0.2116  0.5589  0.4884
   63MOL   C39540199   7.560   1.010   5.520 -0.6340  0.4541  0.2455
   63MOL   C39640200   7.687   0.980   5.599  0.7036  0.6774 -0.4890
   63MOL   C39740201   7.667   1.019   5.744 -0.2813  0.5388  0.2866
   63MOL   C39840202   0.057   0.946   5.839 -0.4152 -0.2820 -0.7533
   63MOL   N39940203   0.194   0.983   5.812  0.1081  0.0977 -0.2012
   63MOL   H40040204   7.423   0.897   4.888  2.3633 -0.0491 -0.7737
   63MOL   H40140205   7.291   0.813   4.813 -0.4660 -2.1636 -0.8056
   63MOL   H40240206   7.263   0.683   5.022 -0.8946  2.3613  2.2537
   63MOL   H40340207   7.424   0.649   5.021 -0.4873 -1.0121 -0.4371
   63MOL   H40440208   7.308   0.772   5.212  0.2734 -1.3045 -0.9033
   63MOL   H40540209   7.275   0.902   5.100 -0.8155  0.2307  0.8198
   63MOL   H40640210   7.515   0.962   5.103  0.1434  0.5010  0.0002
   63MOL   H40740211   7.565   0.815   5.190 -0.5219 -0.9814  0.2421
   63MOL   H40840212   7.657   0.948   5.341 -0.7543  0.3578 -1.3273
   63MOL   H40940213   7.485   0.948   5.569  0.5348 -0.1936  1.2559
   63MOL   H41040214   7.527   1.113   5.537 -0.2889  0.7817 -1.0302
   63MOL   H41140215   0.007   0.874   5.585 -0.1645  0.5033 -0.5034
   63MOL   H41240216   0.061   1.042   5.550  1.4138 -0.3313 -0.6907
   63MOL   H41340217   7.568   0.986   5.777  0.4029 -2.0458 -0.1221
   63MOL   H41440218   7.668   1.128   5.751 -0.3534  0.3876  3.2479
   63MOL   H41540219   0.042   0.839   5.839 -0.9670 -0.2239  1.0970
   63MOL   H41640220   0.034   0.973   5.942 -2.6801 -4.0870 -0.2095
   63MOL   H41740221   0.205   1.076   5.774  0.2304 -0.0539 -0.5309
   63MOL   C41840222   0.303   0.925   5.872 -0.0689 -0.3865 -0.2061
   63MOL   O41940223   0.301   0.821   5.934 -0.1241 -0.2221  0.1445
   63MOL   C42040224   0.429   1.012   5.862  0.4935 -1.2586  0.9730
   63MOL   C42140225   0.552   0.923   5.854  0.8442  0.4814 -0.4295
   63MOL   C42240226   0.573   0.846   5.722  0.2256 -0.5231  0.1831
   63MOL   C42340227   0.714   0.779   5.721 -0.4687 -0.2844 -1.4922
   63MOL   C42440228   0.762   0.724   5.586 -0.1020  0.0154 -0.6683
   63MOL   O42540229   0.693   0.745   5.489 -0.3842  0.4515 -0.1640
   63MOL   N42640230   0.881   0.656   5.591  0.7163  0.0363  0.1995
   63MOL   C42740231   0.935   0.589   5.471 -0.4997 -0.2618 -0.1704
   63MOL   C42840232   0.887   0.442   5.456 -0.2501 -0.0786 -0.2084
   63MOL   C42940233   0.889   0.358   5.583 -0.5945 -0.1854  0.4316
   63MOL   C43040234   0.869   0.204   5.555 -0.1730  0.4250 -1.7114
   63MOL   N43140235   0.901   0.140   5.682 -0.2772  0.3684  0.2463
   63MOL   H43240236   0.430   1.068   5.769 -0.7410  0.6491  2.0600
   63MOL   H43340237   0.435   1.081   5.946  0.4500 -0.0925  0.0314
   63MOL   H43440238   0.631   0.996   5.872  2.0354 -0.5588 -1.3405
   63MOL   H43540239   0.554   0.856   5.940 -4.4901  0.3175 -0.2528
   63MOL   H43640240   0.563   0.914   5.638 -0.0486 -1.0849 -0.2455
   63MOL   H43740241   0.491   0.775   5.709  0.4146 -0.8435  0.7080
   63MOL   H43840242   0.695   0.687   5.775 -0.1213  1.6023  1.9683
   63MOL   H43940243   0.792   0.848   5.754 -1.0113 -1.5480  2.6790
   63MOL   H44040244   0.944   0.649   5.669 -0.2714 -1.0697  0.9147
   63MOL   H44140245   1.043   0.585   5.482 -0.3054  2.1750 -0.7014
   63MOL   H44240246   0.933   0.644   5.377 -0.8590  1.0295  0.5743
   63MOL   H44340247   0.797   0.446   5.396 -2.6673  1.5720  3.3109
   63MOL   H44440248   0.944   0.389   5.380 -0.6727 -1.9849  0.7940
   63MOL   H44540249   0.816   0.400   5.652 -0.0406  0.1726  0.8103
   63MOL   H44640250   0.983   0.364   5.639 -0.9346  1.2376  0.8702
   63MOL   H44740251   0.942   0.167   5.484  1.2469  0.2824 -0.1924
   63MOL   H44840252   0.773   0.172   5.515  0.7229 -2.8082 -1.3912
   63MOL   H44940253   0.997   0.119   5.701 -0.1229  1.6679  0.9383
   63MOL   C45040254   0.803   0.098   5.767  0.3785 -0.0088 -0.4995
   63MOL   O45140255   0.680   0.113   5.744 -0.2869  0.5889  0.0209
   63MOL   C45240256   0.844   0.004   5.879  0.2508  0.2935 -0.1206
   63MOL   C45340257   0.859   7.560   5.833 -0.2045 -0.1365 -0.2704
   63MOL   C45440258   0.991   7.539   5.751  0.3989 -0.1987  0.0039
   63MOL   C45540259   1.016   7.387   5.727  0.1137 -0.4529 -0.0810
   63MOL   C45640260   1.071   7.302   5.844  0.2017 -0.4621  0.3369
   63MOL   O45740261   1.169   7.343   5.907 -0.0571 -0.1547  0.1997
   63MOL   N45840262   0.999   7.194   5.890  0.6722 -0.1449 -0.7609
   63MOL   C45940263   1.016   7.134   6.028 -0.8049  0.2968  0.6568
   63MOL   C46040264   0.931   7.203   6.133  0.5040 -0.6916 -0.3165
   63MOL   C46140265   0.934   7.143   6.275  0.1564  0.4483  0.5973
   63MOL   C46240266   0.832   7.198   6.373  0.0410  0.0285  0.1884
   63MOL   N46340267   0.881   7.221   6.503  0.0417 -0.3522  0.3652
   63MOL   H46440268   0.936   0.043   5.924  0.1373 -2.1517  2.3777
   63MOL   H46540269   0.768   0.009   5.957  2.7085  0.6818  2.3658
   63MOL   H46640270   0.877   7.491   5.915 -0.3788 -0.2629 -0.3405
   63MOL   H46740271   0.766   7.533   5.785 -0.2775 -2.1720  0.9611
   63MOL   H46840272   1.078   7.587   5.797  0.2216 -1.2001  1.4027
   63MOL   H46940273   0.975   7.586   5.654 -0.9889 -0.9067 -0.1127
   63MOL   H47040274   1.087   7.387   5.644 -1.0137 -0.8317 -1.0554
   63MOL   H47140275   0.926   7.345   5.681  1.5197 -2.9890 -0.6014
   63MOL   H47240276   0.914   7.170   5.841 -0.3957 -0.3587  1.1187
   63MOL   H47340277   1.118   7.129   6.066 -1.0942 -1.4310  1.2416
   63MOL   H47440278   0.989   7.028   6.029  1.0576 -0.3218 -3.4641
   63MOL   H47540279   0.964   7.305   6.153 -2.6032  0.5317 -1.0691
   63MOL   H47640280   0.831   7.208   6.090  0.6329 -1.4234 -0.7062
   63MOL   H47740281   1.031   7.170   6.316  0.2311  0.8091  0.1836
   63MOL   H47840282   0.933   7.035   6.291 -0.3763  0.4891  0.8760
   63MOL   H47940283   0.738   7.144   6.378  0.4769 -0.9795 -1.9834
   63MOL   H48040284   0.803   7.301   6.353 -0.3741  0.3962  2.4672
   63MOL   H48140285   0.899   7.316   6.532 -0.9999 -0.1754  0.4604
   63MOL   C48240286   0.882   7.125   6.595 -0.1169 -0.1529  0.1460
   63MOL   O48340287   0.847   7.009   6.570  0.1587  0.3123 -0.3957
   63MOL   C48440288   0.900   7.161   6.744 -0.0515  0.1819 -0.4653
   63MOL   C48540289   0.993   7.067   6.826  0.1045  0.2342 -0.0915
   63MOL   C48640290   1.014   7.083   6.979 -0.2724  0.0707  0.0748
   63MOL   C48740291   0.886   7.050   7.059 -0.2102  1.1338 -0.0451
   63MOL   C48840292   0.835   6.905   7.036  0.7340  0.2547  0.0610
   63MOL   O48940293   0.911   6.818   7.051 -0.1229 -0.4467  0.5223
   63MOL   N49040294   0.714   6.887   6.990  0.6108  0.3968 -0.1171
   63MOL   C49140295   0.663   6.765   6.938 -0.3623  0.1589 -0.2738
   63MOL   C49240296   0.520   6.774   6.890  0.5427 -0.1741  0.1333
   63MOL   C49340297   0.501   6.794   6.743  0.0152  0.1720  0.4900
   63MOL   C49440298   0.563   6.913   6.682  0.2556  0.4933  0.3305
   63MOL   N49540299   0.608   6.907   6.549  0.3642  0.8532  0.1555
   63MOL   H49640300   0.944   7.259   6.758  1.6922 -0.7297  0.6310
   63MOL   H49740301   0.796   7.158   6.777  0.3913  2.6105  1.2611
   63MOL   H49840302   0.977   6.962   6.800  1.9159  0.3421 -1.8403
   63MOL   H49940303   1.092   7.077   6.779  0.8732 -1.8672  1.0029
   63MOL   H50040304   1.020   7.188   7.005  1.9679  0.8418 -3.2273
   63MOL   H50140305   1.107   7.030   6.997 -0.1340 -0.0460 -0.9207
   63MOL   H50240306   0.804   7.118   7.034 -0.7010  0.4259 -0.3729
   63MOL   H50340307   0.903   7.083   7.161  0.0639 -1.4906  0.8066
   63MOL   H50440308   0.648   6.964   6.986  1.6604  1.3010 -0.0455
   63MOL   H50540309   0.671   6.704   7.028  2.6510  1.0940  0.1395
   63MOL   H50640310   0.722   6.713   6.862 -0.2915 -0.8454  0.4570
   63MOL   H50740311   0.474   6.678   6.913  0.9512 -0.2696  0.5505
   63MOL   H50840312   0.461   6.839   6.954 -0.3442 -1.1757  0.3505
   63MOL   H50940313   0.396   6.780   6.718  0.4571 -0.4279 -1.1251
   63MOL   H51040314   0.558   6.708   6.706  2.7010  2.0572  0.0391
   63MOL   H51140315   0.651   6.930   6.744  2.4064  0.3575 -2.6028
   63MOL   H51240316   0.499   7.000   6.701 -1.4532 -0.4782 -0.8574
   63MOL   H51340317   0.708   6.906   6.533  0.2802 -0.7824 -0.3377
   63MOL   C51440318   0.540   6.865   6.446  0.2208  0.1249  0.6488
   63MOL   O51540319   0.419   6.831   6.454 -0.0710 -0.8367  0.6541
   63MOL   C51640320   0.615   6.842   6.312  0.3991  0.2631 -0.7514
   63MOL   C51740321   0.537   6.911   6.197  0.3568 -1.4931  0.4039
   63MOL   C51840322   0.616   6.890   6.070 -0.1684 -0.3547  0.0444
   63MOL   C51940323   0.547   6.964   5.951 -0.8855  0.4263  0.0725
   63MOL   C52040324   0.595   7.107   5.934  0.1194 -0.1775 -0.0107
   63MOL   O52140325   0.711   7.123   5.897  0.0803 -0.0557  0.1959
   63MOL   N52240326   0.511   7.206   5.970 -0.1487 -0.2575 -0.2512
   63MOL   C52340327   0.538   7.347   5.973  0.4374 -0.0154  0.2712
   63MOL   C52440328   0.423   7.428   5.899 -0.3983 -0.0896  0.2931
   63MOL   C52540329   0.473   7.578   5.874 -0.0769  0.5105 -0.1253
   63MOL   C52640330   0.358   7.672   5.843 -0.0852  0.1452  0.0678
   63MOL   N52740331   0.418   0.103   5.836 -0.1096  0.2901 -0.6512
   63MOL   H52840332   0.716   6.883   6.314 -0.2852  1.9828  0.2075
   63MOL   H52940333   0.617   6.738   6.282  4.2443 -0.7785  2.6805
   63MOL   H53040334   0.436   6.873   6.178 -0.3695  0.0803  0.9640
   63MOL   H53140335   0.515   7.017   6.214  1.7624 -0.7840 -2.0037
   63MOL   H53240336   0.645   6.790   6.039  0.3996  1.0224 -4.2866
   63MOL   H53340337   0.714   6.936   6.083  0.0911 -0.7725 -0.4052
   63MOL   H53440338   0.441   6.939   5.945 -0.4086 -2.1808  1.8139
   63MOL   H53540339   0.589   6.918   5.861 -1.1355  1.6399 -0.6676
   63MOL   H53640340   0.416   7.177   5.990 -0.6915 -0.6505 -3.1714
   63MOL   H53740341   0.638   7.372   5.938  0.3764  1.3768  1.0275
   63MOL   H53840342   0.550   7.383   6.075 -1.1337  1.3566  0.0026
   63MOL   H53940343   0.411   7.382   5.801 -0.0849  3.2384 -1.3882
   63MOL   H54040344   0.327   7.412   5.947  0.0777 -1.2659  0.8683
   63MOL   H54140345   0.532   7.582   5.783  0.6584  1.3854  0.3868
   63MOL   H54240346   0.529   7.621   5.957 -0.2844 -0.7534  0.6859
   63MOL   H54340347   0.284   7.660   5.922  0.4415 -2.1357  0.2569
   63MOL   H54440348   0.314   7.642   5.748  0.3357  0.5446 -0.2569
   63MOL   H54540349   0.518   0.119   5.840 -0.2120  0.8550 -0.3531
   63MOL   C54640350   0.347   0.218   5.835  0.5304  0.1330 -0.0626
   63MOL   O54740351   0.221   0.210   5.840 -0.5277 -0.3079  0.6736
   63MOL   C54840352   0.416   0.355   5.831  0.1156 -0.2597 -0.2246
   63MOL   C54940353   0.340   0.454   5.742 -0.0868  0.0063  0.4145
   63MOL   C55040354   0.341   0.431   5.588 -0.1466  0.2373 -0.2478
   63MOL   C55140355   0.480   0.446   5.520 -0.8851 -0.0193  0.6512
   63MOL   C55240356   0.463   0.489   5.373  1.0406  0.0335  0.7181
   63MOL   O55340357   0.354   0.500   5.320 -0.8238 -0.0655 -0.1501
   63MOL   N55440358   0.571   0.530   5.310 -0.5260 -0.4516 -0.2167
   63MOL   C55540359   0.569   0.590   5.181 -0.1983 -0.2425 -0.1255
   63MOL   C55640360   0.553   0.486   5.075  0.6839  0.1607 -0.2855
   63MOL   C55740361   0.667   0.393   5.057 -0.1593 -0.6108  0.0356
   63MOL   C55840362   0.612   0.259   5.015 -0.6099  0.4995 -0.3064
   63MOL   N55940363   0.718   0.161   5.016  0.1180  0.0931  0.1448
   63MOL   H56040364   0.423   0.402   5.929 -0.1782 -0.8680  0.0924
   63MOL   H56140365   0.515   0.349   5.787 -0.1554  0.8932 -1.0141
   63MOL   H56240366   0.237   0.453   5.777  0.8948  1.0913  3.5566
   63MOL   H56340367   0.377   0.555   5.758 -1.1046  0.3409  0.7173
   63MOL   H56440368   0.268   0.498   5.543  0.1234  2.6776  2.7535
   63MOL   H56540369   0.295   0.332   5.574 -1.5599  0.8130  0.1819
   63MOL   H56640370   0.532   0.350   5.518 -0.8582 -0.0059  0.7109
   63MOL   H56740371   0.543   0.517   5.574  2.3117 -1.3226 -1.1969
   63MOL   H56840372   0.660   0.525   5.358 -0.9515 -1.7462  0.4638
   63MOL   H56940373   0.671   0.629   5.174 -0.9760  1.9060  0.0659
   63MOL   H57040374   0.503   0.677   5.174 -0.8398 -0.7362 -0.2140
   63MOL   H57140375   0.554   0.546   4.983 -0.8060 -0.9092 -1.0116
   63MOL   H57240376   0.455   0.439   5.081  0.9212 -0.2170  0.5914
   63MOL   H57340377   0.726   0.387   5.148  2.1228 -1.1870 -1.4282
   63MOL   H57440378   0.733   0.433   4.980 -1.2747  1.1953 -0.0068
   63MOL   H57540379   0.551   0.257   4.924  0.3525  0.9926 -0.9743
   63MOL   H57640380   0.535   0.242   5.090  0.8813  0.0944  1.1511
   63MOL   H57740381   0.802   0.175   4.961 -0.0995 -4.6047 -1.6087
   63MOL   C57840382   0.716   0.049   5.081  0.1823 -0.2697 -0.4741
   63MOL   O57940383   0.629   0.033   5.169 -0.5674  0.0574 -0.1926
   63MOL   C58040384   0.811   7.637   5.048 -0.0304 -0.0571 -0.4376
   63MOL   C58140385   0.830   7.541   5.169 -0.0005  1.1533 -0.4528
   63MOL   C58240386   0.930   7.425   5.127  0.6681 -1.0902  0.6324
   63MOL   C58340387   0.935   7.307   5.225  0.3274  0.0398  0.5301
   63MOL   C58440388   0.981   7.183   5.158 -0.0755 -0.0992 -0.3142
   63MOL   O58540389   1.065   7.186   5.068 -0.3740  0.0067 -0.6604
   63MOL   N58640390   0.939   7.074   5.217  0.2532 -0.2676 -0.6390
   63MOL   C58740391   0.973   6.939   5.179 -0.1128  0.0042  0.0922
   63MOL   C58840392   0.850   6.854   5.193  0.3454  0.4003 -0.3181
   63MOL   C58940393   0.870   6.700   5.209  0.9333 -0.7560  0.0172
   63MOL   C59040394   0.744   6.615   5.215 -0.1019  0.0315 -0.1318
   63MOL   N59140395   0.755   6.476   5.260  0.0862 -0.0934  0.6773
   63MOL   H59240396   0.755   7.576   4.977 -0.5596  0.2217 -0.2615
   63MOL   H59340397   0.907   7.677   5.015  1.8455 -2.0347  2.3603
   63MOL   H59440398   0.874   7.592   5.255  2.0001 -0.3026 -0.5552
   63MOL   H59540399   0.740   7.487   5.197  0.0743  0.2021 -2.0259
   63MOL   H59640400   1.033   7.459   5.117 -0.0977  1.2501  0.5054
   63MOL   H59740401   0.904   7.386   5.029  2.1167  0.2355 -0.2951
   63MOL   H59840402   0.834   7.292   5.263  0.3550 -0.3416  0.4532
   63MOL   H59940403   1.008   7.325   5.304 -0.6387  0.2225  1.3928
   63MOL   H60040404   0.869   7.096   5.285  0.9730 -0.3648  0.1437
   63MOL   H60140405   1.054   6.891   5.235 -1.0815  0.1374  1.6468
   63MOL   H60240406   0.994   6.931   5.073 -0.6355  1.6100 -0.1383
   63MOL   H60340407   0.799   6.891   5.282  0.0856 -2.1516  0.6543
   63MOL   H60440408   0.778   6.874   5.113  0.7446  0.9110 -0.5486
   63MOL   H60540409   0.940   6.684   5.291 -0.2153  2.6056  1.7642
   63MOL   H60640410   0.928   6.675   5.120  1.4989  1.8810 -0.4214
   63MOL   H60740411   0.686   6.626   5.123 -1.0764  4.0913  0.8737
   63MOL   H60840412   0.674   6.654   5.289  0.8135 -0.3815  0.9657
   63MOL   H60940413   0.754   6.448   5.357  1.2957  1.0871  1.0360
   63MOL   C61040414   0.778   6.380   5.173 -0.2542 -0.0751  0.6634
   63MOL   O61140415   0.797   6.399   5.056 -0.0724 -0.2905  0.1093
   63MOL   C61240416   0.771   6.240   5.221 -0.4644  0.8960 -0.4866
   63MOL   C61340417   0.887   6.180   5.302 -0.0810  0.3528 -0.2131
   63MOL   C61440418   0.964   6.065   5.232  0.5695 -0.2753 -0.0603
   63MOL   C61540419   1.077   6.019   5.325  0.3451 -0.8885 -0.7769
   63MOL   C61640420   1.149   5.887   5.287  0.5663 -0.3115  0.0322
   63MOL   O61740421   1.108   5.816   5.188  0.2111 -0.4631 -0.6561
   63MOL   N61840422   1.262   5.860   5.353 -0.3055 -0.7383  0.0044
   63MOL   C61940423   1.341   5.742   5.337 -0.1449 -0.6352  0.2992
   63MOL   C62040424   1.407   5.739   5.189 -0.5844  0.1821  0.0750
   63MOL   C62140425   1.524   5.642   5.174 -0.0543 -0.2501 -0.5083
   63MOL   C62240426   1.481   5.500   5.133 -0.3431 -0.2047  0.3000
   63MOL   N62340427   1.402   5.438   5.237  0.0761 -0.7642  0.2022
   63MOL   H62440428   0.672   6.227   5.265 -0.5305  0.7185 -0.6847
   63MOL   H62540429   0.761   6.171   5.137  0.1323  0.2801 -0.0534
   63MOL   H62640430   0.951   6.266   5.324 -0.6197  1.0878 -1.4780
   63MOL   H62740431   0.851   6.140   5.397  3.7859 -1.0420  0.7525
   63MOL   H62840432   0.997   6.118   5.142  1.4071 -0.4742  0.1321
   63MOL   H62940433   0.903   5.982   5.197  1.3580 -1.6909  1.8202
   63MOL   H63040434   1.042   6.007   5.427  0.0513  1.9322 -0.5202
   63MOL   H63140435   1.146   6.102   5.339 -0.0711 -0.8147  0.9575
   63MOL   H63240436   1.295   5.925   5.423  0.0015  0.6351 -1.3991
   63MOL   H63340437   1.286   5.660   5.381  1.7855 -0.5420  3.0295
   63MOL   H63440438   1.426   5.748   5.405 -1.9935  0.1850  2.5880
   63MOL   H63540439   1.324   5.712   5.123  0.7214  0.8746 -1.8710
   63MOL   H63640440   1.450   5.835   5.164  0.2980 -0.7589 -2.1407
   63MOL   H63740441   1.597   5.640   5.255 -0.1283  0.8578 -0.4015
   63MOL   H63840442   1.575   5.684   5.087 -1.9403 -0.2987 -1.6848
   63MOL   H63940443   1.568   5.437   5.114 -0.3345 -1.3882  3.9366
   63MOL   H64040444   1.412   5.502   5.047 -0.7333  1.4520  0.6177
   63MOL   H64140445   1.312   5.481   5.253  1.5654  2.8531 -0.7555
   63MOL   H64240446   1.449   5.451   5.326 -0.2272  3.3847 -0.1517
   64MOL     C140447   1.572   7.186   2.986  0.7829  0.2257  0.1094
   64MOL     O240448   1.489   7.187   2.892  0.1046 -0.1405  0.2336
   64MOL     C340449   1.681   7.083   3.002 -0.6700 -0.4971  0.4283
   64MOL     C440450   1.716   7.017   2.869 -0.1995  0.5448 -0.2438
   64MOL     C540451   1.860   6.948   2.881  0.3141 -0.4041 -0.4234
   64MOL     C640452   1.881   6.832   2.779 -0.7052  0.6440 -0.4732
   64MOL     C740453   1.936   6.879   2.650 -0.2289  0.0678  0.7470
   64MOL     O840454   1.931   6.993   2.609  1.2572  0.4218  0.0015
   64MOL     N940455   2.012   6.789   2.584 -0.2821  0.1018  0.2784
   64MOL    C1040456   2.076   6.812   2.458 -0.3730 -0.4356 -0.0935
   64MOL    C1140457   2.126   6.690   2.380 -0.2951 -0.1647  0.7579
   64MOL    C1240458   2.013   6.603   2.319  0.1961  0.1622  0.8627
   64MOL    C1340459   2.069   6.471   2.269 -0.3404  0.8232 -0.0054
   64MOL    N1440460   1.971   6.380   2.212 -0.0659  0.4379 -0.0212
   64MOL    H1540461   1.758   7.148   3.044 -0.0519 -1.5678  0.9870
   64MOL    H1640462   1.672   7.004   3.077  1.3104 -0.5100  0.6889
   64MOL    H1740463   1.643   6.940   2.843  1.2496 -0.9418 -0.0166
   64MOL    H1840464   1.726   7.085   2.785  0.3513  0.1662 -0.4887
   64MOL    H1940465   1.876   6.913   2.983 -0.2719 -0.0869 -0.2190
   64MOL    H2040466   1.939   7.022   2.866 -0.3981  0.3454 -0.5701
   64MOL    H2140467   1.796   6.767   2.757  0.6974 -1.5539  0.4383
   64MOL    H2240468   1.957   6.768   2.823 -0.2537  0.0736 -2.0717
   64MOL    H2340469   2.025   6.699   2.627  0.3764 -1.2285 -2.5546
   64MOL    H2440470   2.149   6.891   2.478 -0.9863  0.2042 -0.3397
   64MOL    H2540471   1.996   6.851   2.396  0.0741  1.5654  0.5208
   64MOL    H2640472   2.189   6.725   2.299 -0.2409 -1.5036  0.2132
   64MOL    H2740473   2.194   6.638   2.447  1.0674  0.2418 -0.2965
   64MOL    H2840474   1.953   6.656   2.244  1.4002 -0.0028 -0.2294
   64MOL    H2940475   1.942   6.580   2.399 -0.3972 -0.4096  0.1790
   64MOL    H3040476   2.117   6.415   2.349  0.3392 -1.1932 -1.7766
   64MOL    H3140477   2.142   6.500   2.194 -1.8041 -0.8746 -2.1655
   64MOL    H3240478   1.878   6.419   2.208 -0.0056  0.7982  1.6980
   64MOL    H3340479   1.561   7.259   3.066 -1.2563 -1.1614  1.1427
   64MOL    C3440480   2.000   6.256   2.154  0.0260 -0.2636 -0.4718
   64MOL    O3540481   2.114   6.199   2.148 -0.5382  0.1523 -0.2088
   64MOL    C3640482   1.889   6.186   2.077  0.6700 -0.5163 -0.0466
   64MOL    C3740483   1.828   6.057   2.143  0.3325 -0.1251 -0.2842
   64MOL    C3840484   1.678   6.055   2.178  0.4100 -0.3136  0.2569
   64MOL    C3940485   1.627   6.157   2.279 -0.0053 -0.1888 -0.0697
   64MOL    C4040486   1.704   6.142   2.408  0.2712  0.6049  0.1491
   64MOL    O4140487   1.692   6.050   2.488 -0.1701  0.1888 -0.2636
   64MOL    N4240488   1.790   6.241   2.435 -0.7662 -0.2274 -0.5112
   64MOL    C4340489   1.883   6.242   2.547  0.4647 -0.3953  0.2943
   64MOL    C4440490   1.986   6.134   2.535 -0.4527 -0.8322 -0.1555
   64MOL    C4540491   2.083   6.125   2.653  0.0248  0.4865 -0.7328
   64MOL    C4640492   2.163   6.002   2.631 -0.3883 -0.4244  0.1715
   64MOL    N4740493   2.262   5.990   2.744 -0.6560  0.0391  0.7550
   64MOL    H4840494   1.801   6.250   2.067  0.0660 -1.5998 -1.8671
   64MOL    H4940495   1.926   6.165   1.977  0.2431 -0.0713 -0.3031
   64MOL    H5040496   1.847   5.967   2.085 -0.2383  0.0481 -0.7415
   64MOL    H5140497   1.888   6.042   2.233 -1.1936 -3.3136  0.2570
   64MOL    H5240498   1.639   5.961   2.216 -0.2076  0.8800  2.6378
   64MOL    H5340499   1.624   6.078   2.086  1.3142 -1.2600 -0.5308
   64MOL    H5440500   1.520   6.143   2.293  0.1227  0.0425  1.2465
   64MOL    H5540501   1.635   6.254   2.230  2.8290 -0.3383  0.0060
   64MOL    H5640502   1.767   6.329   2.392  1.9902  1.0209  0.4504
   64MOL    H5740503   1.835   6.219   2.642 -0.0729 -0.7008 -0.0497
   64MOL    H5840504   1.926   6.342   2.549 -2.0386  0.7359 -0.9876
   64MOL    H5940505   1.925   6.045   2.517  0.6261 -1.8561  1.1772
   64MOL    H6040506   2.055   6.149   2.451  0.5760 -0.6678  0.7117
   64MOL    H6140507   2.030   6.114   2.748 -0.8005  3.1323 -0.8254
   64MOL    H6240508   2.149   6.211   2.638  1.6882 -0.0056  3.3240
   64MOL    H6340509   2.207   6.005   2.531  0.5643  1.9261  0.6333
   64MOL    H6440510   2.094   5.918   2.644 -1.7518  0.4288 -1.4028
   64MOL    H6540511   2.237   5.935   2.825 -0.4054  1.2931  1.6970
   64MOL    C6640512   2.388   6.045   2.729  0.1808  0.0386 -0.1615
   64MOL    O6740513   2.417   6.114   2.631  0.0744 -0.1680  0.0864
   64MOL    C6840514   2.494   6.026   2.833 -0.0691 -0.0052  0.3970
   64MOL    C6940515   2.598   6.135   2.832 -0.2282  0.2588 -0.1294
   64MOL    C7040516   2.714   6.134   2.724 -0.2056 -0.4973  0.3537
   64MOL    C7140517   2.856   6.177   2.758 -0.0652  0.1512 -0.4640
   64MOL    C7240518   2.866   6.322   2.791  0.4933 -0.0260  0.2609
   64MOL    O7340519   2.923   6.389   2.705  0.6059 -0.0198 -0.3643
   64MOL    N7440520   2.804   6.366   2.904  0.1206  0.2634  0.2337
   64MOL    C7540521   2.792   6.503   2.950 -0.4781 -0.0270 -0.0582
   64MOL    C7640522   2.759   6.514   3.099 -0.2961 -0.5433 -0.1232
   64MOL    C7740523   2.753   6.652   3.160  0.5166  0.4887  0.3853
   64MOL    C7840524   2.728   6.666   3.312  0.2517 -0.0916  0.5131
   64MOL    N7940525   2.789   6.790   3.353 -0.1039  0.6445  0.3285
   64MOL    H8040526   2.434   6.045   2.922 -3.1269  0.4698 -1.6802
   64MOL    H8140527   2.538   5.927   2.845 -0.5361 -0.2660 -0.0272
   64MOL    H8240528   2.546   6.231   2.833  1.0487  0.9696  1.1687
   64MOL    H8340529   2.637   6.146   2.934 -0.1160  2.3211 -0.3698
   64MOL    H8440530   2.684   6.198   2.642  0.8976  0.8414  0.9734
   64MOL    H8540531   2.723   6.034   2.682  1.1294  1.0287 -3.1611
   64MOL    H8640532   2.918   6.166   2.669  0.9007 -0.0226  0.2262
   64MOL    H8740533   2.899   6.125   2.844 -2.8193  0.2364  1.0038
   64MOL    H8840534   2.758   6.294   2.957 -0.7187  0.1692 -0.6104
   64MOL    H8940535   2.714   6.544   2.886 -0.5839 -0.9196 -0.5141
   64MOL    H9040536   2.878   6.565   2.927 -0.2500 -0.9900 -1.9603
   64MOL    H9140537   2.664   6.461   3.109  0.4075 -2.2699 -2.3138
   64MOL    H9240538   2.828   6.453   3.158  0.3406 -1.1706 -1.5047
   64MOL    H9340539   2.677   6.708   3.106  0.3978 -0.6580 -0.6693
   64MOL    H9440540   2.841   6.712   3.136 -0.0607  1.4246  0.5649
   64MOL    H9540541   2.774   6.584   3.366  0.3604 -0.8160 -0.6520
   64MOL    H9640542   2.621   6.654   3.329 -0.3056  0.1756 -2.4105
   64MOL    H9740543   2.890   6.789   3.348 -0.1318 -1.6034 -0.1393
   64MOL    C9840544   2.731   6.906   3.401 -1.1188  0.2131 -0.3394
   64MOL    O9940545   2.609   6.930   3.408  0.3221  0.3676  0.3714
   64MOL   C10040546   2.826   7.019   3.449  0.2752 -0.3719 -0.1163
   64MOL   C10140547   2.770   7.105   3.560 -0.3093 -0.0229 -0.1395
   64MOL   C10240548   2.766   7.253   3.518 -0.4670  0.0027 -0.3362
   64MOL   C10340549   2.703   7.359   3.621 -0.2998  0.3097 -0.1388
   64MOL   C10440550   2.556   7.355   3.655 -0.1959 -0.4336 -1.1874
   64MOL   O10540551   2.519   7.365   3.770  0.6929 -0.3876  0.6224
   64MOL   N10640552   2.467   7.333   3.551  0.2639  0.1472  0.3458
   64MOL   C10740553   2.337   7.303   3.579  0.5837 -0.0885  0.3708
   64MOL   C10840554   2.252   7.300   3.451 -0.0393  0.2958 -0.1042
   64MOL   C10940555   2.110   7.239   3.467 -0.2147 -0.3232  0.2614
   64MOL   C11040556   2.124   7.086   3.492 -0.5003 -0.1086  0.8419
   64MOL   N11140557   1.996   7.037   3.461  0.3832 -0.2775  0.1352
   64MOL   H11240558   2.909   6.960   3.487 -0.4479  0.0470  2.2109
   64MOL   H11340559   2.864   7.075   3.363  1.1566  0.0301  0.5231
   64MOL   H11440560   2.668   7.085   3.593 -0.4791  0.9869 -0.0461
   64MOL   H11540561   2.824   7.107   3.655 -1.3119 -2.0299  0.4994
   64MOL   H11640562   2.723   7.248   3.417  1.8102 -1.0072 -1.2869
   64MOL   H11740563   2.868   7.279   3.492 -0.5990  0.0648 -0.8085
   64MOL   H11840564   2.731   7.457   3.583 -1.2840  0.2764 -0.9997
   64MOL   H11940565   2.757   7.358   3.716 -0.4318 -0.4877 -0.0675
   64MOL   H12040566   2.511   7.333   3.460  3.9794 -0.8181  2.0436
   64MOL   H12140567   2.306   7.383   3.645  0.4373 -0.0355  0.2386
   64MOL   H12240568   2.328   7.211   3.637  0.5983  0.4322  1.2138
   64MOL   H12340569   2.249   7.401   3.410  1.1867  1.5060  2.6831
   64MOL   H12440570   2.313   7.241   3.383 -0.7318  1.0038 -1.3517
   64MOL   H12540571   2.053   7.267   3.379 -0.1044  1.7662  0.8373
   64MOL   H12640572   2.057   7.288   3.548  1.6983 -1.8142  2.4626
   64MOL   H12740573   2.136   7.060   3.597  1.3241  0.4489  0.7837
   64MOL   H12840574   2.193   7.027   3.432  0.8371  1.2895  0.9696
   64MOL   H12940575   1.941   7.091   3.395 -1.7485 -0.8133  1.4165
   64MOL   C13040576   1.951   6.920   3.500  0.4237  0.1987  0.3078
   64MOL   O13140577   2.013   6.848   3.584 -0.0664  0.0661  0.5699
   64MOL   C13240578   1.818   6.877   3.436 -0.0096  0.1843 -0.1063
   64MOL   C13340579   1.733   6.784   3.521  0.4668  0.2381 -0.5241
   64MOL   C13440580   1.666   6.841   3.644  0.1171 -0.0577  0.0912
   64MOL   C13540581   1.536   6.768   3.694  0.8429 -0.1511  0.2877
   64MOL   C13640582   1.559   6.622   3.742  0.4278  0.6004  0.1379
   64MOL   O13740583   1.636   6.601   3.840  0.5156 -0.2675  0.3644
   64MOL   N13840584   1.485   6.526   3.681 -0.5474 -0.5730  0.0058
   64MOL   C13940585   1.495   6.383   3.697  0.0099 -0.2928  0.3563
   64MOL   C14040586   1.372   6.316   3.642  0.1953  0.4902  0.0225
   64MOL   C14140587   1.379   6.170   3.679  0.1135 -0.2037  1.2533
   64MOL   C14240588   1.272   6.084   3.614  0.0955 -0.0763 -0.0725
   64MOL   N14340589   1.277   5.941   3.652 -0.2884 -0.3547 -0.1167
   64MOL   H14440590   1.765   6.966   3.403  0.5062  0.4067 -0.3395
   64MOL   H14540591   1.848   6.830   3.342  0.7785 -0.5050  0.4832
   64MOL   H14640592   1.647   6.753   3.460  1.1303 -4.0319  0.6183
   64MOL   H14740593   1.782   6.689   3.540 -0.7154 -0.5928 -1.5198
   64MOL   H14840594   1.642   6.948   3.641 -1.6065 -0.3709  1.7523
   64MOL   H14940595   1.738   6.838   3.726 -0.8947 -0.4533  0.9642
   64MOL   H15040596   1.458   6.776   3.619  1.6424 -1.1712 -0.6634
   64MOL   H15140597   1.480   6.817   3.774  0.3206  0.4956 -0.4755
   64MOL   H15240598   1.430   6.556   3.601  1.9657 -0.0195 -1.5798
   64MOL   H15340599   1.513   6.354   3.800  0.9947  2.0026  0.8421
   64MOL   H15440600   1.585   6.357   3.642 -0.8408 -0.1577 -1.1284
   64MOL   H15540601   1.281   6.364   3.677  0.4062 -1.1999  3.1439
   64MOL   H15640602   1.382   6.331   3.535 -1.6581  2.3279  0.0950
   64MOL   H15740603   1.369   6.167   3.787 -1.3755 -0.0398  1.1323
   64MOL   H15840604   1.478   6.134   3.649 -0.9020 -3.7075  1.8636
   64MOL   H15940605   1.278   6.097   3.506  0.0773 -0.1854 -0.0862
   64MOL   H16040606   1.172   6.125   3.625 -0.0463 -0.0426 -1.3440
   64MOL   H16140607   1.251   5.918   3.747  0.6786 -2.7697 -0.3927
   64MOL   C16240608   1.300   5.841   3.573  0.0982  0.2304 -0.0736
   64MOL   O16340609   1.348   5.859   3.458 -0.7016  0.0200  0.2797
   64MOL   C16440610   1.254   5.702   3.623 -0.4763 -0.7755 -0.1922
   64MOL   C16540611   1.147   5.648   3.528  0.5631 -0.3071 -0.5337
   64MOL   C16640612   1.139   5.493   3.505  0.4136  0.0178  0.0084
   64MOL   C16740613   1.014   5.445   3.438  0.4976 -0.2256  0.8640
   64MOL   C16840614   0.996   5.512   3.301  0.1788  0.3359 -0.4901
   64MOL   O16940615   0.905   5.585   3.267  0.3318  0.3516 -0.2062
   64MOL   N17040616   1.085   5.466   3.213  0.3387 -0.2333 -0.6615
   64MOL   C17140617   1.099   5.492   3.066  0.4874  0.3953  0.1328
   64MOL   C17240618   1.192   5.623   3.057  0.0960 -0.0549 -0.0079
   64MOL   C17340619   1.336   5.595   3.121 -1.2279  0.1862 -0.3915
   64MOL   C17440620   1.433   5.713   3.097 -1.1890  0.4938  0.4255
   64MOL   N17540621   1.393   5.837   3.160 -0.1772  0.1369 -0.0791
   64MOL   H17640622   1.343   5.640   3.636 -0.0021  0.0174  0.4083
   64MOL   H17740623   1.208   5.712   3.721  0.7513  1.0391  0.2357
   64MOL   H17840624   1.045   5.684   3.545 -0.0281 -1.2842 -1.8770
   64MOL   H17940625   1.161   5.694   3.430  0.6252  3.1497  1.0319
   64MOL   H18040626   1.140   5.445   3.603  2.4631 -0.1092 -0.0503
   64MOL   H18140627   1.231   5.453   3.463 -0.0568 -3.2627  1.8848
   64MOL   H18240628   0.922   5.471   3.492 -0.1706  1.2690 -0.9685
   64MOL   H18340629   1.003   5.336   3.437  0.1627 -0.1949  0.9352
   64MOL   H18440630   1.151   5.401   3.255 -1.5223 -1.4117  0.5378
   64MOL   H18540631   1.006   5.511   3.012  1.2694  2.1310 -0.6372
   64MOL   H18640632   1.144   5.402   3.023 -2.1070 -1.8011  1.8149
   64MOL   H18740633   1.203   5.640   2.950 -1.3581 -0.3095 -0.2085
   64MOL   H18840634   1.129   5.700   3.102 -0.8446 -0.3604 -0.7738
   64MOL   H18940635   1.372   5.503   3.074 -0.7997 -0.7252  1.6484
   64MOL   H19040636   1.323   5.578   3.228 -1.7584  1.0598 -0.3167
   64MOL   H19140637   1.458   5.713   2.991  1.3262 -0.6468  0.9887
   64MOL   H19240638   1.526   5.681   3.143 -0.4543 -0.5158 -1.7297
   64MOL   H19340639   1.393   5.842   3.260  3.1395  0.5869 -0.0443
   64MOL   C19440640   1.320   5.933   3.096 -0.0342 -0.1609 -0.1738
   64MOL   O19540641   1.309   5.933   2.972  0.0774  0.3314  0.0468
   64MOL   C19640642   1.266   6.045   3.189  0.9066 -0.1557 -0.1824
   64MOL   C19740643   1.196   6.160   3.128  0.2686  0.1089 -0.3079
   64MOL   C19840644   1.267   6.239   3.033 -0.7420 -0.2268  0.4663
   64MOL   C19940645   1.246   6.396   3.042 -0.2729  0.4513 -0.0382
   64MOL   C20040646   1.109   6.440   3.000  0.8784 -0.5493  0.5040
   64MOL   O20140647   1.078   6.474   2.881 -0.2768 -0.5938 -0.2105
   64MOL   N20240648   1.024   6.466   3.101  0.2692  0.0815 -0.4131
   64MOL   C20340649   0.884   6.505   3.095  0.4976  0.2831  0.5416
   64MOL   C20440650   0.791   6.400   3.041  0.5196  0.3698  0.6463
   64MOL   C20540651   0.644   6.440   3.043 -0.7405 -0.3155 -0.2664
   64MOL   C20640652   0.553   6.353   2.960 -0.0070  0.0702 -0.2685
   64MOL   N20740653   0.526   6.226   3.027 -0.0689  0.4897 -0.0395
   64MOL   H20840654   1.194   5.996   3.255 -0.4912  0.4331 -1.2551
   64MOL   H20940655   1.340   6.083   3.260  0.4086 -1.8557  1.2868
   64MOL   H21040656   1.098   6.125   3.095  0.3549 -1.7979  1.3328
   64MOL   H21140657   1.172   6.223   3.214  1.2434  0.8042 -0.5495
   64MOL   H21240658   1.268   6.203   2.931 -1.3037 -1.3730  0.8575
   64MOL   H21340659   1.373   6.232   3.059  0.1602  1.1001 -2.6165
   64MOL   H21440660   1.313   6.441   2.970  1.1920  1.1012  1.7108
   64MOL   H21540661   1.265   6.438   3.141 -0.2698 -0.7833  0.4941
   64MOL   H21640662   1.061   6.457   3.194  0.5264 -1.2601 -0.6336
   64MOL   H21740663   0.867   6.602   3.050  2.2291  1.2242  1.8611
   64MOL   H21840664   0.853   6.517   3.198  1.5368 -0.5895  0.9679
   64MOL   H21940665   0.824   6.386   2.938 -0.0902 -2.4439  0.7887
   64MOL   H22040666   0.799   6.298   3.079 -0.0855 -0.7414 -2.1220
   64MOL   H22140667   0.652   6.528   2.980  0.9385 -0.1452  0.1357
   64MOL   H22240668   0.615   6.463   3.146  0.7457 -0.3919  0.1962
   64MOL   H22340669   0.599   6.324   2.865  0.3754  2.0911 -0.7437
   64MOL   H22440670   0.469   6.416   2.928  1.3810  0.8505 -2.5247
   64MOL   H22540671   0.600   6.169   3.065  0.1689 -1.3185 -3.0193
   64MOL   C22640672   0.409   6.211   3.086 -0.1159  0.0139 -1.0906
   64MOL   O22740673   0.309   6.280   3.060  0.0439 -0.3307 -0.1627
   64MOL   C22840674   0.398   6.099   3.182 -0.2960 -0.1088 -0.3033
   64MOL   C22940675   0.269   6.093   3.260  0.4648  0.0105 -0.2303
   64MOL   C23040676   0.264   5.975   3.363 -0.6711  0.5198 -0.5281
   64MOL   C23140677   0.121   5.939   3.404  0.5858 -0.1671 -0.1526
   64MOL   C23240678   0.122   5.813   3.488 -0.3025  0.2080  0.7364
   64MOL   O23340679   0.221   5.784   3.560  0.1226 -0.6787 -0.2271
   64MOL   N23440680   0.010   5.737   3.472 -0.8105 -0.4095 -0.1477
   64MOL   C23540681   7.680   5.611   3.545  0.2945  0.0851  0.5201
   64MOL   C23640682   7.524   5.585   3.555  0.1963  0.4579 -0.2949
   64MOL   C23740683   7.446   5.560   3.422  0.7447 -0.2562  0.0438
   64MOL   C23840684   7.299   5.522   3.444 -0.0421 -0.5911 -0.4605
   64MOL   N23940685   7.209   5.615   3.503  0.6308  0.5574  0.1875
   64MOL   H24040686   0.409   6.008   3.122  0.9696 -0.1475 -0.0213
   64MOL   H24140687   0.485   6.113   3.245  0.8370  0.1813 -1.9084
   64MOL   H24240688   0.256   6.193   3.302  2.0377  0.8626 -1.7008
   64MOL   H24340689   0.185   6.081   3.191 -0.0678  0.4276  0.3426
   64MOL   H24440690   0.326   5.997   3.451  0.8338  0.6648 -1.6052
   64MOL   H24540691   0.306   5.887   3.314 -0.7146  1.2872 -1.9420
   64MOL   H24640692   0.064   5.936   3.311 -0.6854  0.2320  0.6088
   64MOL   H24740693   0.096   6.028   3.462  0.0904 -0.5522  0.2264
   64MOL   H24840694   7.635   5.787   3.429 -0.7417 -0.7102 -0.6137
   64MOL   H24940695   0.022   5.622   3.644 -0.0006 -2.8120  1.0359
   64MOL   H25040696   0.024   5.523   3.498  0.0098 -0.7979  1.8734
   64MOL   H25140697   7.504   5.488   3.600 -0.5363  0.9614  0.4844
   64MOL   H25240698   7.477   5.666   3.611 -0.0321 -0.7030  1.2152
   64MOL   H25340699   7.495   5.476   3.373 -0.0476  0.0660 -1.2928
   64MOL   H25440700   7.460   5.641   3.352 -0.7653 -0.5806 -0.6366
   64MOL   H25540701   7.292   5.433   3.507 -1.9629  1.4885  2.4283
   64MOL   H25640702   7.252   5.487   3.353 -2.9717 -0.4168  0.9132
   64MOL   H25740703   7.181   5.596   3.598 -0.2805 -1.1959 -0.4076
   64MOL   C25840704   7.142   5.707   3.443 -0.2705  0.1820 -0.1607
   64MOL   O25940705   7.167   5.739   3.324 -0.0777 -0.3118  0.2993
   64MOL   C26040706   7.022   5.775   3.517 -0.3883 -0.4436  0.1188
   64MOL   C26140707   7.038   5.927   3.527  0.1367 -0.1028  0.0653
   64MOL   C26240708   6.911   6.011   3.500 -0.2407  0.1256  0.3047
   64MOL   C26340709   6.926   6.158   3.535  0.1494 -0.0916 -0.0738
   64MOL   C26440710   7.050   6.230   3.463  0.4179 -0.3887  1.0709
   64MOL   O26540711   7.165   6.224   3.510 -0.0502  0.0792  0.3097
   64MOL   N26640712   7.030   6.279   3.339  0.5164  0.2122  0.0769
   64MOL   C26740713   7.122   6.311   3.235  0.1097  0.4282 -0.4787
   64MOL   C26840714   7.073   6.422   3.135  0.6053 -0.5811  0.5685
   64MOL   C26940715   7.149   6.413   2.997  0.1926 -0.5739  0.6554
   64MOL   C27040716   7.088   6.504   2.881 -1.1496  0.0938  0.1331
   64MOL   N27140717   7.057   6.643   2.921  0.1204 -0.7511  0.7245
   64MOL   H27240718   6.925   5.753   3.472 -0.3599  1.2866 -0.8062
   64MOL   H27340719   7.009   5.735   3.618  1.2131  0.5525  0.7468
   64MOL   H27440720   7.075   5.958   3.625 -1.3595  2.0571 -0.0140
   64MOL   H27540721   7.119   5.961   3.463  1.1306  1.2690  1.9666
   64MOL   H27640722   6.815   5.974   3.537 -1.2762  1.1701 -1.2953
   64MOL   H27740723   6.895   6.003   3.393 -3.3113  0.0493  0.7443
   64MOL   H27840724   6.931   6.172   3.643  1.3557  0.0374 -0.1477
   64MOL   H27940725   6.834   6.206   3.501  1.0314  0.4314 -1.7887
   64MOL   H28040726   6.933   6.275   3.311  0.6275  0.7748 -0.3760
   64MOL   H28140727   7.138   6.216   3.184 -0.2602 -0.0486  0.2671
   64MOL   H28240728   7.217   6.346   3.275  0.0175 -0.8352  0.8882
   64MOL   H28340729   6.966   6.405   3.124  0.0676  3.1502 -0.8290
   64MOL   H28440730   7.083   6.523   3.174  0.3903 -0.3968  0.1570
   64MOL   H28540731   7.151   6.317   2.945  0.7470  0.0152 -0.4466
   64MOL   H28640732   7.254   6.438   3.012  0.2832  0.3668 -1.3276
   64MOL   H28740733   6.989   6.468   2.851 -0.9662  0.9458 -1.6081
   64MOL   H28840734   7.144   6.500   2.788 -2.0322  0.2706 -0.4157
   64MOL   H28940735   7.081   6.686   3.009  1.8006  1.1314 -0.6017
   64MOL   C29040736   7.024   6.734   2.827  0.0950  0.5371 -0.0283
   64MOL   O29140737   6.985   6.699   2.714 -0.5234  0.1400 -0.1645
   64MOL   C29240738   7.005   6.873   2.868 -0.6561 -0.9632  0.2026
   64MOL   C29340739   7.085   6.977   2.791 -0.9181  0.1725 -0.0831
   64MOL   C29440740   7.228   6.977   2.835  0.2761 -0.3559  0.3967
   64MOL   C29540741   7.302   7.096   2.777  0.3133  0.4897  0.2409
   64MOL   C29640742   7.443   7.123   2.836  0.4547  0.0134  0.1205
   64MOL   O29740743   7.464   7.103   2.956 -0.0044  0.5854  0.5892
   64MOL   N29840744   7.534   7.178   2.753 -0.3488  0.4097  0.3811
   64MOL   C29940745   7.659   7.238   2.789 -0.3210  0.0314  0.0237
   64MOL   C30040746   7.655   7.386   2.742 -0.9789 -0.0326  0.1791
   64MOL   C30140747   7.555   7.476   2.814  0.1118  0.7106 -0.5946
   64MOL   C30240748   7.595   7.502   2.964  0.0809 -0.2609  0.6815
   64MOL   N30340749   0.026   7.564   2.974  0.0674  0.3177  0.1880
   64MOL   H30440750   6.899   6.891   2.849 -0.4178 -0.6916 -0.9232
   64MOL   H30540751   7.023   6.882   2.975 -1.5191  0.3599  0.2474
   64MOL   H30640752   7.077   6.969   2.682 -0.9300 -0.8612 -0.0180
   64MOL   H30740753   7.041   7.076   2.803 -1.1538 -0.1691  1.9458
   64MOL   H30840754   7.282   6.887   2.807  3.6496  0.5373  3.6044
   64MOL   H30940755   7.233   6.994   2.942 -0.5821 -0.1938  0.4113
   64MOL   H31040756   7.244   7.181   2.812 -1.4759 -0.3250 -0.6780
   64MOL   H31140757   7.288   7.091   2.669 -2.3668 -2.7011  0.6847
   64MOL   H31240758   7.510   7.175   2.655 -0.9657 -0.2468  0.5474
   64MOL   H31340759   0.050   7.203   2.741  0.3401  0.9819  0.5704
   64MOL   H31440760   7.677   7.233   2.897 -0.3002  0.1041  0.0244
   64MOL   H31540761   0.058   7.418   2.731 -1.1969  1.5185  2.3306
   64MOL   H31640762   7.630   7.397   2.637  0.9416  0.3803 -0.2551
   64MOL   H31740763   7.456   7.430   2.820  0.1747  0.8188  1.7100
   64MOL   H31840764   7.547   7.571   2.761 -0.7492 -0.1532 -2.0534
   64MOL   H31940765   7.591   7.413   3.028 -1.1101 -1.0501 -0.4497
   64MOL   H32040766   7.519   7.571   3.001 -0.6223  0.7208 -2.4234
   64MOL   H32140767   0.097   7.511   3.023  0.2867  0.5337  0.1055
   64MOL   C32240768   0.050   7.694   2.938  0.5713 -0.6122 -0.4245
   64MOL   O32340769   7.665   0.063   2.884 -0.7242 -0.5955 -0.1630
   64MOL   C32440770   0.183   0.046   2.986 -0.5150 -0.5737 -0.1342
   64MOL   C32540771   0.299   0.049   2.890  0.1229  0.7706 -0.0320
   64MOL   C32640772   0.326   0.171   2.804 -0.1351  0.6290  0.5588
   64MOL   C32740773   0.239   0.166   2.681 -0.1053  0.5621  0.0486
   64MOL   C32840774   0.270   0.070   2.567 -0.4340  0.1657  0.1347
   64MOL   O32940775   0.388   0.058   2.535 -0.5320 -0.1961  0.0865
   64MOL   N33040776   0.171   0.010   2.508 -0.7847 -0.3520  0.4913
   64MOL   C33140777   0.191   7.601   2.402 -0.0064 -0.3771  0.2347
   64MOL   C33240778   0.239   7.469   2.463 -0.1954  0.4910 -0.4711
   64MOL   C33340779   0.176   7.339   2.388 -0.2373 -0.6634 -0.4631
   64MOL   C33440780   0.246   7.297   2.254  0.4702  0.4534 -0.1355
   64MOL   N33540781   0.392   7.266   2.264 -0.2492 -0.9487 -0.2468
   64MOL   H33640782   0.161   0.149   3.017 -1.8277 -0.5109 -1.2092
   64MOL   H33740783   0.218   7.691   3.072 -1.0921 -0.6594  0.0477
   64MOL   H33840784   0.385   0.043   2.956  0.5353 -2.8483 -0.8144
   64MOL   H33940785   0.301   7.658   2.832  0.5088  0.6693  0.1386
   64MOL   H34040786   0.426   0.175   2.762 -0.2645 -0.4638  0.1291
   64MOL   H34140787   0.290   0.262   2.851 -3.5551 -0.0263 -0.5977
   64MOL   H34240788   0.232   0.269   2.645 -2.0639  0.3243 -0.3298
   64MOL   H34340789   0.134   0.150   2.707  0.5737 -0.5886  2.1621
   64MOL   H34440790   0.076   0.032   2.536 -1.5194  0.7807 -2.6506
   64MOL   H34540791   0.254   7.626   2.316  0.4516 -0.1750  0.6300
   64MOL   H34640792   0.100   7.569   2.351  1.0083  0.7609 -2.3944
   64MOL   H34740793   0.347   7.467   2.482  0.1179  1.0443 -2.1654
   64MOL   H34840794   0.201   7.459   2.565 -0.4007 -1.2963 -0.6991
   64MOL   H34940795   0.068   7.337   2.382 -0.2087 -2.2406 -0.5768
   64MOL   H35040796   0.189   7.258   2.460 -0.4741  1.2380  1.7730
   64MOL   H35140797   0.222   7.374   2.181 -2.3646  0.7879  1.0649
   64MOL   H35240798   0.199   7.203   2.222  0.4110  0.0353  1.1513
   64MOL   H35340799   0.449   7.326   2.205  0.5006  0.2353  1.6285
   64MOL   C35440800   0.462   7.194   2.350  1.0397  0.8071  0.3579
   64MOL   O35540801   0.404   7.114   2.424  0.8465 -0.0676  0.3227
   64MOL   C35640802   0.618   7.200   2.351 -0.0796  0.4621  0.0539
   64MOL   C35740803   0.669   7.106   2.459  0.4440 -0.3437  0.0331
   64MOL   C35840804   0.821   7.090   2.451 -0.2023 -0.8297  0.4152
   64MOL   C35940805   0.908   7.218   2.463  0.1556  0.6715 -0.5372
   64MOL   C36040806   1.055   7.170   2.477 -0.6270 -0.1008  0.5586
   64MOL   O36140807   1.106   7.093   2.395  0.2646  0.1864 -0.3527
   64MOL   N36240808   1.130   7.207   2.586  0.5654  0.3774 -0.2553
   64MOL   C36340809   1.258   7.148   2.623 -0.1692  0.3109  0.3847
   64MOL   C36440810   1.245   7.054   2.742  0.0654 -0.2374  0.1087
   64MOL   C36540811   1.181   7.120   2.868 -0.1885  0.8449  0.1287
   64MOL   C36640812   1.024   7.111   2.858 -0.1708 -0.4518  0.1749
   64MOL   N36740813   0.977   6.974   2.851 -0.1770  0.0716 -0.1317
   64MOL   H36840814   0.651   7.181   2.249  0.4702  1.2620  0.0718
   64MOL   H36940815   0.657   7.300   2.370 -2.1506  1.3260 -0.0097
   64MOL   H37040816   0.653   7.143   2.561  1.0264  0.7980 -0.2724
   64MOL   H37140817   0.625   7.007   2.451 -0.5365 -0.0082  1.2001
   64MOL   H37240818   0.844   7.048   2.353 -3.6949 -1.0304 -0.3709
   64MOL   H37340819   0.855   7.022   2.530  0.4888 -2.4519 -1.2433
   64MOL   H37440820   0.886   7.271   2.557  0.9271  1.7546 -0.9509
   64MOL   H37540821   0.896   7.280   2.374  4.5160  2.7227  0.1483
   64MOL   H37640822   1.087   7.280   2.641 -1.5934  0.0279 -1.3965
   64MOL   H37740823   1.325   7.223   2.663 -1.2172  1.0835  0.7222
   64MOL   H37840824   1.317   7.097   2.547 -0.9217 -0.2427  0.1571
   64MOL   H37940825   1.201   6.958   2.713  1.4410 -0.3404 -1.7191
   64MOL   H38040826   1.348   7.029   2.765 -0.4516 -1.3011  1.3516
   64MOL   H38140827   1.223   7.220   2.861  1.0670  0.2972 -0.4500
   64MOL   H38240828   1.219   7.075   2.960 -2.1690  2.2680  1.6853
   64MOL   H38340829   0.972   7.171   2.783  0.6263 -1.5062 -1.2539
   64MOL   H38440830   0.991   7.143   2.957  1.0959  2.5921 -0.3089
   64MOL   H38540831   1.036   6.895   2.872  0.9242  0.4794 -1.5807
   64MOL   C38640832   0.847   6.952   2.824 -0.3010 -0.1375  0.1912
   64MOL   O38740833   0.769   7.043   2.800  0.2384  0.3447  0.4078
   64MOL   C38840834   0.797   6.812   2.838 -0.7862  0.2685  0.4726
   64MOL   C38940835   0.738   6.756   2.715  0.5026  0.0603 -0.2773
   64MOL   C39040836   0.630   6.654   2.740 -0.3948  0.0984 -0.3218
   64MOL   C39140837   0.540   6.625   2.624 -0.3985 -0.3482 -0.0366
   64MOL   C39240838   0.433   6.515   2.643  0.2884 -0.1221  0.0262
   64MOL   O39340839   0.468   6.397   2.623  0.2149  1.0563 -0.2516
   64MOL   N39440840   0.306   6.552   2.679  0.9002 -0.3671 -0.7134
   64MOL   C39540841   0.204   6.454   2.728  0.4129 -0.3675  1.1953
   64MOL   C39640842   0.088   6.419   2.628 -0.0935  0.4730 -0.2715
   64MOL   C39740843   0.141   6.378   2.485  0.6187 -0.5097 -0.0933
   64MOL   C39840844   0.176   6.231   2.468 -0.4572 -0.2274  0.1468
   64MOL   N39940845   0.284   6.194   2.552  0.9307 -0.8292  0.2366
   64MOL   H40040846   0.877   6.746   2.873 -3.5765 -3.6235 -0.1251
   64MOL   H40140847   0.724   6.817   2.918 -1.4988 -0.1833 -0.1430
   64MOL   H40240848   0.694   6.841   2.662  2.0006  1.7405  1.0978
   64MOL   H40340849   0.816   6.708   2.655  0.6177 -1.7011  1.2507
   64MOL   H40440850   0.558   6.688   2.816  0.2289 -1.3079  0.9276
   64MOL   H40540851   0.677   6.560   2.769  0.5441  0.5884 -0.2526
   64MOL   H40640852   0.610   6.580   2.554 -0.6654 -1.1147  0.1885
   64MOL   H40740853   0.491   6.712   2.580  0.4278 -0.1963 -0.6679
   64MOL   H40840854   0.297   6.651   2.692 -0.8959 -0.4899 -0.9980
   64MOL   H40940855   0.158   6.507   2.812 -0.2063  0.4455  0.3536
   64MOL   H41040856   0.245   6.364   2.773  3.0590 -0.7097 -1.7656
   64MOL   H41140857   0.018   6.342   2.660  0.5197  1.0571  2.6278
   64MOL   H41240858   0.024   6.503   2.604  1.6241  1.6338 -0.9030
   64MOL   H41340859   0.225   6.435   2.446  2.8100 -2.6568  1.3244
   64MOL   H41440860   0.058   6.409   2.422  0.2289 -0.2682  0.5263
   64MOL   H41540861   0.210   6.199   2.370  2.4492  0.6787  0.8060
   64MOL   H41640862   0.092   6.165   2.488 -1.0912  0.5304  0.0129
   64MOL   H41740863   0.353   6.264   2.573 -0.3574  0.6887 -0.5098
   64MOL   C41840864   0.291   6.094   2.634 -0.2353 -0.7483 -0.3168
   64MOL   O41940865   0.209   6.006   2.624 -0.0377 -0.3208 -0.5541
   64MOL   C42040866   0.400   6.102   2.740 -0.6883  0.0712  0.5517
   64MOL   C42140867   0.449   5.965   2.792 -0.8148 -0.2311  0.4564
   64MOL   C42240868   0.489   5.858   2.686  0.5677 -0.5431  0.0929
   64MOL   C42340869   0.614   5.885   2.604  0.8163  0.2894 -0.2214
   64MOL   C42440870   0.629   5.795   2.482 -0.1320  0.3387 -0.9103
   64MOL   O42540871   0.544   5.783   2.394  0.1077  0.0175  0.0677
   64MOL   N42640872   0.743   5.727   2.477 -0.5680 -0.4935 -0.0437
   64MOL   C42740873   0.777   5.634   2.366  0.5731 -0.3181 -0.0349
   64MOL   C42840874   0.832   5.714   2.248  1.0147  0.2573  0.4806
   64MOL   C42940875   0.874   5.627   2.127 -0.2202  0.0119  0.0094
   64MOL   C43040876   1.010   5.550   2.133  0.0131 -0.1335  0.3187
   64MOL   N43140877   1.117   5.647   2.122  0.6101 -0.1560 -0.6898
   64MOL   H43240878   0.488   6.154   2.701  0.7510 -1.2000  2.0233
   64MOL   H43340879   0.365   6.168   2.819 -0.2995  0.9017  0.0392
   64MOL   H43440880   0.530   5.980   2.863 -0.4834  0.7961 -0.1362
   64MOL   H43540881   0.366   5.919   2.846 -0.6076 -1.4612 -0.2461
   64MOL   H43640882   0.404   5.839   2.620 -1.3199 -0.6725  2.4706
   64MOL   H43740883   0.507   5.764   2.739 -1.0229 -2.4458 -2.6080
   64MOL   H43840884   0.702   5.883   2.668  0.7907  1.0277 -0.1629
   64MOL   H43940885   0.616   5.986   2.563  0.9219  0.0650 -0.7771
   64MOL   H44040886   0.799   5.726   2.561 -0.1360 -0.2291 -0.3290
   64MOL   H44140887   0.693   5.572   2.332  0.5216  0.3958 -1.2352
   64MOL   H44240888   0.850   5.563   2.405 -0.2446 -0.2880  1.5967
   64MOL   H44340889   0.756   5.785   2.214  0.7301  0.1399  0.8647
   64MOL   H44440890   0.913   5.781   2.278  0.9558 -0.2775  1.8761
   64MOL   H44540891   0.875   5.675   2.030  1.5075 -1.3039 -0.6535
   64MOL   H44640892   0.793   5.554   2.124 -0.9883  0.8625 -0.1046
   64MOL   H44740893   1.004   5.478   2.052 -1.6057 -1.2572  1.3898
   64MOL   H44840894   1.014   5.498   2.229 -0.5243  0.3589  0.6198
   64MOL   H44940895   1.105   5.744   2.148  0.5642 -0.3774  0.1421
   64MOL   C45040896   1.246   5.615   2.098 -0.2635 -0.0750  0.3094
   64MOL   O45140897   1.292   5.501   2.082 -0.0755  0.3127 -0.1888
   64MOL   C45240898   1.337   5.737   2.081 -1.4113  0.0025  0.0961
   64MOL   C45340899   1.490   5.708   2.057 -0.7548 -0.2678 -0.7173
   64MOL   C45440900   1.523   5.644   1.917  0.3809 -0.0925  0.2151
   64MOL   C45540901   1.675   5.627   1.904 -0.4154 -0.1353  0.8187
   64MOL   C45640902   1.710   5.527   1.788  0.2995  0.5755  0.4519
   64MOL   O45740903   1.649   5.535   1.682  0.7108  0.3901 -0.4970
   64MOL   N45840904   1.809   5.436   1.806  0.3528  0.0046  0.4246
   64MOL   C45940905   1.917   5.430   1.908 -0.2173 -0.4100  0.1236
   64MOL   C46040906   1.895   5.312   2.001 -0.0491 -0.3417 -0.0981
   64MOL   C46140907   2.005   5.292   2.106  0.0043 -1.0427 -0.6207
   64MOL   C46240908   1.969   5.190   2.209  0.7290  0.5628 -0.0836
   64MOL   N46340909   2.079   5.160   2.291  0.3440 -0.6423 -0.5071
   64MOL   H46440910   1.296   5.798   2.000 -1.5565 -0.9054 -0.5231
   64MOL   H46540911   1.331   5.794   2.174 -0.7127  1.9667 -1.0280
   64MOL   H46640912   1.545   5.802   2.067 -0.0222 -0.8504  0.9329
   64MOL   H46740913   1.535   5.659   2.143 -1.9768  0.3564  0.3058
   64MOL   H46840914   1.484   5.715   1.844  1.9028 -0.3545 -0.8826
   64MOL   H46940915   1.466   5.552   1.914  1.3656 -0.6729 -0.9139
   64MOL   H47040916   1.709   5.593   2.002 -0.0014 -0.2464  0.6394
   64MOL   H47140917   1.715   5.728   1.895 -0.4484 -0.3068 -1.7864
   64MOL   H47240918   1.823   5.375   1.727 -0.7872  0.0609  0.1741
   64MOL   H47340919   1.929   5.531   1.948 -2.9177  0.0011 -0.0124
   64MOL   H47440920   2.015   5.424   1.860 -0.1146  0.9953  0.1482
   64MOL   H47540921   1.799   5.336   2.048  0.4028 -0.0568  0.6824
   64MOL   H47640922   1.871   5.224   1.942  1.5085 -0.1466 -1.0309
   64MOL   H47740923   2.041   5.384   2.151 -1.6697 -0.6978  0.0786
   64MOL   H47840924   2.097   5.258   2.059 -0.7303 -1.4975 -1.7521
   64MOL   H47940925   1.916   5.104   2.170  0.7761  0.4841  0.0278
   64MOL   H48040926   1.899   5.235   2.280 -1.3031  0.9232 -2.2688
   64MOL   H48140927   2.122   5.069   2.282 -0.0007 -0.6234 -2.6440
   64MOL   C48240928   2.131   5.238   2.387  0.1600 -0.5001  0.1859
   64MOL   O48340929   2.084   5.346   2.424 -0.0159  0.2771  0.3161
   64MOL   C48440930   2.241   5.173   2.473 -0.0288  0.2220  0.5328
   64MOL   C48540931   2.239   5.214   2.625 -0.3641 -0.2998 -0.0798
   64MOL   C48640932   2.104   5.208   2.698 -0.2475 -0.1338 -0.0064
   64MOL   C48740933   2.105   5.250   2.848 -0.5715 -0.0149  0.6683
   64MOL   C48840934   2.132   5.134   2.940 -0.7828  0.2733  0.1313
   64MOL   O48940935   2.239   5.118   2.994  0.5434  0.1384 -0.1502
   64MOL   N49040936   2.030   5.054   2.962 -0.5868  0.1956  0.1688
   64MOL   C49140937   2.002   4.978   3.078 -0.0838 -0.3340 -0.0413
   64MOL   C49240938   1.887   5.059   3.153 -0.7323 -0.1747  0.6897
   64MOL   C49340939   1.848   5.003   3.293  0.8273  0.1635 -0.4345
   64MOL   C49440940   1.753   5.097   3.374 -0.2832 -0.3027  0.3197
   64MOL   N49540941   1.728   5.052   3.510 -0.0918 -0.2234 -0.2042
   64MOL   H49640942   2.236   5.064   2.465  1.4557  0.0111  2.1924
   64MOL   H49740943   2.337   5.196   2.427 -0.3655  0.4468 -0.0699
   64MOL   H49840944   2.303   5.141   2.673  0.8422  1.9010  1.7317
   64MOL   H49940945   2.275   5.316   2.633 -0.7891 -0.1177 -0.4612
   64MOL   H50040946   2.070   5.105   2.697 -1.0271  0.0861  1.6056
   64MOL   H50140947   2.025   5.269   2.653 -0.8250 -0.0769  1.0709
   64MOL   H50240948   2.005   5.281   2.879 -1.0661  1.3795 -2.1050
   64MOL   H50340949   2.172   5.336   2.857 -2.6238  1.9998 -2.4624
   64MOL   H50440950   1.954   5.062   2.896 -0.5010 -1.5348 -0.1529
   64MOL   H50540951   2.087   4.972   3.146 -0.3337 -0.0190  0.3017
   64MOL   H50640952   1.970   4.879   3.047 -2.7029  0.2186  0.7212
   64MOL   H50740953   1.901   5.167   3.157  2.2069 -0.5547  1.6681
   64MOL   H50840954   1.800   5.057   3.086 -0.8277  0.7837  0.7810
   64MOL   H50940955   1.932   4.989   3.360  0.6786  2.7078  0.3303
   64MOL   H51040956   1.808   4.902   3.290  1.5247 -0.0805 -3.0753
   64MOL   H51140957   1.656   5.097   3.325 -0.9227 -0.6424  1.5592
   64MOL   H51240958   1.792   5.198   3.365  0.0287 -0.7183 -4.0974
   64MOL   H51340959   1.751   5.120   3.580  0.1654  1.7142 -2.1046
   64MOL   C51440960   1.663   4.938   3.538  0.0302  0.6846 -0.0341
   64MOL   O51540961   1.616   4.863   3.457  0.2023  0.1065  0.5266
   64MOL   C51640962   1.629   4.909   3.688  0.5302 -0.5481  0.1191
   64MOL   C51740963   1.752   4.877   3.774 -0.0974  0.2036  0.4632
   64MOL   C51840964   1.748   4.933   3.916 -0.8689 -0.0494 -0.4601
   64MOL   C51940965   1.888   4.906   3.987  0.5435 -0.8733  0.3498
   64MOL   C52040966   1.904   4.972   4.119 -0.5963 -0.6214 -0.0725
   64MOL   O52140967   1.814   4.963   4.208 -0.4562 -0.8596  0.3125
   64MOL   N52240968   2.016   5.043   4.139 -0.0069  0.0157 -0.1944
   64MOL   C52340969   2.052   5.131   4.248 -0.4205 -0.7829 -0.0811
   64MOL   C52440970   1.975   5.261   4.240 -0.0806  0.4348 -0.4829
   64MOL   C52540971   2.029   5.351   4.341  0.3540  0.5483 -0.2191
   64MOL   C52640972   1.958   5.493   4.345  0.4428  1.1868  0.6745
   64MOL   N52740973   2.027   5.585   4.436  0.8476  0.8575 -0.0124
   64MOL   H52840974   1.581   5.000   3.724  0.2841 -1.2418  1.5730
   64MOL   H52940975   1.546   4.838   3.696  0.0951 -0.1412 -0.8107
   64MOL   H53040976   1.763   4.768   3.777 -1.4354 -0.0284 -1.7967
   64MOL   H53140977   1.842   4.910   3.723 -0.2787 -1.4586 -0.9880
   64MOL   H53240978   1.670   4.893   3.981 -1.2541  0.5420 -0.5534
   64MOL   H53340979   1.727   5.040   3.909 -0.4488  0.0615 -0.0901
   64MOL   H53440980   1.963   4.956   3.926  0.6731 -0.4692  0.8418
   64MOL   H53540981   1.906   4.802   4.011  0.9447 -1.4705 -2.3226
   64MOL   H53640982   2.091   5.024   4.073  0.9545 -1.7354  1.3507
   64MOL   H53740983   2.157   5.157   4.236 -0.6697  0.7591  0.8453
   64MOL   H53840984   2.038   5.082   4.344 -0.8644  0.9448  0.7729
   64MOL   H53940985   1.981   5.310   4.143  1.0498  0.6303 -0.3241
   64MOL   H54040986   1.871   5.235   4.260  0.3372 -0.4086  0.6660
   64MOL   H54140987   2.134   5.372   4.320  0.9769  1.0130  3.1423
   64MOL   H54240988   2.024   5.297   4.435 -2.3627 -1.5953 -1.5234
   64MOL   H54340989   1.853   5.495   4.372  0.6803  1.7529  1.5966
   64MOL   H54440990   1.956   5.537   4.244  2.3845 -1.1751 -0.4318
   64MOL   H54540991   2.023   5.559   4.533  1.3305  0.1096 -0.1821
   64MOL   C54640992   2.109   5.683   4.404 -0.0176 -0.4453  0.1593
   64MOL   O54740993   2.129   5.714   4.289 -0.0758 -0.2500 -0.3270
   64MOL   C54840994   2.173   5.764   4.519  0.4803  0.0655  0.0588
   64MOL   C54940995   2.198   5.912   4.476  0.0462 -0.2927 -0.0469
   64MOL   C55040996   2.083   6.007   4.483 -0.1154 -0.2260 -0.4161
   64MOL   C55140997   2.116   6.157   4.449 -0.4088  0.2194  0.2695
   64MOL   C55240998   2.186   6.185   4.311  0.4816  0.4692 -0.1733
   64MOL   O55340999   2.310   6.180   4.306 -0.2836 -0.2414  0.4685
   64MOL   N55441000   2.108   6.218   4.208 -0.3887  0.1885 -0.7199
   64MOL   C55541001   2.151   6.248   4.071 -0.3473  0.4502 -0.2940
   64MOL   C55641002   2.054   6.182   3.977 -0.2587  0.5135 -0.6345
   64MOL   C55741003   2.028   6.032   4.020  0.1511  0.2421 -0.4325
   64MOL   C55841004   2.156   5.943   4.031  0.1125 -0.5153  0.1546
   64MOL   N55941005   2.124   5.801   4.036  0.6863  0.3800 -0.1333
   64MOL   H56041006   2.117   5.757   4.612 -0.6009 -0.5085 -0.6332
   64MOL   H56141007   2.274   5.731   4.543 -0.1499 -0.2431  2.4160
   64MOL   H56241008   2.281   5.945   4.538  1.6064  0.0760 -2.2780
   64MOL   H56341009   2.239   5.906   4.375 -1.7647 -1.6634 -0.7415
   64MOL   H56441010   2.041   5.996   4.583 -0.0478  0.5579 -0.2952
   64MOL   H56541011   2.011   5.972   4.409  1.1178  0.7006 -2.0786
   64MOL   H56641012   2.183   6.203   4.522  2.6264 -0.3745 -1.9907
   64MOL   H56741013   2.026   6.218   4.446 -1.0034 -0.5948  1.5047
   64MOL   H56841014   2.007   6.220   4.218 -0.4043  0.5678 -0.9073
   64MOL   H56941015   2.248   6.205   4.045 -1.2183 -1.1191 -1.0424
   64MOL   H57041016   2.152   6.357   4.066 -0.2191  0.3556 -2.5976
   64MOL   H57141017   1.956   6.229   3.964 -1.6908 -1.8814  1.1621
   64MOL   H57241018   2.098   6.181   3.877  2.7004 -3.0957  0.5862
   64MOL   H57341019   1.956   6.010   3.941 -0.5228 -0.4394  0.3678
   64MOL   H57441020   1.966   6.006   4.105  3.1390 -2.0043  1.1419
   64MOL   H57541021   2.224   5.967   4.113  1.8971  2.2150 -1.9891
   64MOL   H57641022   2.210   5.967   3.939  0.3303  2.8949  1.1059
   64MOL   H57741023   2.124   5.752   4.125 -1.2051  0.7472  0.0802
   64MOL   C57841024   2.092   5.734   3.925 -0.3989  0.0736 -0.5883
   64MOL   O57941025   2.103   5.773   3.811 -0.2886  0.3678  0.4314
   64MOL   C58041026   2.041   5.590   3.942  0.3128 -0.2706  0.3754
   64MOL   C58141027   1.907   5.565   3.874  0.7960 -0.6807  0.0797
   64MOL   C58241028   1.838   5.436   3.936  0.8544 -0.1070  0.1017
   64MOL   C58341029   1.699   5.407   3.878  0.1553 -0.2013 -0.4740
   64MOL   C58441030   1.691   5.375   3.726 -0.2902 -0.2593 -0.3496
   64MOL   O58541031   1.758   5.285   3.676  0.3472 -0.0481  0.0143
   64MOL   N58641032   1.595   5.439   3.665  0.5366 -0.7012  0.7488
   64MOL   C58741033   1.581   5.430   3.522  0.2042 -0.0450  0.4436
   64MOL   C58841034   1.670   5.531   3.451 -0.4736 -0.6053  0.3171
   64MOL   C58941035   1.619   5.676   3.455 -0.3459 -0.4512  0.3217
   64MOL   C59041036   1.717   5.778   3.379  0.0154 -0.4513  0.2502
   64MOL   N59141037   1.656   5.911   3.373  0.4725  0.2090 -0.2413
   64MOL   H59241038   2.120   5.526   3.901  1.2829  1.1410 -0.0336
   64MOL   H59341039   2.027   5.561   4.046 -0.5081 -2.1153 -0.2269
   64MOL   H59441040   1.832   5.645   3.877 -0.2803 -1.6218 -0.9539
   64MOL   H59541041   1.924   5.543   3.768 -2.5201 -1.0138 -0.4512
   64MOL   H59641042   1.828   5.450   4.043 -0.0774  0.0710 -0.0056
   64MOL   H59741043   1.908   5.352   3.935  1.2068  0.1884 -0.4928
   64MOL   H59841044   1.641   5.495   3.906  3.4589  1.6114  1.0653
   64MOL   H59941045   1.648   5.322   3.923 -0.9884  1.0210  0.6337
   64MOL   H60041046   1.554   5.517   3.715  0.0313 -0.9565  0.7285
   64MOL   H60141047   1.478   5.438   3.486  0.1779  0.6135  0.6507
   64MOL   H60241048   1.609   5.330   3.489 -0.0491  0.0294 -0.0154
   64MOL   H60341049   1.775   5.532   3.482 -1.5865 -0.0101  4.2929
   64MOL   H60441050   1.674   5.508   3.345 -1.7373 -0.6981  0.2861
   64MOL   H60541051   1.584   5.708   3.554  2.9691  1.7087  0.8761
   64MOL   H60641052   1.524   5.677   3.400 -0.1886 -0.8289  0.0412
   64MOL   H60741053   1.736   5.745   3.277 -0.2864  1.2393 -0.3715
   64MOL   H60841054   1.807   5.792   3.439  0.4627  0.3344 -0.6088
   64MOL   H60941055   1.568   5.925   3.419 -1.3888 -0.9071 -3.2829
   64MOL   C61041056   1.707   6.018   3.304 -0.4293 -0.3203 -0.0381
   64MOL   O61141057   1.814   6.008   3.241  0.5791  0.0435  0.5597
   64MOL   C61241058   1.642   6.153   3.320 -1.0476  0.2810 -0.2209
   64MOL   C61341059   1.732   6.276   3.289  0.3243 -0.1978 -0.6061
   64MOL   C61441060   1.669   6.410   3.341  0.0349  0.3917  0.3875
   64MOL   C61541061   1.554   6.456   3.247 -0.2349 -0.2281 -0.3443
   64MOL   C61641062   1.496   6.589   3.289 -0.1660 -0.4574 -0.4089
   64MOL   O61741063   1.455   6.594   3.406  0.0063 -0.2769  0.4430
   64MOL   N61841064   1.515   6.696   3.203  0.1685 -0.7974 -0.2633
   64MOL   C61941065   1.468   6.831   3.233  0.9227 -0.2692 -0.3983
   64MOL   C62041066   1.347   6.868   3.143  0.2935  0.4671  0.2013
   64MOL   C62141067   1.220   6.784   3.175 -0.7218 -0.3384  0.2197
   64MOL   C62241068   1.115   6.817   3.069 -0.5154  0.2495  0.7182
   64MOL   N62341069   1.159   6.783   2.932 -0.2472  0.4487 -0.0482
   64MOL   H62441070   1.552   6.165   3.259 -0.3591  0.5388 -1.2012
   64MOL   H62541071   1.611   6.165   3.424 -1.3734  1.8386 -0.4785
   64MOL   H62641072   1.833   6.262   3.326  0.1736 -1.9838 -0.8142
   64MOL   H62741073   1.745   6.276   3.181  0.9141 -0.8451 -0.5370
   64MOL   H62841074   1.753   6.480   3.338  0.8849 -0.6588 -0.7182
   64MOL   H62941075   1.641   6.403   3.446 -1.6334 -1.8278 -0.1653
   64MOL   H63041076   1.479   6.378   3.242 -0.8523  0.0714  2.9233
   64MOL   H63141077   1.597   6.462   3.147  0.0517  2.3275 -0.1091
   64MOL   H63241078   1.571   6.689   3.119  0.0459  1.6140 -0.5916
   64MOL   H63341079   1.550   6.902   3.232 -0.6141  1.5410 -0.4941
   64MOL   H63441080   1.427   6.824   3.334 -0.7594 -1.4333 -1.1359
   64MOL   H63541081   1.320   6.973   3.157  0.2889  0.2786  1.7632
   64MOL   H63641082   1.377   6.848   3.040  1.0062  0.0097  0.4886
   64MOL   H63741083   1.169   6.819   3.265 -1.8277  1.0799 -0.9297
   64MOL   H63841084   1.239   6.677   3.181  1.4784  0.0331  0.3141
   64MOL   H63941085   1.093   6.923   3.085  1.5884  0.8097  0.1288
   64MOL   H64041086   1.024   6.761   3.092 -1.7727  0.7708 -2.7406
   64MOL   H64141087   1.153   6.684   2.914  0.1483  0.6001 -1.0895
   64MOL   H64241088   1.250   6.823   2.912 -0.1378  1.0078  1.4577
   65MOL     C141089   5.292   5.078   3.620 -0.4076 -0.6097 -0.4831
   65MOL     O241090   5.250   5.025   3.723 -0.0333  0.3194  0.8323
   65MOL     C341091   5.297   4.990   3.499 -0.2159 -0.3144  0.1691
   65MOL     C441092   5.193   5.046   3.395  0.2344 -0.3830 -0.6472
   65MOL     C541093   5.160   4.952   3.273  0.4803  0.4227 -0.2621
   65MOL     C641094   5.099   5.027   3.149  0.1507 -0.3674  0.1686
   65MOL     C741095   5.187   5.132   3.087  0.1569 -0.7120 -0.6207
   65MOL     O841096   5.306   5.108   3.055 -0.6751  0.9562 -0.6360
   65MOL     N941097   5.123   5.245   3.064  0.2717  0.0261 -0.3422
   65MOL    C1041098   5.185   5.359   2.994 -1.3006 -0.7954 -0.4403
   65MOL    C1141099   5.252   5.452   3.088 -0.4524  0.5522  0.0191
   65MOL    C1241100   5.295   5.587   3.028  0.3587 -0.8146  0.4796
   65MOL    C1341101   5.307   5.704   3.135 -0.2644 -0.0962  0.3869
   65MOL    N1441102   5.331   5.834   3.071 -0.4841  0.1663  0.2495
   65MOL    H1541103   5.401   4.998   3.465 -0.3291  1.7047  0.2410
   65MOL    H1641104   5.272   4.888   3.527 -0.4491 -0.9483 -2.2168
   65MOL    H1741105   5.094   5.067   3.437 -0.8942 -1.9585 -2.4074
   65MOL    H1841106   5.226   5.141   3.353 -0.3969 -0.4749 -1.3781
   65MOL    H1941107   5.104   4.869   3.315  0.1793 -0.0858 -1.6487
   65MOL    H2041108   5.250   4.903   3.236  0.2918 -1.9815  2.2443
   65MOL    H2141109   5.001   5.071   3.164  0.8408  1.6635 -1.0332
   65MOL    H2241110   5.092   4.956   3.066 -0.5698 -0.8332  0.6276
   65MOL    H2341111   5.027   5.256   3.092  0.3471  1.9858 -0.8320
   65MOL    H2441112   5.102   5.416   2.954  0.0618  1.0966 -0.6680
   65MOL    H2541113   5.253   5.331   2.914 -0.2253  0.9564 -0.1685
   65MOL    H2641114   5.173   5.479   3.158  0.9969  1.1149  1.4651
   65MOL    H2741115   5.340   5.407   3.135 -0.1234 -0.5898 -1.6443
   65MOL    H2841116   5.210   5.620   2.969  1.7696  0.9459 -0.5943
   65MOL    H2941117   5.392   5.581   2.978 -0.4610 -1.7248 -1.0187
   65MOL    H3041118   5.395   5.673   3.191 -0.2208  0.0999  0.4239
   65MOL    H3141119   5.216   5.711   3.195  0.1238  2.4091  0.7103
   65MOL    H3241120   5.423   5.848   3.033 -0.4823 -1.8394 -0.5437
   65MOL    H3341121   5.324   5.181   3.609  0.3949 -0.7936  0.0349
   65MOL    C3441122   5.265   5.947   3.084  0.5735  0.2779 -0.3656
   65MOL    O3541123   5.157   5.948   3.141 -0.7305 -0.0100  0.1720
   65MOL    C3641124   5.327   6.079   3.033  0.3531 -0.3194 -0.1865
   65MOL    C3741125   5.389   6.166   3.144 -0.0363  0.0003 -0.0785
   65MOL    C3841126   5.428   6.312   3.112  0.4126  0.3628 -0.7661
   65MOL    C3941127   5.511   6.374   3.224  0.5770  0.0476 -0.5076
   65MOL    C4041128   5.659   6.342   3.217  0.0811 -0.1266  0.4483
   65MOL    O4141129   5.727   6.386   3.127 -0.2498  0.2949 -0.1844
   65MOL    N4241130   5.697   6.264   3.317  0.1350  0.1614  0.2157
   65MOL    C4341131   5.829   6.201   3.323  0.0801  0.0845  0.0606
   65MOL    C4441132   5.919   6.302   3.403  0.1487 -0.5761  0.0997
   65MOL    C4541133   6.054   6.241   3.427 -0.6241 -0.7647  0.2574
   65MOL    C4641134   6.139   6.226   3.291 -0.1610  0.0681  0.2867
   65MOL    N4741135   6.278   6.216   3.326 -0.1759 -0.0479  0.1524
   65MOL    H4841136   5.385   6.058   2.943  0.6779  0.1394 -0.0841
   65MOL    H4941137   5.237   6.118   2.984 -0.9762  0.8500  3.0175
   65MOL    H5041138   5.335   6.173   3.239 -0.3784 -0.8324 -0.2057
   65MOL    H5141139   5.492   6.137   3.165  0.5182  1.1445 -1.1147
   65MOL    H5241140   5.346   6.378   3.083  0.3178  0.2023 -0.8631
   65MOL    H5341141   5.499   6.312   3.029 -0.8946 -0.1869 -1.9132
   65MOL    H5441142   5.462   6.348   3.318 -0.6834 -1.0492 -1.4526
   65MOL    H5541143   5.513   6.483   3.231  0.0469 -0.0817  1.9810
   65MOL    H5641144   5.627   6.232   3.382  2.6655 -1.7407  2.1205
   65MOL    H5741145   5.869   6.191   3.222  0.2884  0.2182  0.1303
   65MOL    H5841146   5.830   6.097   3.357  1.6191  0.0864  0.0652
   65MOL    H5941147   5.932   6.398   3.352  1.2970 -1.4457 -1.2967
   65MOL    H6041148   5.868   6.316   3.498  0.6299 -1.3464  0.4746
   65MOL    H6141149   6.044   6.145   3.477 -0.3209 -0.3563  1.1114
   65MOL    H6241150   6.093   6.326   3.484 -3.0171  0.1516  0.6182
   65MOL    H6341151   6.117   6.310   3.226  1.0682 -0.2720 -0.5960
   65MOL    H6441152   6.099   6.146   3.228  1.9975 -0.6703 -0.2176
   65MOL    H6541153   6.313   6.277   3.399 -0.5179  0.3591 -0.0213
   65MOL    C6641154   6.355   6.109   3.302  0.1487  0.1113 -0.0410
   65MOL    O6741155   6.321   6.017   3.224 -0.3496 -0.4479  0.4982
   65MOL    C6841156   6.488   6.092   3.372 -0.4503  0.3141  0.0748
   65MOL    C6941157   6.612   6.095   3.280  0.3299 -0.4824 -0.2614
   65MOL    C7041158   6.661   6.233   3.227  0.5864 -0.2990  0.3185
   65MOL    C7141159   6.578   6.311   3.132  0.1379  0.1803 -0.0140
   65MOL    C7241160   6.607   6.290   2.982  0.1496  0.0311  0.1421
   65MOL    O7341161   6.686   6.210   2.938  0.1715  0.6029  0.1648
   65MOL    N7441162   6.529   6.359   2.903  0.0187 -0.1249  0.3918
   65MOL    C7541163   6.539   6.365   2.758 -0.4319  0.3227  1.0532
   65MOL    C7641164   6.499   6.236   2.686 -0.4471 -0.3854 -0.1783
   65MOL    C7741165   6.486   6.246   2.533  0.0030  0.0034 -0.5372
   65MOL    C7841166   6.432   6.123   2.455  0.0217 -0.8265 -0.2669
   65MOL    N7941167   6.303   6.077   2.515 -0.0910 -0.4701  0.1607
   65MOL    H8041168   6.498   6.157   3.459  0.9929  1.9460 -1.2651
   65MOL    H8141169   6.486   6.001   3.432 -1.5612  1.3006  1.5725
   65MOL    H8241170   6.684   6.036   3.337 -0.0040 -1.5968 -0.9887
   65MOL    H8341171   6.593   6.021   3.202  3.3855 -0.9330 -0.6621
   65MOL    H8441172   6.763   6.221   3.190 -0.4311  1.5461 -3.1815
   65MOL    H8541173   6.676   6.284   3.322 -0.1066  0.4916  0.0002
   65MOL    H8641174   6.585   6.416   3.160 -0.7915  0.4430 -0.7292
   65MOL    H8741175   6.470   6.296   3.137  0.0879 -0.1241 -1.7694
   65MOL    H8841176   6.459   6.417   2.946  0.2908  0.7677 -0.3273
   65MOL    H8941177   6.642   6.389   2.731 -0.4609 -1.6843 -0.9725
   65MOL    H9041178   6.470   6.442   2.722 -0.3069  0.5706  1.3405
   65MOL    H9141179   6.570   6.158   2.712  1.6489  1.5343  0.0758
   65MOL    H9241180   6.400   6.212   2.726 -0.7903  1.5636  0.1931
   65MOL    H9341181   6.586   6.274   2.497 -0.4270  3.2859  0.6455
   65MOL    H9441182   6.432   6.339   2.517 -0.1105  0.0887  0.3495
   65MOL    H9541183   6.503   6.040   2.447  0.1041 -0.6341 -1.7893
   65MOL    H9641184   6.417   6.154   2.351 -1.0653  0.4483  0.2536
   65MOL    H9741185   6.229   6.146   2.529  0.7670  0.2223  1.4497
   65MOL    C9841186   6.263   5.954   2.534 -0.4804  0.2194  0.2812
   65MOL    O9941187   6.324   5.852   2.494 -0.5171 -0.1836 -0.2331
   65MOL   C10041188   6.141   5.935   2.617 -0.5136 -0.7737 -0.0136
   65MOL   C10141189   6.163   5.941   2.763  0.0685  0.1570  0.4127
   65MOL   C10241190   6.252   5.825   2.815  0.2279 -0.1388 -0.1132
   65MOL   C10341191   6.274   5.823   2.973 -0.2239 -0.0800 -0.3218
   65MOL   C10441192   6.144   5.784   3.046 -0.2940 -0.1675 -0.6105
   65MOL   O10541193   6.049   5.744   2.985 -0.0606 -0.2248 -0.3876
   65MOL   N10641194   6.149   5.790   3.181 -0.3017  0.1262  0.8166
   65MOL   C10741195   6.057   5.718   3.268 -0.0224 -0.3193  0.4290
   65MOL   C10841196   6.006   5.793   3.382 -0.3630 -0.6143 -0.6409
   65MOL   C10941197   5.909   5.702   3.464 -0.2259 -0.6727  0.5585
   65MOL   C11041198   5.979   5.588   3.532  0.4370  0.4259  0.1956
   65MOL   N11141199   5.890   5.517   3.624  0.2449 -0.2015  0.3516
   65MOL   H11241200   6.074   6.008   2.573  0.9679  1.2402  1.0229
   65MOL   H11341201   6.091   5.842   2.590  0.1492 -0.7661 -1.3260
   65MOL   H11441202   6.214   6.034   2.788 -2.1118  1.3299  0.7129
   65MOL   H11541203   6.063   5.928   2.804  0.4621 -1.8739  0.7637
   65MOL   H11641204   6.342   5.839   2.754 -0.7721  2.5317 -1.0448
   65MOL   H11741205   6.204   5.734   2.779  1.4367  0.0541 -2.3704
   65MOL   H11841206   6.299   5.926   3.000 -0.5029  0.1636 -0.9637
   65MOL   H11941207   6.358   5.756   2.991  0.0879  0.2872 -0.3888
   65MOL   H12041208   6.226   5.837   3.225  1.6748 -2.2223 -0.0038
   65MOL   H12141209   6.102   5.622   3.291  0.3480 -0.1316  0.4893
   65MOL   H12241210   5.973   5.689   3.205 -0.4673  2.1779 -0.1800
   65MOL   H12341211   6.086   5.837   3.441 -0.2739  0.2817 -1.4123
   65MOL   H12441212   5.943   5.880   3.360  0.5978  0.1819 -0.2922
   65MOL   H12541213   5.825   5.670   3.402  0.4946 -0.1521 -0.7076
   65MOL   H12641214   5.858   5.768   3.534  1.7023  1.3630  0.0719
   65MOL   H12741215   6.062   5.633   3.589  1.3965  0.0501 -0.8877
   65MOL   H12841216   6.027   5.511   3.472 -0.7576  1.5314 -2.2150
   65MOL   H12941217   5.794   5.503   3.595  0.2240 -1.4662  1.0129
   65MOL   C13041218   5.914   5.473   3.748 -0.6519 -0.1910  0.4096
   65MOL   O13141219   6.018   5.503   3.808 -0.2661 -0.4711 -0.1032
   65MOL   C13241220   5.808   5.376   3.805  0.6304 -0.5126  0.2715
   65MOL   C13341221   5.695   5.315   3.720 -0.2267 -0.1313 -0.5263
   65MOL   C13441222   5.747   5.218   3.607  0.0529  0.1126 -0.3585
   65MOL   C13541223   5.631   5.186   3.512  0.5906  0.1787 -0.4251
   65MOL   C13641224   5.609   5.292   3.400 -0.7045 -0.0888 -0.2898
   65MOL   O13741225   5.508   5.364   3.409  0.0196 -0.1919  0.9876
   65MOL   N13841226   5.705   5.306   3.312 -0.0065  0.1341  0.3896
   65MOL   C13941227   5.706   5.398   3.193 -0.3037  0.5468  0.1781
   65MOL   C14041228   5.723   5.324   3.064 -0.4213 -0.0515 -0.0553
   65MOL   C14141229   5.602   5.243   3.021 -0.2824 -0.3575 -0.9471
   65MOL   C14241230   5.634   5.144   2.902 -0.3684  0.0185  0.1563
   65MOL   N14341231   5.525   5.046   2.891  0.0755  0.4791 -1.1577
   65MOL   H14441232   5.855   5.295   3.861  0.0741  0.1144  1.6606
   65MOL   H14541233   5.762   5.441   3.880  1.0056 -0.0569  0.1074
   65MOL   H14641234   5.638   5.245   3.781  0.6517  0.2007  0.6994
   65MOL   H14741235   5.624   5.386   3.678 -0.0293  1.3407  1.5618
   65MOL   H14841236   5.794   5.125   3.640  0.6704  0.7744  0.6301
   65MOL   H14941237   5.822   5.275   3.551 -0.5030  1.9777  0.7652
   65MOL   H15041238   5.542   5.182   3.575  0.4915 -1.7320 -0.6565
   65MOL   H15141239   5.629   5.089   3.464 -2.6171 -0.0988  0.1777
   65MOL   H15241240   5.759   5.221   3.303 -1.5443 -0.7809 -0.4426
   65MOL   H15341241   5.789   5.468   3.206 -0.9452  1.2154  0.6821
   65MOL   H15441242   5.615   5.458   3.191  0.0750  1.1425  0.4901
   65MOL   H15541243   5.733   5.395   2.981  0.7373  0.0942  0.2036
   65MOL   H15641244   5.817   5.269   3.063  1.5447  3.1718 -0.4760
   65MOL   H15741245   5.509   5.294   2.995 -0.7464  0.2495  1.7390
   65MOL   H15841246   5.572   5.183   3.107 -0.0613 -0.2574 -0.8021
   65MOL   H15941247   5.720   5.084   2.930 -1.2735 -0.8932  1.0795
   65MOL   H16041248   5.662   5.187   2.806 -1.7676  0.4495 -0.0692
   65MOL   H16141249   5.451   5.049   2.960  0.5419  2.0065 -0.7135
   65MOL   C16241250   5.502   4.976   2.782  0.8552 -0.3547 -0.2810
   65MOL   O16341251   5.578   4.975   2.686  0.2125 -1.0722  0.5186
   65MOL   C16441252   5.390   4.867   2.797 -0.2359 -0.7032  0.4366
   65MOL   C16541253   5.286   4.905   2.689 -0.0611  0.6081  0.1778
   65MOL   C16641254   5.174   4.800   2.697 -0.1357  0.2543 -0.0541
   65MOL   C16741255   5.040   4.856   2.646 -0.4563 -0.0533 -0.3820
   65MOL   C16841256   4.955   4.902   2.768  0.2345  0.1763  0.3066
   65MOL   O16941257   4.983   4.997   2.838  0.5810 -0.4501  0.3033
   65MOL   N17041258   4.840   4.836   2.787  0.2852 -0.1998 -0.3124
   65MOL   C17141259   4.725   4.851   2.876  0.5092 -0.0399  0.0426
   65MOL   C17241260   4.591   4.881   2.793 -0.2054  0.2866  0.1186
   65MOL   C17341261   4.592   5.010   2.705  0.1025 -0.1784 -0.3763
   65MOL   C17441262   4.453   5.040   2.639 -0.1852  0.9945 -0.6962
   65MOL   N17541263   4.444   5.168   2.567 -0.1787  0.4244 -0.3705
   65MOL   H17641264   5.426   4.765   2.788  1.1128 -0.2730  0.8500
   65MOL   H17741265   5.356   4.866   2.901 -0.9365 -1.9025  0.2052
   65MOL   H17841266   5.253   5.006   2.711 -1.3683 -0.2044  2.0089
   65MOL   H17941267   5.333   4.905   2.590  0.6332  0.6340  0.5073
   65MOL   H18041268   5.157   4.782   2.803 -1.3795  3.0670  0.2483
   65MOL   H18141269   5.208   4.705   2.655  1.7946  0.7063  0.4182
   65MOL   H18241270   4.989   4.787   2.580  1.2049 -0.7920 -0.9286
   65MOL   H18341271   5.060   4.944   2.584  0.6728 -2.2321 -3.2362
   65MOL   H18441272   4.814   4.768   2.717  1.3437  2.1324 -3.0557
   65MOL   H18541273   4.743   4.939   2.938  2.7994 -1.1437  1.0048
   65MOL   H18641274   4.725   4.758   2.933 -1.0088 -0.2772 -0.3168
   65MOL   H18741275   4.594   4.801   2.719  1.0286 -0.1443  0.6174
   65MOL   H18841276   4.504   4.874   2.858 -1.3225 -1.1792 -1.4831
   65MOL   H18941277   4.666   5.008   2.624  1.0930 -0.2531  0.5203
   65MOL   H19041278   4.609   5.102   2.762  0.5484 -1.0374  0.8952
   65MOL   H19141279   4.368   5.029   2.707  1.9937  2.0089  2.3165
   65MOL   H19241280   4.430   4.961   2.568  0.3634  1.0855 -0.9755
   65MOL   H19341281   4.533   5.205   2.536  0.8078  0.1484  2.0585
   65MOL   C19441282   4.337   5.248   2.570  0.2704  0.0416 -0.2405
   65MOL   O19541283   4.227   5.216   2.615 -0.0137 -0.0419 -0.0762
   65MOL   C19641284   4.352   5.386   2.495  0.6907  0.7314  0.1618
   65MOL   C19741285   4.225   5.469   2.476 -0.1072 -1.3606  0.8216
   65MOL   C19841286   4.141   5.408   2.363  0.7146  0.4465  0.4897
   65MOL   C19941287   4.005   5.479   2.359 -0.4894  0.0618  0.1653
   65MOL   C20041288   4.008   5.625   2.312  0.3659  0.7173 -1.0237
   65MOL   O20141289   4.070   5.659   2.210  0.6445 -0.3788 -0.2662
   65MOL   N20241290   3.942   5.720   2.383  0.5983 -0.4233 -0.6366
   65MOL   C20341291   3.901   5.855   2.343 -0.5177 -0.6522  0.2529
   65MOL   C20441292   3.986   5.955   2.427  0.4607 -0.0239 -0.2425
   65MOL   C20541293   4.135   5.937   2.413 -0.3493 -0.0674  0.0364
   65MOL   C20641294   4.214   6.011   2.521 -0.0613 -0.0229  0.0054
   65MOL   N20741295   4.352   6.021   2.494 -0.1140  0.7696 -0.5810
   65MOL   H20841296   4.427   5.445   2.548  3.2357  0.6294 -3.1551
   65MOL   H20941297   4.402   5.371   2.400 -0.6045 -2.0010 -0.1160
   65MOL   H21041298   4.166   5.469   2.567 -0.2546 -2.8484  0.7439
   65MOL   H21141299   4.240   5.575   2.456 -2.4653 -0.9842  0.9075
   65MOL   H21241300   4.113   5.305   2.383  1.5780  0.4522  1.8307
   65MOL   H21341301   4.206   5.421   2.276 -1.9862 -0.4004 -1.7064
   65MOL   H21441302   3.959   5.476   2.458 -2.0298  1.0331 -0.4993
   65MOL   H21541303   3.942   5.420   2.293  0.1211  0.0407 -0.3974
   65MOL   H21641304   3.907   5.692   2.474 -0.3576  0.0925 -0.8357
   65MOL   H21741305   3.795   5.862   2.368 -0.5763  2.2345 -0.5636
   65MOL   H21841306   3.911   5.881   2.238  0.9944 -1.2929  0.2344
   65MOL   H21941307   3.958   6.056   2.395  0.6342  0.6099  1.5328
   65MOL   H22041308   3.955   5.940   2.530  0.6157  0.1084 -0.1753
   65MOL   H22141309   4.159   5.969   2.311  0.7045 -2.9785 -0.6788
   65MOL   H22241310   4.161   5.831   2.421  1.8247  0.3323 -1.2851
   65MOL   H22341311   4.197   5.961   2.617  1.9484  3.2407  2.1611
   65MOL   H22441312   4.185   6.115   2.530 -0.3621 -0.0489 -0.6608
   65MOL   H22541313   4.384   5.986   2.404 -0.8035 -0.2554 -0.4488
   65MOL   C22641314   4.441   6.081   2.578  0.0598  0.2584 -0.4956
   65MOL   O22741315   4.418   6.122   2.690 -0.2665 -0.0659  0.1065
   65MOL   C22841316   4.582   6.118   2.517  0.1624  0.4555  0.3503
   65MOL   C22941317   4.617   6.267   2.518 -0.3712 -0.6794 -0.5441
   65MOL   C23041318   4.728   6.310   2.425 -0.3041 -0.6270  0.2508
   65MOL   C23141319   4.864   6.262   2.465 -0.7101 -0.4756  0.0623
   65MOL   C23241320   4.912   6.308   2.603  0.3282  0.4559  0.4036
   65MOL   O23341321   4.943   6.420   2.620  0.2399  0.0770  0.2458
   65MOL   N23441322   4.928   6.210   2.698 -0.1591 -0.0422  0.4174
   65MOL   C23541323   4.996   6.229   2.826 -0.0778 -0.1173 -0.0032
   65MOL   C23641324   4.901   6.235   2.945 -0.6311 -0.2501  0.5197
   65MOL   C23741325   4.968   6.301   3.070  0.1688 -0.3505 -0.4301
   65MOL   C23841326   4.872   6.270   3.195 -0.1132  0.0612  0.1893
   65MOL   N23941327   4.952   6.303   3.314 -0.1434 -0.4187  0.3654
   65MOL   H24041328   4.657   6.063   2.575 -1.3985  0.1262  2.0886
   65MOL   H24141329   4.573   6.091   2.412  2.8607  0.2171  0.1310
   65MOL   H24241330   4.531   6.325   2.486 -0.4280 -1.8631 -2.6336
   65MOL   H24341331   4.640   6.311   2.615  0.8045  0.5596 -1.3564
   65MOL   H24441332   4.740   6.419   2.432  0.8586 -0.8415  1.7457
   65MOL   H24541333   4.699   6.272   2.327 -0.7707  0.0309  0.1265
   65MOL   H24641334   4.930   6.299   2.386  0.5877  1.1584  1.8518
   65MOL   H24741335   4.875   6.155   2.476 -0.3665 -0.3043  1.4336
   65MOL   H24841336   4.917   6.115   2.667  0.4093  0.1779 -0.4841
   65MOL   H24941337   5.073   6.306   2.822  1.3676 -1.6447 -2.1283
   65MOL   H25041338   5.065   6.146   2.830 -1.0710 -0.8856  3.9359
   65MOL   H25141339   4.811   6.293   2.921  0.0451  0.8219  0.5498
   65MOL   H25241340   4.861   6.136   2.964 -1.3470 -0.3335 -1.3432
   65MOL   H25341341   4.968   6.410   3.070 -1.1975 -0.3390 -1.2240
   65MOL   H25441342   5.067   6.260   3.088 -0.2576 -2.4350 -2.5972
   65MOL   H25541343   4.830   6.169   3.197  1.6268 -0.6985 -0.6041
   65MOL   H25641344   4.793   6.345   3.203  0.3601  0.5981 -0.1330
   65MOL   H25741345   4.980   6.218   3.359 -0.4360  0.4546  2.2524
   65MOL   C25841346   4.977   6.424   3.375  0.4983 -0.1825  0.2905
   65MOL   O25941347   4.944   6.529   3.328  0.0409  0.0806  0.0411
   65MOL   C26041348   5.065   6.416   3.502 -0.0621  0.8167 -0.5447
   65MOL   C26141349   5.215   6.424   3.479 -0.2187 -0.1900  0.6384
   65MOL   C26241350   5.286   6.559   3.517  0.7758 -0.1229 -0.7287
   65MOL   C26341351   5.215   6.683   3.438  0.3162  0.4881 -0.8005
   65MOL   C26441352   5.266   6.684   3.292  0.1141 -0.3874 -0.2276
   65MOL   O26541353   5.384   6.721   3.275 -0.0808 -0.1577 -0.0628
   65MOL   N26641354   5.182   6.639   3.200  0.2844  0.0549  0.5930
   65MOL   C26741355   5.217   6.628   3.056 -0.5905  0.4453  0.3398
   65MOL   C26841356   5.202   6.769   2.992  0.2484  0.0089 -0.2942
   65MOL   C26941357   5.216   6.764   2.835  0.3223  0.0530  0.1190
   65MOL   C27041358   5.205   6.895   2.760 -0.6880  0.0532 -0.9447
   65MOL   N27141359   5.081   6.956   2.806 -0.0243  0.4294 -0.2411
   65MOL   H27241360   5.031   6.499   3.564  0.8506  1.5262 -0.9691
   65MOL   H27341361   5.047   6.329   3.564 -1.4620  1.8047  0.4552
   65MOL   H27441362   5.270   6.341   3.523  1.4064  1.0077  0.9035
   65MOL   H27541363   5.234   6.406   3.373  0.3140  0.8387  0.5601
   65MOL   H27641364   5.390   6.561   3.486  1.2891  1.7347  1.0368
   65MOL   H27741365   5.277   6.567   3.625  2.6616 -2.1499 -0.3730
   65MOL   H27841366   5.242   6.771   3.497  0.4401 -0.5149  0.6812
   65MOL   H27941367   5.107   6.671   3.445  0.5061 -0.1009  1.8470
   65MOL   H28041368   5.096   6.597   3.233  0.0622 -0.7476 -0.9365
   65MOL   H28141369   5.136   6.561   3.027 -1.8137  2.3903 -0.7677
   65MOL   H28241370   5.319   6.590   3.043 -0.0240  1.7290  0.9646
   65MOL   H28341371   5.108   6.822   3.011  0.4720  0.8613 -1.4517
   65MOL   H28441372   5.287   6.828   3.027  1.2766 -2.0367  0.7409
   65MOL   H28541373   5.137   6.700   2.796  0.7460 -0.3430 -0.0910
   65MOL   H28641374   5.316   6.725   2.816 -0.2928 -1.7246  0.3564
   65MOL   H28741375   5.189   6.869   2.655  1.2395  1.6919 -1.6765
   65MOL   H28841376   5.295   6.957   2.765 -1.1357  0.6996 -0.8192
   65MOL   H28941377   4.993   6.906   2.811 -0.1654  0.6003 -1.0278
   65MOL   C29041378   5.058   7.091   2.804  0.0921  0.3528 -0.0952
   65MOL   O29141379   5.147   7.166   2.761 -0.6099 -0.2447 -0.4817
   65MOL   C29241380   4.915   7.143   2.833  0.0439  0.0415  0.8953
   65MOL   C29341381   4.904   7.289   2.873 -0.5833  0.3543 -0.1671
   65MOL   C29441382   4.895   7.366   2.744  0.2142 -0.0545 -0.7712
   65MOL   C29541383   4.902   7.516   2.753  0.3287 -0.1773  0.3611
   65MOL   C29641384   4.827   7.593   2.651 -0.0868  0.1474  0.1262
   65MOL   O29741385   4.789   7.537   2.548 -0.3084 -1.1450  0.6026
   65MOL   N29841386   4.798   0.023   2.682 -0.5144 -0.0478  0.3059
   65MOL   C29941387   4.724   0.114   2.587  0.4554  0.6373  0.0957
   65MOL   C30041388   4.685   0.239   2.670 -0.4009 -0.0635 -0.5522
   65MOL   C30141389   4.585   0.210   2.783  0.1794 -0.2708 -1.0234
   65MOL   C30241390   4.523   0.333   2.827  0.0169 -0.0834 -0.2580
   65MOL   N30341391   4.443   0.309   2.948  0.3453  0.2235 -0.0929
   65MOL   H30441392   4.857   7.125   2.743  0.4238  1.9037  0.2678
   65MOL   H30541393   4.882   7.073   2.910  3.2168 -1.9794  0.5117
   65MOL   H30641394   4.811   7.311   2.925  0.9752  1.0773  2.3840
   65MOL   H30741395   4.988   7.321   2.934  0.1978 -0.7773 -0.6202
   65MOL   H30841396   4.800   7.340   2.697  1.0648  0.4482 -2.8039
   65MOL   H30941397   4.975   7.332   2.679 -0.8661 -1.3075 -1.4725
   65MOL   H31041398   5.007   7.547   2.752 -0.1171  1.4076  0.8099
   65MOL   H31141399   4.856   7.545   2.848 -1.7520  1.9069 -1.2257
   65MOL   H31241400   4.832   0.066   2.767  0.8379 -1.9977  0.8019
   65MOL   H31341401   4.632   0.062   2.561  0.4612  0.6977 -0.0455
   65MOL   H31441402   4.791   0.131   2.502 -1.7873 -1.4720 -2.1987
   65MOL   H31541403   4.768   0.301   2.704 -1.2646  0.9927 -0.3451
   65MOL   H31641404   4.633   0.306   2.601  0.4683 -0.7301 -1.8649
   65MOL   H31741405   4.635   0.149   2.858  0.2513  0.4134 -0.5066
   65MOL   H31841406   4.514   0.142   2.737  0.2162  0.1854 -1.7612
   65MOL   H31941407   4.465   0.368   2.741 -0.3246 -0.7497 -0.2973
   65MOL   H32041408   4.597   0.411   2.841 -0.0705  0.0710 -0.6539
   65MOL   H32141409   4.435   0.219   2.992 -2.6777  0.1499 -0.6823
   65MOL   C32241410   4.371   0.406   3.002  0.4717 -0.1271 -0.4207
   65MOL   O32341411   4.364   0.519   2.961  0.7387  0.2374  0.1044
   65MOL   C32441412   4.285   0.369   3.120 -0.1376  0.0288 -0.0424
   65MOL   C32541413   4.304   0.462   3.238 -0.0439  0.3754 -0.0277
   65MOL   C32641414   4.421   0.424   3.336  0.1776 -0.2188  0.1397
   65MOL   C32741415   4.416   0.521   3.455  0.3097 -0.8273 -0.7362
   65MOL   C32841416   4.539   0.509   3.548 -0.4255 -0.6745 -0.1965
   65MOL   O32941417   4.620   0.602   3.562 -0.1710 -0.0978  0.3189
   65MOL   N33041418   4.556   0.395   3.611 -0.7231 -0.6333  0.2130
   65MOL   C33141419   4.667   0.360   3.698  0.0575  0.7186 -0.3572
   65MOL   C33241420   4.799   0.356   3.617 -0.0463  0.0025  0.3768
   65MOL   C33341421   4.898   0.257   3.677 -0.2703 -0.3292 -0.0986
   65MOL   C33441422   5.037   0.265   3.602  0.8389  0.3698 -0.3690
   65MOL   N33541423   5.138   0.178   3.670  0.2616 -0.0719 -0.3004
   65MOL   H33641424   4.183   0.362   3.082  1.1407 -1.8925 -3.2454
   65MOL   H33741425   4.307   0.266   3.147  2.4993  0.6404  0.3229
   65MOL   H33841426   4.316   0.564   3.201 -1.3869  0.6484  0.2789
   65MOL   H33941427   4.204   0.465   3.279 -0.3083  0.9078 -0.6967
   65MOL   H34041428   4.516   0.447   3.288  0.0616  0.4324  0.2212
   65MOL   H34141429   4.437   0.319   3.361  2.0294  0.2472  0.9860
   65MOL   H34241430   4.326   0.508   3.514 -0.0681  1.3728 -0.7623
   65MOL   H34341431   4.420   0.625   3.421  1.7557 -0.3692  0.7929
   65MOL   H34441432   4.485   0.323   3.603 -1.2858 -0.2349  1.6045
   65MOL   H34541433   4.656   0.268   3.756  2.7022  0.9001  0.5126
   65MOL   H34641434   4.674   0.432   3.780 -0.3262  1.2322 -0.7686
   65MOL   H34741435   4.780   0.323   3.515 -0.2340  0.8478  0.1331
   65MOL   H34841436   4.840   0.457   3.616  1.2444 -0.5237  0.0792
   65MOL   H34941437   4.850   0.159   3.671  0.0317 -0.5343  0.7524
   65MOL   H35041438   4.901   0.276   3.784  0.3622 -0.7037 -0.0452
   65MOL   H35141439   5.079   0.366   3.601  1.0222  0.2993 -2.2776
   65MOL   H35241440   5.026   0.237   3.497  1.2408 -0.9472 -0.0704
   65MOL   H35341441   5.121   0.134   3.759 -1.6578 -0.1557 -0.6855
   65MOL   C35441442   5.254   0.148   3.609  0.1284  0.6329  0.3372
   65MOL   O35541443   5.278   0.181   3.492  0.0337 -0.2285  0.1725
   65MOL   C35641444   5.357   0.060   3.680  0.3377  0.2511 -0.2534
   65MOL   C35741445   5.311   7.686   3.811  0.4913  0.2440  0.6980
   65MOL   C35841446   5.226   7.560   3.780 -0.4113  0.1953 -0.2887
   65MOL   C35941447   5.129   7.519   3.900  0.0119 -0.1274 -0.5396
   65MOL   C36041448   4.993   7.579   3.900  0.6895 -0.0648 -0.0249
   65MOL   O36141449   4.965   7.661   3.812  0.5057 -0.0434 -0.0151
   65MOL   N36241450   4.913   7.538   3.996 -0.2862 -0.1298  0.5762
   65MOL   C36341451   4.775   7.588   4.009 -0.5491 -0.1630  0.0133
   65MOL   C36441452   4.766   7.687   4.127  0.0746  0.4334 -0.5800
   65MOL   C36541453   4.642   0.070   4.111  0.3210 -0.4470 -0.0332
   65MOL   C36641454   4.666   0.181   4.011 -0.1593 -0.2836  0.0536
   65MOL   N36741455   4.543   0.247   3.973  0.4027  0.1143 -0.1291
   65MOL   H36841456   5.397   7.689   3.608 -0.8667  0.0879 -0.7825
   65MOL   H36941457   5.430   0.138   3.700 -0.9121  0.7114  2.6718
   65MOL   H37041458   5.399   7.658   3.869  0.5795 -2.1789 -0.5298
   65MOL   H37141459   5.250   0.055   3.868  1.4594 -0.6998  2.9217
   65MOL   H37241460   5.301   7.483   3.764 -0.3271  0.0989  0.5796
   65MOL   H37341461   5.163   7.567   3.691 -0.2703 -0.3866 -0.4390
   65MOL   H37441462   5.188   7.532   3.991  1.0966 -1.1570 -1.0708
   65MOL   H37541463   5.108   7.413   3.887 -0.5572  0.0994 -1.4722
   65MOL   H37641464   4.944   7.470   4.063  0.1057  1.3084  1.8646
   65MOL   H37741465   4.707   7.504   4.026  1.0871 -1.6820 -0.6782
   65MOL   H37841466   4.744   7.630   3.914  1.5141 -1.7966 -1.4397
   65MOL   H37941467   4.766   7.629   4.220 -1.2404 -0.3702 -1.0579
   65MOL   H38041468   4.853   0.051   4.129 -2.2718  3.7218 -1.6996
   65MOL   H38141469   4.614   0.108   4.209  1.0941  1.2928 -0.4584
   65MOL   H38241470   4.552   0.011   4.093  0.2403 -0.6461  1.0035
   65MOL   H38341471   4.711   0.148   3.918 -1.6216  2.3952 -1.6603
   65MOL   H38441472   4.736   0.253   4.053  1.0282 -1.0187 -0.6445
   65MOL   H38541473   4.465   0.193   3.937  1.4029 -1.7893  0.5159
   65MOL   C38641474   4.512   0.368   4.006  0.1107 -0.3199 -0.3527
   65MOL   O38741475   4.593   0.449   4.034  0.1610 -0.1751 -0.2394
   65MOL   C38841476   4.365   0.408   3.988  0.4138 -0.5684  0.1019
   65MOL   C38941477   4.329   0.502   4.101 -0.0317  0.2400 -0.2798
   65MOL   C39041478   4.178   0.523   4.131  0.8062  0.1752  0.2150
   65MOL   C39141479   4.145   0.658   4.200  0.3301  0.7795  0.0926
   65MOL   C39241480   4.144   0.782   4.104 -0.4302 -0.2807 -0.3120
   65MOL   O39341481   4.120   0.767   3.986  0.0395 -0.4671  0.6714
   65MOL   N39441482   4.175   0.897   4.165  0.2119  0.4615  0.6810
   65MOL   C39541483   4.216   1.016   4.098 -0.0870  0.6664 -0.6392
   65MOL   C39641484   4.199   1.133   4.198 -0.4396  0.4941 -0.3039
   65MOL   C39741485   4.272   1.259   4.147 -0.2159 -0.5931  0.1168
   65MOL   C39841486   4.217   1.382   4.218  0.6110 -0.0090 -0.5247
   65MOL   N39941487   4.270   1.503   4.151 -0.3774 -0.0681  0.0124
   65MOL   H40041488   4.341   0.458   3.894  0.8326  2.0550  1.3667
   65MOL   H40141489   4.306   0.316   3.999 -1.7298  0.7456 -0.1897
   65MOL   H40241490   4.385   0.479   4.192  0.4260  0.7318 -0.4359
   65MOL   H40341491   4.375   0.598   4.078 -2.9375  2.0034  0.9365
   65MOL   H40441492   4.140   0.448   4.200 -1.7213  0.8202 -0.4072
   65MOL   H40541493   4.115   0.505   4.044 -4.3933  0.0230  3.7699
   65MOL   H40641494   4.220   0.678   4.276  0.0414  1.6703  0.1457
   65MOL   H40741495   4.044   0.670   4.238 -0.2795  1.1772 -1.5975
   65MOL   H40841496   4.201   0.901   4.263 -0.9889 -0.0427  1.0230
   65MOL   H40941497   4.146   1.031   4.015 -0.6260 -1.8334 -0.6763
   65MOL   H41041498   4.315   0.993   4.059 -0.3425 -1.4033 -0.1595
   65MOL   H41141499   4.094   1.154   4.217 -0.9509 -0.8081 -1.6210
   65MOL   H41241500   4.240   1.110   4.296  0.1825  1.4817 -0.3318
   65MOL   H41341501   4.265   1.266   4.038 -0.6569  0.9778  0.2336
   65MOL   H41441502   4.380   1.257   4.161  0.1072 -0.0080 -2.0565
   65MOL   H41541503   4.266   1.383   4.315  1.4896  1.8008 -0.9602
   65MOL   H41641504   4.109   1.393   4.230  0.5359  0.1750 -1.3404
   65MOL   H41741505   4.337   1.490   4.077  1.5589 -1.4839  1.9585
   65MOL   C41841506   4.224   1.626   4.180  0.9418 -0.2840 -0.2999
   65MOL   O41941507   4.148   1.641   4.276  0.4374  0.0400 -0.1377
   65MOL   C42041508   4.270   1.742   4.086  0.5385 -0.1127  0.4573
   65MOL   C42141509   4.256   1.888   4.145  0.2351 -0.4445  0.4589
   65MOL   C42241510   4.372   1.946   4.226  0.3548 -0.0073 -0.5997
   65MOL   C42341511   4.365   1.881   4.373 -0.1237 -0.5247 -0.1968
   65MOL   C42441512   4.259   1.942   4.459  0.8779  0.1384  0.0078
   65MOL   O42541513   4.284   2.030   4.538  0.1940  0.2809 -0.1123
   65MOL   N42641514   4.138   1.881   4.452 -0.2987 -0.0995 -0.6193
   65MOL   C42741515   4.014   1.936   4.501 -0.0177 -0.2548 -0.0763
   65MOL   C42841516   3.894   1.898   4.414 -0.7317  0.6550  0.3714
   65MOL   C42941517   3.762   1.933   4.476  0.6093  0.0617 -0.3452
   65MOL   C43041518   3.644   1.946   4.375 -0.4423  0.9282  0.9074
   65MOL   N43141519   3.673   2.058   4.287 -0.4323  0.2425  0.2015
   65MOL   H43241520   4.376   1.727   4.066  0.4168  1.6351 -1.6256
   65MOL   H43341521   4.220   1.737   3.989 -0.0653  0.9036  0.7023
   65MOL   H43441522   4.246   1.951   4.057 -1.0678 -1.8710 -0.4249
   65MOL   H43541523   4.156   1.893   4.189 -0.4775  0.8962 -1.2621
   65MOL   H43641524   4.371   2.054   4.217 -0.5321  0.0802  0.3912
   65MOL   H43741525   4.469   1.919   4.185 -0.5991 -2.3918 -1.3753
   65MOL   H43841526   4.460   1.897   4.425  0.6762 -3.0050 -0.8522
   65MOL   H43941527   4.369   1.773   4.369  0.6491 -0.6235  2.1679
   65MOL   H44041528   4.138   1.796   4.398 -1.5388  0.4202 -1.4507
   65MOL   H44141529   4.017   2.045   4.511 -1.4141 -0.2556  0.5412
   65MOL   H44241530   3.984   1.892   4.596 -1.9330  1.3914  0.1359
   65MOL   H44341531   3.902   1.949   4.318 -2.8821 -0.7402 -0.5952
   65MOL   H44441532   3.908   1.796   4.379  0.7797  1.5295 -1.6800
   65MOL   H44541533   3.786   2.025   4.528 -0.8025  1.4069 -2.0252
   65MOL   H44641534   3.741   1.867   4.561  0.9646  1.5665  0.9298
   65MOL   H44741535   3.547   1.961   4.422 -0.9855  0.6398 -0.1086
   65MOL   H44841536   3.644   1.849   4.325  0.1577 -0.0183  2.7184
   65MOL   H44941537   3.755   2.116   4.296 -0.4919  0.5417 -1.1389
   65MOL   C45041538   3.585   2.090   4.191  0.0744  0.0717  0.0874
   65MOL   O45141539   3.486   2.023   4.168  0.5590 -0.1332 -0.1406
   65MOL   C45241540   3.609   2.218   4.099 -0.0402  0.8031 -0.1226
   65MOL   C45341541   3.486   2.233   4.004 -0.0068 -0.5609  0.1018
   65MOL   C45441542   3.382   2.324   4.082  0.3144 -0.4689 -0.0794
   65MOL   C45541543   3.259   2.354   4.000  0.0443  0.3947 -0.1511
   65MOL   C45641544   3.273   2.441   3.878 -0.0342 -0.7107 -0.5970
   65MOL   O45741545   3.319   2.557   3.876  0.1211 -0.5967 -0.2898
   65MOL   N45841546   3.235   2.384   3.760  0.5401 -0.0729  0.3426
   65MOL   C45941547   3.255   2.439   3.631 -0.2756  0.3732 -0.3472
   65MOL   C46041548   3.394   2.438   3.585  0.1502  0.8010  0.0792
   65MOL   C46141549   3.453   2.292   3.575 -0.2457  0.2367 -0.1603
   65MOL   C46241550   3.582   2.294   3.493 -0.3766  0.0158 -0.1537
   65MOL   N46341551   3.637   2.160   3.487 -0.4298  0.2981 -0.0713
   65MOL   H46441552   3.631   2.304   4.162  0.2187 -0.5536  1.6881
   65MOL   H46541553   3.696   2.204   4.036 -0.4821 -0.8990 -0.4045
   65MOL   H46641554   3.515   2.289   3.915  2.1471 -0.5656  0.7751
   65MOL   H46741555   3.440   2.140   3.968 -1.9331 -1.1082  3.7770
   65MOL   H46841556   3.425   2.421   4.104 -1.2674  0.2573 -0.1415
   65MOL   H46941557   3.352   2.280   4.177 -0.9232 -0.4534 -0.4634
   65MOL   H47041558   3.187   2.407   4.062  1.4836 -1.9177  3.6704
   65MOL   H47141559   3.199   2.269   3.970  0.9260 -0.2702 -0.0737
   65MOL   H47241560   3.181   2.299   3.761 -1.4305  1.1348 -0.2164
   65MOL   H47341561   3.217   2.541   3.616  0.5666  0.1776 -4.2344
   65MOL   H47441562   3.205   2.372   3.562  0.5025 -0.4953 -0.0681
   65MOL   H47541563   3.412   2.480   3.486 -0.8729  0.8745 -0.0779
   65MOL   H47641564   3.455   2.497   3.653 -0.5468 -0.0027  1.4257
   65MOL   H47741565   3.373   2.232   3.530 -0.3086 -0.8776  1.4256
   65MOL   H47841566   3.473   2.253   3.674 -1.0446  1.2678  0.4156
   65MOL   H47941567   3.663   2.352   3.538 -1.7082 -0.9101  3.5700
   65MOL   H48041568   3.563   2.336   3.394 -1.6817 -2.3431 -0.9308
   65MOL   H48141569   3.692   2.126   3.564 -2.4242 -2.3802  0.2075
   65MOL   C48241570   3.623   2.078   3.386 -0.4104  0.6931  0.0557
   65MOL   O48341571   3.559   2.096   3.282  0.3418  0.2309 -0.4853
   65MOL   C48441572   3.704   1.947   3.396  0.1596  0.0659 -0.0510
   65MOL   C48541573   3.665   1.828   3.304 -0.5762 -0.2322  0.2330
   65MOL   C48641574   3.776   1.718   3.308  0.2234 -0.5761 -0.5123
   65MOL   C48741575   3.808   1.666   3.455 -0.0953  0.6488  0.2482
   65MOL   C48841576   3.685   1.588   3.518 -0.0147 -0.1707 -0.3676
   65MOL   O48941577   3.593   1.649   3.580  0.1421  0.1928 -0.4465
   65MOL   N49041578   3.675   1.452   3.507 -0.4497  0.7406  0.4513
   65MOL   C49141579   3.577   1.357   3.565 -0.1172 -0.1758 -0.1077
   65MOL   C49241580   3.517   1.271   3.452 -0.1465  0.5741 -0.1545
   65MOL   C49341581   3.492   1.338   3.324 -0.7839 -0.5158 -0.1121
   65MOL   C49441582   3.382   1.443   3.332 -0.1665  0.0718  0.0347
   65MOL   N49541583   3.363   1.493   3.202 -0.4116  0.1007  0.7520
   65MOL   H49641584   3.809   1.978   3.387  0.3314 -1.0635 -2.0762
   65MOL   H49741585   3.701   1.911   3.499 -0.2856 -0.9649 -0.4183
   65MOL   H49841586   3.576   1.773   3.334 -0.4162 -0.4772  0.2611
   65MOL   H49941587   3.642   1.872   3.207  0.7419  1.5494  0.7249
   65MOL   H50041588   3.867   1.754   3.261  0.2795  0.1589  0.1565
   65MOL   H50141589   3.741   1.639   3.240  0.1476  0.4304 -1.6531
   65MOL   H50241590   3.821   1.751   3.521 -0.6377  0.8195  0.1434
   65MOL   H50341591   3.898   1.606   3.465 -0.4360  0.5509  2.9853
   65MOL   H50441592   3.737   1.411   3.439 -2.4890 -0.4146 -0.7367
   65MOL   H50541593   3.498   1.418   3.610 -0.4489 -1.6364  1.3469
   65MOL   H50641594   3.619   1.295   3.643 -0.2243 -0.1350 -0.0176
   65MOL   H50741595   3.583   1.188   3.430 -0.1010  0.3922  0.6724
   65MOL   H50841596   3.430   1.216   3.488 -0.2544 -0.6807 -2.2228
   65MOL   H50941597   3.465   1.263   3.250  0.9611  1.4378 -2.8125
   65MOL   H51041598   3.585   1.382   3.287 -1.1316  0.5314  0.2544
   65MOL   H51141599   3.429   1.529   3.381 -0.0371 -0.8542  1.5706
   65MOL   H51241600   3.293   1.423   3.391  0.4169 -2.6411  0.0394
   65MOL   H51341601   3.441   1.514   3.140 -1.8407  0.7752 -0.8567
   65MOL   C51441602   3.245   1.540   3.153  0.0577 -0.6775  0.0036
   65MOL   O51541603   3.139   1.538   3.217 -0.0498  0.0512 -0.0311
   65MOL   C51641604   3.249   1.581   3.012  0.2903  0.7842 -0.0254
   65MOL   C51741605   3.212   1.724   2.985  0.2952  0.2219  0.0782
   65MOL   C51841606   3.309   1.830   3.048  0.4679  0.3068  0.0678
   65MOL   C51941607   3.306   1.968   2.984 -0.3247 -0.2336  0.5180
   65MOL   C52041608   3.188   2.046   3.016  0.4613 -0.2029  0.1867
   65MOL   O52141609   3.082   2.029   2.953 -0.8859 -0.6761 -0.1714
   65MOL   N52241610   3.200   2.146   3.095 -0.1439 -0.3671 -0.3390
   65MOL   C52341611   3.090   2.242   3.120  0.1861  0.1832  0.2334
   65MOL   C52441612   3.128   2.342   3.224  0.2598 -0.3719 -0.2712
   65MOL   C52541613   3.242   2.432   3.184  0.1410 -0.3435 -0.3179
   65MOL   C52641614   3.242   2.564   3.266 -0.3037  0.1556  0.0778
   65MOL   N52741615   3.369   2.642   3.240  0.2490  0.2440 -1.0412
   65MOL   H52841616   3.341   1.550   2.964  0.9869  0.7514  1.2946
   65MOL   H52941617   3.172   1.517   2.969  1.9279  0.5038 -2.5908
   65MOL   H53041618   3.214   1.728   2.876 -0.4725 -2.1276 -0.0593
   65MOL   H53141619   3.112   1.746   3.023  0.0411  0.0436 -0.4810
   65MOL   H53241620   3.408   1.788   3.031 -0.3107 -1.9517  0.8591
   65MOL   H53341621   3.285   1.826   3.154  1.6033  2.6085  0.4342
   65MOL   H53441622   3.321   1.965   2.876 -3.5955 -1.6827  0.0641
   65MOL   H53541623   3.388   2.017   3.036 -1.1649  0.3219  1.3285
   65MOL   H53641624   3.290   2.163   3.136 -0.4807  2.1310 -0.5339
   65MOL   H53741625   2.998   2.185   3.138  0.5023 -1.0378 -1.7988
   65MOL   H53841626   3.079   2.291   3.024  0.9469  0.4103  0.2630
   65MOL   H53941627   3.042   2.405   3.247  0.9673  0.1268  1.0330
   65MOL   H54041628   3.161   2.298   3.318  1.3762  0.5106 -0.2395
   65MOL   H54141629   3.243   2.455   3.077 -4.2704  0.1560 -0.3423
   65MOL   H54241630   3.338   2.384   3.200  0.6134  0.5032 -0.5618
   65MOL   H54341631   3.258   2.532   3.369  3.3285  1.7422  0.1032
   65MOL   H54441632   3.156   2.630   3.267  0.7063  1.7214 -4.2520
   65MOL   H54541633   3.445   2.606   3.183 -0.3092 -1.3870 -0.7725
   65MOL   C54641634   3.401   2.762   3.294  0.5330  0.3199 -0.5783
   65MOL   O54741635   3.326   2.810   3.377  0.5891  0.0452 -0.4096
   65MOL   C54841636   3.531   2.832   3.254  0.0569  0.3199 -0.0138
   65MOL   C54941637   3.522   2.893   3.113 -0.3836 -0.3811  0.0962
   65MOL   C55041638   3.485   2.808   2.995  0.0796  0.8449  0.1035
   65MOL   C55141639   3.527   2.877   2.864  0.4715  0.2567 -0.6525
   65MOL   C55241640   3.506   2.790   2.741 -0.4170 -0.1525  0.5346
   65MOL   O55341641   3.572   2.687   2.725 -0.0762 -0.7813  0.6087
   65MOL   N55441642   3.409   2.832   2.662 -0.2407  0.5156 -0.1146
   65MOL   C55541643   3.369   2.772   2.526 -0.2126  0.4095 -0.3254
   65MOL   C55641644   3.314   2.627   2.537  0.1971  0.4956 -0.0321
   65MOL   C55741645   3.197   2.633   2.644 -0.6161 -0.2542 -0.1914
   65MOL   C55841646   3.128   2.490   2.669 -0.2192 -0.1108 -0.0331
   65MOL   N55941647   2.999   2.488   2.745 -0.1669  0.5291 -0.4715
   65MOL   H56041648   3.565   2.901   3.331  1.3293  2.4492 -2.4113
   65MOL   H56141649   3.607   2.755   3.245  1.4142  1.6894 -0.4996
   65MOL   H56241650   3.461   2.982   3.130  0.2463 -0.1620  1.3030
   65MOL   H56341651   3.623   2.932   3.099  0.4651 -1.8953  1.8131
   65MOL   H56441652   3.381   2.775   2.996 -0.2055  1.7082 -0.2567
   65MOL   H56541653   3.534   2.711   3.001 -1.1856  0.1627 -0.3134
   65MOL   H56641654   3.629   2.915   2.869  0.5077  0.0225  0.5000
   65MOL   H56741655   3.474   2.972   2.854  2.1387  1.5230  2.0787
   65MOL   H56841656   3.348   2.898   2.709  0.1753 -1.3855  3.2332
   65MOL   H56941657   3.462   2.769   2.469  0.1300  0.4359  0.2241
   65MOL   H57041658   3.303   2.838   2.470  1.4089  0.7563 -1.8872
   65MOL   H57141659   3.268   2.589   2.446  0.8287  1.4010 -0.7442
   65MOL   H57241660   3.386   2.556   2.577  0.6402  0.8865 -0.1247
   65MOL   H57341661   3.128   2.704   2.599  1.0239 -0.3732 -2.9985
   65MOL   H57441662   3.238   2.669   2.739 -1.9017  3.1978 -0.8692
   65MOL   H57541663   3.198   2.413   2.702  2.6226  1.7326 -1.5011
   65MOL   H57641664   3.096   2.444   2.576 -3.5033 -0.4520  1.1740
   65MOL   H57741665   2.916   2.448   2.704  0.4754  0.2674 -1.5356
   65MOL   C57841666   2.982   2.529   2.868  0.6112 -0.0037 -0.1483
   65MOL   O57941667   3.069   2.584   2.930  0.6055 -0.3668  0.2512
   65MOL   C58041668   2.837   2.510   2.914  1.1543 -0.7448  0.1209
   65MOL   C58141669   2.798   2.622   3.007  0.2667  0.2016  0.5189
   65MOL   C58241670   2.750   2.753   2.938  0.8077  0.1313 -0.2144
   65MOL   C58341671   2.667   2.839   3.039  0.3972 -0.3050 -0.0360
   65MOL   C58441672   2.651   2.989   3.002  0.6250  0.5409  0.3621
   65MOL   O58541673   2.704   3.038   2.905  0.0414  0.0410 -0.6325
   65MOL   N58641674   2.579   3.066   3.088 -0.3045 -0.1897  0.1847
   65MOL   C58741675   2.581   3.217   3.083  0.0017  0.9780  0.5026
   65MOL   C58841676   2.719   3.278   3.119 -0.0636  0.5355 -0.0077
   65MOL   C58941677   2.741   3.410   3.041 -0.4375 -0.1076  0.5572
   65MOL   C59041678   2.894   3.448   3.041 -0.5716 -0.1545 -0.7058
   65MOL   N59141679   2.935   3.555   2.951  0.0068  0.4914  0.5836
   65MOL   H59241680   2.770   2.513   2.828  0.1075  0.0365  0.9399
   65MOL   H59341681   2.840   2.415   2.968  0.2259 -0.6513  0.3403
   65MOL   H59441682   2.714   2.594   3.071  1.0070 -0.9988  0.9952
   65MOL   H59541683   2.875   2.641   3.082  1.0374  0.9959 -0.4684
   65MOL   H59641684   2.686   2.735   2.851 -0.0497 -0.4073  0.5220
   65MOL   H59741685   2.834   2.802   2.889 -0.1262  0.7682 -1.2075
   65MOL   H59841686   2.709   2.837   3.140  0.6849  0.3871 -0.1349
   65MOL   H59941687   2.568   2.795   3.035  0.4314 -0.2377 -2.1260
   65MOL   H60041688   2.536   3.027   3.170  0.7634 -1.8751 -0.0097
   65MOL   H60141689   2.508   3.244   3.160  0.7908  1.2342  1.1667
   65MOL   H60241690   2.543   3.255   2.989 -2.3394 -2.0766  0.1265
   65MOL   H60341691   2.724   3.279   3.228  0.6009  1.1310 -0.0452
   65MOL   H60441692   2.789   3.202   3.084 -0.5520  0.2839 -0.4451
   65MOL   H60541693   2.681   3.478   3.101 -1.5421 -0.6356  0.0759
   65MOL   H60641694   2.695   3.414   2.942  0.3547  1.2850  0.2322
   65MOL   H60741695   2.956   3.359   3.033 -0.2092 -0.1929  1.9679
   65MOL   H60841696   2.909   3.480   3.144  1.1252 -1.0528 -0.6603
   65MOL   H60941697   2.858   3.602   2.905 -0.7769 -0.0882  1.2672
   65MOL   C61041698   3.064   3.602   2.943 -0.0039  0.1983  0.3436
   65MOL   O61141699   3.154   3.538   3.000  0.0269 -0.5945 -0.2701
   65MOL   C61241700   3.089   3.735   2.869  0.5675 -0.1154 -0.2093
   65MOL   C61341701   3.136   3.714   2.723  0.2729 -0.2364  0.7000
   65MOL   C61441702   3.175   3.847   2.658 -0.2547  0.5438 -0.3676
   65MOL   C61541703   3.241   3.864   2.528  0.4043 -0.4608 -0.0724
   65MOL   C61641704   3.370   3.793   2.510  0.5081  0.0239 -0.2261
   65MOL   O61741705   3.477   3.844   2.554  0.1729 -0.3434  0.1711
   65MOL   N61841706   3.371   3.669   2.451 -0.0484 -0.0475 -0.0133
   65MOL   C61941707   3.481   3.575   2.429  0.6251 -0.9706 -0.2875
   65MOL   C62041708   3.457   3.446   2.520  0.1776  0.3896  0.2081
   65MOL   C62141709   3.546   3.321   2.488 -1.0030  0.7094  0.5910
   65MOL   C62241710   3.508   3.194   2.562  0.0087  0.0808  0.4753
   65MOL   N62341711   3.378   3.146   2.513  0.0066  0.1860 -0.0344
   65MOL   H62441712   2.994   3.789   2.875  1.6266  1.7247  0.3421
   65MOL   H62541713   3.160   3.796   2.924  0.2097  1.1616 -1.1369
   65MOL   H62641714   3.218   3.643   2.724  0.9736  0.4445 -2.6748
   65MOL   H62741715   3.053   3.683   2.660 -0.4823  3.8360 -0.4639
   65MOL   H62841716   3.241   3.881   2.738  0.3958  1.2463 -1.1951
   65MOL   H62941717   3.086   3.910   2.662 -1.3411 -0.8658 -2.1012
   65MOL   H63041718   3.264   3.969   2.512  0.2549 -0.5569 -0.9758
   65MOL   H63141719   3.165   3.841   2.453 -1.5045  0.9455  1.3854
   65MOL   H63241720   3.281   3.632   2.425 -0.1269 -1.0998  1.7305
   65MOL   H63341721   3.574   3.617   2.466 -0.9437 -0.2984  3.1182
   65MOL   H63441722   3.493   3.538   2.328  2.0318 -0.7961 -0.1852
   65MOL   H63541723   3.462   3.465   2.627  0.4122  1.4225  0.0145
   65MOL   H63641724   3.362   3.405   2.487  1.3556 -0.7460 -1.9461
   65MOL   H63741725   3.647   3.349   2.518 -0.3292 -1.3382  0.2828
   65MOL   H63841726   3.564   3.301   2.383 -0.1428  0.8065  0.7199
   65MOL   H63941727   3.508   3.207   2.670 -0.5092 -2.0335  0.7418
   65MOL   H64041728   3.577   3.112   2.542  0.8386  1.4339 -2.3994
   65MOL   H64141729   3.315   3.145   2.592 -1.8256 -1.9043 -1.4576
   65MOL   H64241730   3.394   3.049   2.491  2.1554  0.4914  0.1084
   66MOL     C141731   2.976   4.666   0.323  0.4004 -0.4571  0.5593
   66MOL     O241732   3.042   4.710   0.416 -0.6139  0.0728  0.3656
   66MOL     C341733   2.892   4.770   0.247  0.1987 -0.0299  0.7149
   66MOL     C441734   2.984   4.876   0.176  0.2592  0.4239  0.0171
   66MOL     C541735   2.997   4.997   0.273  0.3316 -0.2557 -0.6340
   66MOL     C641736   3.116   5.091   0.232 -0.4311 -0.0276 -0.0781
   66MOL     C741737   3.146   5.216   0.321 -0.5677 -0.1747 -0.0659
   66MOL     O841738   3.100   5.220   0.431 -0.0470 -0.4112  0.2995
   66MOL     N941739   3.239   5.299   0.276 -0.1191  0.2642  0.2436
   66MOL    C1041740   3.294   5.410   0.361  0.1902  0.2976  0.3544
   66MOL    C1141741   3.307   5.550   0.302  0.1503  0.0802  0.4636
   66MOL    C1241742   3.418   5.555   0.201  0.0417  0.5454  0.0852
   66MOL    C1341743   3.420   5.692   0.121 -0.6088  0.1706 -0.6192
   66MOL    N1441744   3.543   5.704   0.038 -0.0153 -0.0528 -0.6367
   66MOL    H1541745   2.831   4.718   0.173  2.1298  0.0394 -0.9793
   66MOL    H1641746   2.823   4.821   0.313 -0.4214 -0.5223  0.4568
   66MOL    H1741747   3.079   4.831   0.151  0.4253  1.4191 -1.1835
   66MOL    H1841748   2.943   4.908   0.080  2.0571 -3.0756 -1.9696
   66MOL    H1941749   3.007   4.967   0.378  1.5174 -1.1053 -0.9767
   66MOL    H2041750   2.908   5.059   0.281  1.3878  1.0916  1.1513
   66MOL    H2141751   3.100   5.128   0.131  1.4021  1.7348  0.2480
   66MOL    H2241752   3.208   5.034   0.242 -1.0743 -0.8798  1.2295
   66MOL    H2341753   3.281   5.277   0.187 -0.9940 -0.2483 -0.0450
   66MOL    H2441754   3.393   5.371   0.387 -0.0031  0.4995  1.4293
   66MOL    H2541755   3.241   5.416   0.456  0.0429 -2.0095  0.4366
   66MOL    H2641756   3.209   5.577   0.262  0.9725  0.3410 -1.4518
   66MOL    H2741757   3.317   5.616   0.388 -0.4741  1.0925 -0.2270
   66MOL    H2841758   3.415   5.475   0.126 -3.8138  0.2650  0.4701
   66MOL    H2941759   3.514   5.558   0.253  0.2998 -0.9179 -0.2622
   66MOL    H3041760   3.418   5.769   0.199  0.9719  0.6994 -1.0889
   66MOL    H3141761   3.319   5.708   0.083 -0.6322 -0.5822 -0.8776
   66MOL    H3241762   3.619   5.639   0.052  0.6136  0.9013  0.4914
   66MOL    H3341763   2.969   4.558   0.306  1.5294 -0.6025  1.0324
   66MOL    C3441764   3.567   5.808   7.662 -0.4112  0.0345  0.1904
   66MOL    O3541765   3.479   5.884   7.631  0.4754  0.1280 -0.6942
   66MOL    C3641766   3.701   5.820   7.592  0.6068 -0.3035 -0.5697
   66MOL    C3741767   3.714   5.720   7.474  0.2432  1.0368  0.3370
   66MOL    C3841768   3.636   5.756   7.346  0.1162  0.4585  0.3484
   66MOL    C3941769   3.670   5.666   7.232 -0.5244  0.0091 -0.2867
   66MOL    C4041770   3.586   5.541   7.246  0.1837  0.0844  0.8735
   66MOL    O4141771   3.599   5.464   7.336 -0.0805  0.1773  0.0659
   66MOL    N4241772   3.487   5.535   7.162  0.0447  0.6997 -0.0331
   66MOL    C4341773   3.388   5.424   7.157 -0.1996 -0.2707 -0.2662
   66MOL    C4441774   3.338   5.410   7.015  0.1679  0.6514 -0.4119
   66MOL    C4541775   3.199   5.346   6.997  0.5519 -0.3820  0.0261
   66MOL    C4641776   3.134   5.367   6.861 -0.0261  0.4081 -0.0813
   66MOL    N4741777   3.210   5.297   6.759 -0.4756  0.0669  0.1786
   66MOL    H4841778   3.718   5.923   7.559 -0.6001  0.7095  1.8270
   66MOL    H4941779   3.784   5.791   7.657  0.9042  0.6060 -0.5308
   66MOL    H5041780   3.820   5.710   7.453  0.4018  0.5892  1.3146
   66MOL    H5141781   3.679   5.622   7.507 -2.0903  1.7259 -0.0235
   66MOL    H5241782   3.672   5.857   7.324  3.0147 -0.3576  1.0692
   66MOL    H5341783   3.529   5.771   7.361 -0.0452 -0.7250  0.4491
   66MOL    H5441784   3.776   5.639   7.234 -0.4304  0.4257  2.2576
   66MOL    H5541785   3.667   5.717   7.136 -0.2315 -0.2611 -0.4394
   66MOL    H5641786   3.477   5.613   7.100 -2.0774  0.5051  0.0288
   66MOL    H5741787   3.304   5.449   7.221  0.4915 -0.2673  0.6484
   66MOL    H5841788   3.427   5.327   7.188 -0.4297  0.1176  1.2739
   66MOL    H5941789   3.333   5.507   6.966 -0.2689  0.0200 -1.6463
   66MOL    H6041790   3.415   5.347   6.972 -0.8188 -0.1645 -1.0080
   66MOL    H6141791   3.132   5.379   7.076 -0.0603  1.2973 -1.1547
   66MOL    H6241792   3.222   5.241   7.014 -0.8401 -0.5666  0.7559
   66MOL    H6341793   3.124   5.472   6.833 -0.3478  0.0497 -1.3286
   66MOL    H6441794   3.028   5.341   6.871  0.5313 -1.3453  1.5929
   66MOL    H6541795   3.300   5.334   6.731 -0.4760 -0.7492 -0.9061
   66MOL    C6641796   3.175   5.178   6.709  0.1652  0.0318 -0.1950
   66MOL    O6741797   3.082   5.118   6.758  0.1051 -0.0271  0.2056
   66MOL    C6841798   3.259   5.110   6.605  0.4412 -0.0952  0.0913
   66MOL    C6941799   3.229   4.957   6.583 -0.7693 -0.2377 -0.1957
   66MOL    C7041800   3.109   4.933   6.492 -0.1113  0.4878  0.1146
   66MOL    C7141801   3.088   4.780   6.469 -0.4330 -0.0424  0.4960
   66MOL    C7241802   3.197   4.726   6.379 -0.6401 -0.0756  0.0272
   66MOL    O7341803   3.223   4.791   6.278 -0.7927  0.0920 -0.4650
   66MOL    N7441804   3.250   4.610   6.403  0.2159 -0.8508 -0.4205
   66MOL    C7541805   3.364   4.548   6.327 -1.1774 -0.4029  0.1655
   66MOL    C7641806   3.321   4.420   6.248 -0.1160 -0.6581  0.4615
   66MOL    C7741807   3.246   4.318   6.346 -0.2103 -0.6750  0.0257
   66MOL    C7841808   3.240   4.169   6.301 -0.4944 -0.3114  0.3824
   66MOL    N7941809   3.127   4.100   6.362 -0.3692  0.4518 -0.0736
   66MOL    H8041810   3.260   5.170   6.515  0.8532 -0.7591 -0.3523
   66MOL    H8141811   3.359   5.117   6.647 -0.1869  0.5798  1.5282
   66MOL    H8241812   3.319   4.915   6.536  0.9980  0.5792  2.3488
   66MOL    H8341813   3.218   4.919   6.685  0.2055  0.6209  0.2349
   66MOL    H8441814   3.110   4.979   6.393  0.7666  0.4497  0.1051
   66MOL    H8541815   3.017   4.974   6.536  0.4726  0.4663  1.3938
   66MOL    H8641816   2.992   4.752   6.426  0.6404 -0.4140 -1.7413
   66MOL    H8741817   3.085   4.727   6.564 -1.2095  3.1773  2.3453
   66MOL    H8841818   3.227   4.561   6.489  0.0164 -0.7942 -0.4394
   66MOL    H8941819   3.444   4.529   6.399 -0.1701  1.6258 -0.3879
   66MOL    H9041820   3.410   4.617   6.256  3.1643 -1.5768  1.7226
   66MOL    H9141821   3.267   4.451   6.159 -1.9311  0.1964  1.8095
   66MOL    H9241822   3.411   4.374   6.207  0.3291  0.6362 -0.0690
   66MOL    H9341823   3.144   4.352   6.364  0.3222 -0.1717  2.2118
   66MOL    H9441824   3.307   4.319   6.435 -0.2988 -1.4417  0.1010
   66MOL    H9541825   3.338   4.125   6.319  0.1104  1.5707  1.7798
   66MOL    H9641826   3.220   4.158   6.194  0.6685  1.3667 -0.0303
   66MOL    H9741827   3.035   4.107   6.323 -0.2329  0.0425 -0.4722
   66MOL    C9841828   3.145   4.022   6.468 -0.1230 -0.1369  0.1387
   66MOL    O9941829   3.256   3.996   6.502 -0.2127  0.3605 -0.1050
   66MOL   C10041830   3.020   3.976   6.539  0.0534 -0.0501 -0.5248
   66MOL   C10141831   3.008   3.827   6.551  0.8735  0.7089  0.6113
   66MOL   C10241832   2.930   3.764   6.432  0.4136 -0.4802 -0.1921
   66MOL   C10341833   2.916   3.611   6.470 -0.1816  0.3380 -0.6224
   66MOL   C10441834   3.030   3.525   6.400  0.6924 -0.2440  0.1454
   66MOL   O10541835   3.044   3.517   6.277 -0.5120 -0.0389 -0.2434
   66MOL   N10641836   3.097   3.446   6.484  0.3013  0.5056 -0.2192
   66MOL   C10741837   3.192   3.330   6.461 -0.0228 -0.3155  0.2208
   66MOL   C10841838   3.144   3.212   6.543  0.6405 -0.4238  0.1255
   66MOL   C10941839   3.012   3.146   6.494 -0.8770  0.0202  0.7267
   66MOL   C11041840   2.945   3.036   6.577 -0.1979  0.4251  0.3961
   66MOL   N11141841   3.023   2.915   6.563 -0.3935 -0.0307 -0.4108
   66MOL   H11241842   3.023   4.023   6.637 -0.8398  0.6995 -0.8520
   66MOL   H11341843   2.932   4.019   6.492  1.4034  2.2013 -1.0629
   66MOL   H11441844   3.106   3.782   6.566  1.0195  0.8250  0.0253
   66MOL   H11541845   2.948   3.808   6.640 -1.8493  1.9685 -0.9022
   66MOL   H11641846   2.987   3.780   6.341 -0.1228  0.4805 -0.3650
   66MOL   H11741847   2.828   3.802   6.426  0.8223  0.1846 -3.4285
   66MOL   H11841848   2.823   3.574   6.426 -1.2553  1.9631  0.2294
   66MOL   H11941849   2.906   3.593   6.577  1.6620 -2.5832 -0.8976
   66MOL   H12041850   3.076   3.463   6.581  1.6652  0.7587  0.0274
   66MOL   H12141851   3.294   3.359   6.485  0.4475 -0.8921 -1.0334
   66MOL   H12241852   3.195   3.311   6.353  0.1550 -1.0656  0.3548
   66MOL   H12341853   3.222   3.137   6.553  2.0487  1.2547  2.3890
   66MOL   H12441854   3.142   3.256   6.643 -0.6982  2.2479 -1.0462
   66MOL   H12541855   3.027   3.113   6.391 -2.4045  0.3756  0.3833
   66MOL   H12641856   2.935   3.222   6.478 -1.6517 -0.7587  0.7312
   66MOL   H12741857   2.847   3.023   6.531 -1.1084  1.4926  1.9859
   66MOL   H12841858   2.938   3.065   6.682 -1.5037  0.5381  0.2762
   66MOL   H12941859   3.027   2.877   6.470 -2.2320  1.1994 -1.0317
   66MOL   C13041860   3.107   2.867   6.660  0.2865  0.1007  0.8473
   66MOL   O13141861   3.119   2.914   6.775 -0.6504 -0.1438 -0.1216
   66MOL   C13241862   3.213   2.759   6.615  0.7195  0.5744 -0.3245
   66MOL   C13341863   3.350   2.809   6.567 -0.4093 -0.0107 -0.5456
   66MOL   C13441864   3.346   2.869   6.426  0.6634  0.0288 -0.2445
   66MOL   C13541865   3.480   2.938   6.398  0.1514 -0.3480  0.3766
   66MOL   C13641866   3.508   2.958   6.256  0.5974  0.4843  0.3186
   66MOL   O13741867   3.444   3.052   6.199  0.1682  0.5192 -0.1287
   66MOL   N13841868   3.605   2.885   6.198  0.1301  0.2728  0.5712
   66MOL   C13941869   3.615   2.867   6.055  0.0862 -0.1775  1.1462
   66MOL   C14041870   3.699   2.979   5.988 -0.3623  0.5787  0.4467
   66MOL   C14141871   3.854   2.986   6.024 -0.8012 -0.1143  0.4461
   66MOL   C14241872   3.934   2.876   5.950 -0.1692  0.6349  0.3033
   66MOL   N14341873   4.076   2.906   5.978  0.5421 -0.0735 -0.0290
   66MOL   H14441874   3.236   2.697   6.702  1.1061  1.1846  0.0078
   66MOL   H14541875   3.180   2.689   6.538 -1.2213  2.8175 -1.5766
   66MOL   H14641876   3.385   2.885   6.638  1.5060 -0.6270 -0.8127
   66MOL   H14741877   3.420   2.727   6.561  2.4093  2.0831  1.9554
   66MOL   H14841878   3.268   2.946   6.424 -1.6618 -2.1651  1.6789
   66MOL   H14941879   3.326   2.788   6.356  0.6032 -0.4544  0.3212
   66MOL   H15041880   3.563   2.890   6.448 -0.2444  0.8765  2.2460
   66MOL   H15141881   3.465   3.035   6.445  0.9939  0.4227 -0.9155
   66MOL   H15241882   3.666   2.824   6.249  2.6412  1.6601 -0.6749
   66MOL   H15341883   3.516   2.865   6.011 -0.0134  1.3788  1.2752
   66MOL   H15441884   3.650   2.766   6.035 -1.2119 -1.1336  3.4861
   66MOL   H15541885   3.693   2.974   5.879 -0.1147  0.9064  0.4183
   66MOL   H15641886   3.643   3.072   5.996  0.2797  1.1216 -1.1800
   66MOL   H15741887   3.870   2.968   6.130 -2.4394 -0.9418  0.5615
   66MOL   H15841888   3.885   3.085   5.991  0.2920 -0.5772  0.0550
   66MOL   H15941889   3.924   2.884   5.841 -0.8851 -2.0278  0.1321
   66MOL   H16041890   3.910   2.771   5.969  0.6996 -0.0586 -2.1607
   66MOL   H16141891   4.101   2.979   6.043 -3.1278  0.4988  0.8802
   66MOL   C16241892   4.170   2.849   5.904  0.2994 -0.1029 -0.6710
   66MOL   O16341893   4.154   2.751   5.825  0.1170  0.2850  0.0328
   66MOL   C16441894   4.316   2.913   5.910 -0.3051  0.2544 -0.3680
   66MOL   C16541895   4.402   2.881   5.788 -0.2576  0.4183 -0.2558
   66MOL   C16641896   4.356   2.902   5.640 -0.0867  0.1203 -0.2104
   66MOL   C16741897   4.460   2.866   5.531 -0.3842  0.7329  0.9956
   66MOL   C16841898   4.566   2.976   5.499  0.3249 -0.9127 -0.0251
   66MOL   O16941899   4.670   2.992   5.558 -0.1527 -0.4520  0.5810
   66MOL   N17041900   4.524   3.058   5.400 -0.0070 -0.3276  0.0759
   66MOL   C17141901   4.612   3.160   5.343 -0.3924  0.0914 -0.1903
   66MOL   C17241902   4.559   3.229   5.218  0.4317  0.6663  0.2850
   66MOL   C17341903   4.654   3.302   5.129  0.7058  0.0910  0.5609
   66MOL   C17441904   4.772   3.222   5.073  0.9483  0.2312 -0.0752
   66MOL   N17541905   4.735   3.128   4.970  0.4704 -0.1283  0.2124
   66MOL   H17641906   4.304   3.020   5.922  1.2934  0.1359  2.6278
   66MOL   H17741907   4.360   2.883   6.005  2.0666  2.2985 -0.7759
   66MOL   H17841908   4.498   2.931   5.802 -0.4360  0.5137  0.6254
   66MOL   H17941909   4.424   2.774   5.800 -0.7430  0.3218 -0.2414
   66MOL   H18041910   4.333   3.005   5.611 -1.9121 -0.7140 -1.8493
   66MOL   H18141911   4.264   2.848   5.614 -0.0017 -0.6407  1.0432
   66MOL   H18241912   4.416   2.846   5.433 -2.5364 -1.0011  2.2717
   66MOL   H18341913   4.521   2.783   5.566 -1.1893  0.5690  2.0510
   66MOL   H18441914   4.430   3.054   5.363 -0.3350 -0.4175  0.9178
   66MOL   H18541915   4.701   3.103   5.318 -0.7429 -0.6725  0.2612
   66MOL   H18641916   4.643   3.233   5.417  0.1781 -1.9823  1.6945
   66MOL   H18741917   4.509   3.157   5.154  0.8627  1.1141 -0.5531
   66MOL   H18841918   4.480   3.296   5.252 -1.6117 -0.8873 -1.2527
   66MOL   H18941919   4.686   3.399   5.167 -1.7905  1.1387  0.0886
   66MOL   H19041920   4.590   3.319   5.043 -0.8048 -3.4701  0.9269
   66MOL   H19141921   4.831   3.184   5.156  1.9714 -1.6935 -1.6506
   66MOL   H19241922   4.836   3.302   5.036 -1.2312  2.2361  0.3484
   66MOL   H19341923   4.641   3.120   4.933  0.6224 -0.0515 -0.2015
   66MOL   C19441924   4.826   3.042   4.918 -0.5114  0.5183 -0.5476
   66MOL   O19541925   4.938   3.030   4.964 -0.6772 -0.4164  0.1555
   66MOL   C19641926   4.788   2.969   4.791 -0.5703  0.3595  0.2836
   66MOL   C19741927   4.843   2.821   4.759  0.2929 -0.0209 -0.0780
   66MOL   C19841928   4.808   2.713   4.864  0.1732 -0.5745 -0.1982
   66MOL   C19941929   4.852   2.569   4.822 -0.2579  0.0516 -0.1976
   66MOL   C20041930   4.873   2.477   4.936  0.7022  0.4018 -0.2246
   66MOL   O20141931   4.874   2.518   5.057 -0.5478 -0.5421  0.8341
   66MOL   N20241932   4.900   2.348   4.912  0.4090  0.0550  0.4058
   66MOL   C20341933   4.910   2.244   5.018  0.2443  0.6533 -0.3242
   66MOL   C20441934   4.901   2.106   4.956  0.1573 -0.0500 -0.6186
   66MOL   C20541935   4.942   1.994   5.044 -0.2351  0.2896  0.3477
   66MOL   C20641936   4.947   1.858   4.976  0.0268  0.4776  0.3229
   66MOL   N20741937   4.804   1.816   4.962 -0.2449  0.4942 -0.3173
   66MOL   H20841938   4.680   2.962   4.796 -0.4205 -1.4807  1.7205
   66MOL   H20941939   4.824   3.028   4.707  1.1111 -0.1218  0.6335
   66MOL   H21041940   4.792   2.781   4.671 -2.1094  0.8140  0.8905
   66MOL   H21141941   4.949   2.827   4.736 -0.0662  2.8269 -1.1746
   66MOL   H21241942   4.700   2.718   4.875 -0.3258 -1.9736 -3.6736
   66MOL   H21341943   4.852   2.746   4.958 -0.3805 -0.8429  0.1530
   66MOL   H21441944   4.946   2.576   4.766  0.8448  0.3563  1.6540
   66MOL   H21541945   4.783   2.528   4.748 -1.4882  1.7822 -0.0393
   66MOL   H21641946   4.920   2.315   4.819 -1.5482  3.2468 -1.2607
   66MOL   H21741947   4.825   2.257   5.085 -1.0716 -2.3837 -1.3323
   66MOL   H21841948   4.993   2.259   5.087  0.1474 -1.3728  0.2461
   66MOL   H21941949   4.802   2.093   4.912  0.7475  2.0769 -2.6975
   66MOL   H22041950   4.967   2.117   4.870  2.4664  1.2738  1.2742
   66MOL   H22141951   4.872   1.979   5.126  3.3921 -2.1315  3.1468
   66MOL   H22241952   5.039   2.029   5.080 -0.2535  1.5884 -0.8297
   66MOL   H22341953   5.013   1.792   5.033 -0.8187  1.6526  2.7169
   66MOL   H22441954   5.004   1.868   4.884 -0.8561  3.1866  0.0546
   66MOL   H22541955   4.768   1.787   5.052  0.4071 -1.2548 -0.6051
   66MOL   C22641956   4.736   1.807   4.852 -0.0563  0.5084  0.1151
   66MOL   O22741957   4.783   1.831   4.742  0.3263 -0.4627  0.2188
   66MOL   C22841958   4.598   1.742   4.862  1.0985  0.5011 -0.4695
   66MOL   C22941959   4.536   1.701   4.727 -0.5254 -0.1073 -0.6252
   66MOL   C23041960   4.398   1.636   4.748 -0.2303  0.1867 -0.3982
   66MOL   C23141961   4.312   1.601   4.627 -0.1314 -0.1571  0.4421
   66MOL   C23241962   4.215   1.492   4.661  0.6047  0.1222  0.9445
   66MOL   O23341963   4.133   1.518   4.752  0.1267 -0.2866 -0.3373
   66MOL   N23441964   4.225   1.369   4.608 -0.4145 -0.0476  0.2241
   66MOL   C23541965   4.134   1.253   4.630  0.7218 -0.3816  0.2727
   66MOL   C23641966   4.102   1.217   4.773 -0.4328  0.2764 -0.8716
   66MOL   C23741967   4.227   1.210   4.865 -0.2190  0.2381  0.0427
   66MOL   C23841968   4.201   1.178   5.015 -0.4973 -0.0487 -0.1390
   66MOL   N23941969   4.317   1.140   5.097  0.4034 -0.1456  0.0707
   66MOL   H24041970   4.599   1.658   4.932 -0.9738 -0.4152 -1.4797
   66MOL   H24141971   4.527   1.803   4.918  0.4346 -0.2609 -0.4738
   66MOL   H24241972   4.524   1.788   4.663 -0.1907 -0.0352 -0.5868
   66MOL   H24341973   4.590   1.617   4.683 -0.2834 -1.2621  1.7473
   66MOL   H24441974   4.337   1.702   4.810 -2.5588 -2.9294  0.7692
   66MOL   H24541975   4.410   1.541   4.801 -1.7787 -1.6275 -3.2132
   66MOL   H24641976   4.376   1.548   4.557 -1.6140 -0.3813 -0.7647
   66MOL   H24741977   4.267   1.691   4.586  1.6964  0.6038  0.0594
   66MOL   H24841978   4.304   1.351   4.548  0.4577 -0.3410  1.4507
   66MOL   H24941979   4.180   1.170   4.577 -1.5218  0.2349 -2.8317
   66MOL   H25041980   4.041   1.273   4.575  1.6966  0.2518 -1.1854
   66MOL   H25141981   4.031   1.292   4.809 -0.7967 -0.4293 -0.0990
   66MOL   H25241982   4.062   1.116   4.777 -1.3640  0.6713 -0.0275
   66MOL   H25341983   4.279   1.306   4.861 -1.0167  0.6343 -1.2600
   66MOL   H25441984   4.302   1.146   4.820  0.3017 -0.2016  1.5272
   66MOL   H25541985   4.143   1.086   5.024 -0.9090  0.3086  1.0398
   66MOL   H25641986   4.149   1.264   5.058 -0.9490  0.2121 -1.2023
   66MOL   H25741987   4.349   1.044   5.098  1.8113  0.2989 -0.6970
   66MOL   C25841988   4.390   1.231   5.159 -0.8318 -0.0841  0.3214
   66MOL   O25941989   4.371   1.356   5.152  0.0275 -0.2755  0.0124
   66MOL   C26041990   4.498   1.179   5.254 -0.2938  0.4939 -0.4219
   66MOL   C26141991   4.505   1.253   5.387  0.6056 -0.6728 -0.7464
   66MOL   C26241992   4.388   1.219   5.479  0.4853 -0.6484  0.3253
   66MOL   C26341993   4.332   1.080   5.493 -0.3532  0.1280  0.3366
   66MOL   C26441994   4.423   0.987   5.579  0.3134  0.2664 -0.3371
   66MOL   O26541995   4.484   1.030   5.678  0.0533 -0.0426  0.6101
   66MOL   N26641996   4.433   0.859   5.542 -0.4305 -0.0784  0.0842
   66MOL   C26741997   4.373   0.790   5.433  0.2506 -0.3905  0.1811
   66MOL   C26841998   4.446   0.662   5.411 -0.0243 -0.2137  0.2098
   66MOL   C26941999   4.597   0.668   5.371 -0.2556  0.0640 -0.0070
   66MOL   C27042000   4.657   0.539   5.318  0.5215 -0.2075  0.0191
   66MOL   N27142001   4.797   0.564   5.266  0.5228  0.3547 -0.4477
   66MOL   H27242002   4.502   1.072   5.277 -0.9731  0.3975 -0.7430
   66MOL   H27342003   4.585   1.204   5.193 -0.3140 -0.4887 -0.8723
   66MOL   H27442004   4.594   1.223   5.442  0.1427  0.1201  0.4581
   66MOL   H27542005   4.509   1.361   5.371  0.7592 -0.1721  2.4464
   66MOL   H27642006   4.303   1.277   5.444  0.4313 -1.1958 -0.4429
   66MOL   H27742007   4.417   1.257   5.577 -0.2227  1.1085 -0.1242
   66MOL   H27842008   4.306   1.040   5.395  1.7591 -2.6358  0.8415
   66MOL   H27942009   4.241   1.092   5.551 -0.3492  0.6916  0.2293
   66MOL   H28042010   4.506   0.813   5.595 -0.8880 -0.6125  0.2489
   66MOL   H28142011   4.382   0.851   5.344 -0.6351 -0.0660  0.3088
   66MOL   H28242012   4.274   0.760   5.467  0.2880 -1.8628 -0.9674
   66MOL   H28342013   4.450   0.599   5.500 -1.7120 -1.7305 -0.7708
   66MOL   H28442014   4.385   0.604   5.343 -2.1293 -0.0028  1.8754
   66MOL   H28542015   4.660   0.687   5.458  0.3521 -2.0011  0.0413
   66MOL   H28642016   4.609   0.752   5.302  0.6284 -0.3642 -0.3770
   66MOL   H28742017   4.593   0.509   5.235  0.3488  0.7599 -0.2082
   66MOL   H28842018   4.660   0.453   5.384  2.2624  1.4218  2.1255
   66MOL   H28942019   4.796   0.633   5.192 -1.4445  1.7641  0.8683
   66MOL   C29042020   4.912   0.506   5.301 -0.2370 -0.7057 -0.3045
   66MOL   O29142021   4.927   0.430   5.396  0.0085  0.3740  0.3041
   66MOL   C29242022   5.027   0.529   5.204  0.3701  1.1095 -0.3562
   66MOL   C29342023   5.092   0.391   5.166  0.5097 -0.0628  0.3280
   66MOL   C29442024   5.209   0.406   5.068 -0.3171  0.3727  0.1009
   66MOL   C29542025   5.298   0.283   5.060 -0.2753 -0.4010  0.0707
   66MOL   C29642026   5.408   0.267   5.166  0.2544 -0.2701  0.1455
   66MOL   O29742027   5.460   0.364   5.218  0.6346 -0.7650 -0.1023
   66MOL   N29842028   5.436   0.143   5.207 -0.0997 -0.3733 -0.0021
   66MOL   C29942029   5.547   0.108   5.292  0.1426 -0.4287 -0.2197
   66MOL   C30042030   5.568   7.656   5.315  0.2326  0.2585  0.3934
   66MOL   C30142031   5.686   7.628   5.411  0.3728  0.3766 -0.1665
   66MOL   C30242032   5.730   7.485   5.399 -0.3741 -0.8693 -0.3219
   66MOL   N30342033   5.653   7.395   5.477 -0.7895 -0.3773  0.2575
   66MOL   H30442034   5.002   0.584   5.113 -0.0550  0.8920 -0.3712
   66MOL   H30542035   5.108   0.580   5.256  0.2702  1.9904 -1.0471
   66MOL   H30642036   5.125   0.332   5.251 -0.4069 -0.8173  0.1776
   66MOL   H30742037   5.015   0.335   5.112  1.9187 -0.7951 -0.9632
   66MOL   H30842038   5.268   0.494   5.094  3.1799 -1.7308 -0.4659
   66MOL   H30942039   5.148   0.399   4.978 -0.3895 -2.0952  0.3225
   66MOL   H31042040   5.360   0.290   4.970 -1.3497  2.4037 -0.4966
   66MOL   H31142041   5.223   0.204   5.054 -1.1785  0.3883  0.9182
   66MOL   H31242042   5.395   0.060   5.167 -0.9921  0.1639 -0.2266
   66MOL   H31342043   5.527   0.146   5.392  0.2090  0.7981 -0.6622
   66MOL   H31442044   5.637   0.151   5.249 -0.7639  0.7856 -0.9469
   66MOL   H31542045   5.478   7.622   5.365  1.1188 -1.4996  0.8391
   66MOL   H31642046   5.570   7.596   5.224  0.2380  0.0740  0.5136
   66MOL   H31742047   5.662   7.663   5.511 -0.7530  0.9341 -0.6322
   66MOL   H31842048   5.765   7.694   5.375  0.7435 -0.8511 -1.7004
   66MOL   H31942049   5.831   7.477   5.437 -1.1719 -0.7214  1.8890
   66MOL   H32042050   5.747   7.465   5.293 -1.3991 -1.1967 -0.4329
   66MOL   H32142051   5.568   7.427   5.521 -0.0323 -0.6694  2.0079
   66MOL   C32242052   5.692   7.272   5.516 -0.3936  0.0408  0.5232
   66MOL   O32342053   5.796   7.220   5.483 -0.0993 -0.0855  0.7833
   66MOL   C32442054   5.594   7.187   5.603 -0.1097 -0.4093  0.4831
   66MOL   C32542055   5.605   7.037   5.582 -0.1482 -0.3455 -0.1820
   66MOL   C32642056   5.480   6.969   5.644  0.2807 -0.1280 -0.4770
   66MOL   C32742057   5.464   6.822   5.615  0.1915 -0.5488  0.0641
   66MOL   C32842058   5.412   6.806   5.475  0.5810 -0.2175 -0.1729
   66MOL   O32942059   5.309   6.856   5.437  0.1568  0.0294 -0.3822
   66MOL   N33042060   5.484   6.732   5.393  0.3412 -0.0130  0.1988
   66MOL   C33142061   5.438   6.689   5.258  0.4646 -0.4580 -0.9648
   66MOL   C33242062   5.557   6.675   5.156 -0.3044 -0.2530  0.1712
   66MOL   C33342063   5.509   6.636   5.017 -0.1611  0.6454  0.6092
   66MOL   C33442064   5.621   6.626   4.915  0.3879 -0.5818 -0.4362
   66MOL   N33542065   5.704   6.745   4.931 -0.4083 -0.3730 -0.0474
   66MOL   H33642066   5.610   7.225   5.704 -0.1664 -1.7106  0.9921
   66MOL   H33742067   5.493   7.216   5.574 -0.1692 -0.7631  0.3356
   66MOL   H33842068   5.613   7.018   5.475  2.0463 -2.9193  0.3816
   66MOL   H33942069   5.693   7.005   5.638  0.9144 -1.0905 -2.2274
   66MOL   H34042070   5.389   7.023   5.616 -0.2127 -0.8929 -0.3569
   66MOL   H34142071   5.487   6.978   5.752 -0.1593 -2.1123 -0.2661
   66MOL   H34242072   5.394   6.774   5.683  0.4890 -0.0338  0.7400
   66MOL   H34342073   5.555   6.764   5.622  0.7071  0.2787  0.3490
   66MOL   H34442074   5.573   6.695   5.423  1.1749  1.5094 -0.2887
   66MOL   H34542075   5.365   6.761   5.221 -2.2924 -1.3422  2.4983
   66MOL   H34642076   5.397   6.588   5.270 -2.1387  0.8083  1.5154
   66MOL   H34742077   5.607   6.771   5.163 -0.3181 -0.4197  3.9017
   66MOL   H34842078   5.617   6.595   5.201  0.2155  1.2770  2.2701
   66MOL   H34942079   5.434   6.709   4.986 -0.1776  0.9641  1.3680
   66MOL   H35042080   5.454   6.542   5.029 -0.5310  0.9494  1.3967
   66MOL   H35142081   5.600   6.611   4.809 -1.2430 -0.3430 -0.1590
   66MOL   H35242082   5.696   6.549   4.930  3.0581  1.5775 -2.1018
   66MOL   H35342083   5.660   6.834   4.954 -1.3466 -0.2939 -2.0155
   66MOL   C35442084   5.827   6.756   4.875 -0.1293  0.3655  0.7494
   66MOL   O35542085   5.893   6.659   4.846 -0.2228  1.1227  0.9433
   66MOL   C35642086   5.883   6.889   4.844  0.2386  0.4379  0.1562
   66MOL   C35742087   6.027   6.904   4.877 -0.3021  0.3564 -0.2957
   66MOL   C35842088   6.083   7.046   4.871 -0.4502  0.6173 -0.6621
   66MOL   C35942089   6.237   7.061   4.849 -0.7409 -0.0230  0.4717
   66MOL   C36042090   6.325   7.001   4.960  0.3839 -0.0695 -0.9953
   66MOL   O36142091   6.353   6.883   4.960  0.3551  0.0534 -0.7775
   66MOL   N36242092   6.369   7.086   5.049  0.2087  0.0221 -0.6364
   66MOL   C36342093   6.467   7.061   5.157  0.1146  0.5659  0.2135
   66MOL   C36442094   6.594   7.137   5.128  0.2356 -0.1397  0.5349
   66MOL   C36542095   6.706   7.099   5.231 -0.4038  0.6455 -0.4827
   66MOL   C36642096   6.837   7.178   5.185  0.8398 -0.2892  0.3185
   66MOL   N36742097   6.947   7.191   5.273 -0.7438 -0.6959  0.3364
   66MOL   H36842098   5.858   6.925   4.744  0.4998  1.1286  0.3378
   66MOL   H36942099   5.827   6.954   4.911  0.0115 -0.0516  0.4454
   66MOL   H37042100   6.050   6.856   4.972 -2.9481  2.8532  1.6937
   66MOL   H37142101   6.082   6.843   4.806 -0.3185 -1.2990  1.0861
   66MOL   H37242102   6.057   7.098   4.963 -1.1512 -0.3240 -0.3284
   66MOL   H37342103   6.023   7.090   4.791 -0.1861 -0.3579 -1.3972
   66MOL   H37442104   6.252   7.168   4.834 -1.9870  0.3839  2.0377
   66MOL   H37542105   6.264   7.015   4.754  0.0872  1.5282 -0.0592
   66MOL   H37642106   6.332   7.180   5.047  2.3911  0.9314 -0.4389
   66MOL   H37742107   6.490   6.955   5.161  3.1660  1.1707  0.2569
   66MOL   H37842108   6.416   7.092   5.248  0.9982  3.0386 -0.0752
   66MOL   H37942109   6.627   7.114   5.026  0.1560  1.2764  0.1794
   66MOL   H38042110   6.563   7.241   5.125 -1.3682 -0.6232 -0.0088
   66MOL   H38142111   6.717   6.990   5.227 -0.8430  0.5313  1.2670
   66MOL   H38242112   6.679   7.123   5.333  1.9498 -1.0169  0.5721
   66MOL   H38342113   6.800   7.276   5.154 -0.8198 -0.8198  0.5320
   66MOL   H38442114   6.883   7.124   5.102  2.4048  3.1365 -1.1567
   66MOL   H38542115   6.960   7.287   5.303 -0.0196 -0.7656  0.2357
   66MOL   C38642116   7.025   7.095   5.321 -0.0506  0.0833  0.1153
   66MOL   O38742117   7.022   6.984   5.279 -0.3640 -0.0838  0.4296
   66MOL   C38842118   7.115   7.132   5.444  0.6319 -0.1806  0.3134
   66MOL   C38942119   7.063   7.062   5.575  0.6934 -1.1566 -0.4483
   66MOL   C39042120   6.956   7.149   5.650  0.3390 -0.3931 -0.5360
   66MOL   C39142121   6.974   7.195   5.796 -0.1822 -0.1441  0.4942
   66MOL   C39242122   6.978   7.076   5.900  0.1308  0.2890  0.2837
   66MOL   O39342123   7.018   6.964   5.865 -0.1104 -0.0869 -0.0371
   66MOL   N39442124   6.938   7.088   6.026 -0.3851 -0.1075 -0.3123
   66MOL   C39542125   6.915   6.969   6.111  0.7446  0.2863 -0.4078
   66MOL   C39642126   6.778   6.906   6.091 -0.5730 -0.2823  0.2370
   66MOL   C39742127   6.767   6.749   6.084 -0.0780  0.3998 -0.4802
   66MOL   C39842128   6.878   6.668   6.006 -0.2828  0.0217 -0.2006
   66MOL   N39942129   6.897   6.719   5.868 -0.3489 -0.2672 -0.0425
   66MOL   H40042130   7.219   7.115   5.417  0.2778 -0.4821 -0.9062
   66MOL   H40142131   7.104   7.240   5.458 -0.7905 -0.2209 -0.3735
   66MOL   H40242132   7.020   6.962   5.566 -1.9550 -0.5268  3.7073
   66MOL   H40342133   7.153   7.054   5.635  0.8862  0.7986 -0.4424
   66MOL   H40442134   6.866   7.087   5.649  0.7950 -1.0813  0.4730
   66MOL   H40542135   6.937   7.239   5.592  0.7361 -0.9180 -1.4964
   66MOL   H40642136   6.892   7.259   5.829  1.4050 -0.0756  4.5029
   66MOL   H40742137   7.065   7.252   5.810 -0.2184 -0.3045  1.4143
   66MOL   H40842138   6.904   7.181   6.047 -0.3168 -0.1012 -0.2314
   66MOL   H40942139   6.927   7.003   6.213  1.5051 -0.6341 -0.1823
   66MOL   H41042140   6.998   6.900   6.096  0.3959 -0.6085  1.6469
   66MOL   H41142141   6.715   6.950   6.168  0.7579  2.5887 -0.2229
   66MOL   H41242142   6.734   6.944   5.998 -1.6560  1.3957  1.4112
   66MOL   H41342143   6.677   6.726   6.026  2.1241 -1.2713 -3.3397
   66MOL   H41442144   6.746   6.709   6.183  0.0784  1.3399 -0.0557
   66MOL   H41542145   6.860   6.560   6.001  1.4246 -0.2361 -1.0611
   66MOL   H41642146   6.970   6.688   6.061 -0.3764  0.1834 -0.1050
   66MOL   H41742147   6.943   6.809   5.866 -2.2039  0.7536  1.1370
   66MOL   C41842148   6.850   6.665   5.753 -0.3461 -0.8921 -0.1003
   66MOL   O41942149   6.803   6.555   5.760 -0.1988 -0.6510  0.8576
   66MOL   C42042150   6.871   6.737   5.613  0.0969  0.8514  1.0807
   66MOL   C42142151   6.782   6.701   5.495  0.5397  0.1160  0.0405
   66MOL   C42242152   6.642   6.759   5.513 -0.0045 -0.4781  0.0692
   66MOL   C42342153   6.548   6.737   5.399 -0.4552  0.6753  0.2831
   66MOL   C42442154   6.426   6.825   5.399  0.2582 -0.3005 -0.0569
   66MOL   O42542155   6.417   6.931   5.453 -0.3294  0.1004 -0.4322
   66MOL   N42642156   6.317   6.777   5.326  1.3295  0.1001  0.5868
   66MOL   C42742157   6.180   6.832   5.323  0.0328  0.0743  0.1017
   66MOL   C42842158   6.093   6.771   5.438 -0.0521  0.1155 -0.0676
   66MOL   C42942159   5.953   6.833   5.428  0.3745 -0.5204  0.1134
   66MOL   C43042160   5.837   6.745   5.380 -0.5227  0.3712 -0.2796
   66MOL   N43142161   5.830   6.626   5.459  0.2339  0.1230 -0.2069
   66MOL   H43242162   6.859   6.843   5.634 -2.2345  1.0087 -0.8490
   66MOL   H43342163   6.975   6.718   5.586  0.3674 -0.0730  2.7229
   66MOL   H43442164   6.819   6.738   5.400 -0.4435 -0.8017 -0.7237
   66MOL   H43542165   6.774   6.594   5.475  1.3005 -0.5780  3.2068
   66MOL   H43642166   6.644   6.865   5.540 -2.5406  0.0681 -1.6991
   66MOL   H43742167   6.595   6.707   5.597 -1.7831  0.6883 -0.1751
   66MOL   H43842168   6.517   6.633   5.401 -1.7384  1.0738  1.2842
   66MOL   H43942169   6.591   6.749   5.300  0.1533  0.7128  0.5474
   66MOL   H44042170   6.328   6.686   5.284  1.3549  0.6192 -0.5708
   66MOL   H44142171   6.132   6.800   5.230  1.6824  2.5364 -1.6472
   66MOL   H44242172   6.165   6.939   5.335 -1.2622 -0.2622  1.7910
   66MOL   H44342173   6.099   6.663   5.442  0.1380  0.0946 -0.8066
   66MOL   H44442174   6.143   6.820   5.522  2.5576  0.6502 -1.8797
   66MOL   H44542175   5.947   6.925   5.371 -0.9776 -0.5042  0.2565
   66MOL   H44642176   5.927   6.868   5.528  1.7394 -3.1863  1.4630
   66MOL   H44742177   5.852   6.718   5.275 -1.4869  0.3162 -0.4014
   66MOL   H44842178   5.747   6.806   5.376 -0.8260 -0.0391  0.3669
   66MOL   H44942179   5.854   6.536   5.418  0.9270 -1.5201  3.5552
   66MOL   C45042180   5.809   6.611   5.588  0.1807  0.3168 -0.4575
   66MOL   O45142181   5.792   6.701   5.659 -0.2713  0.2853  0.5782
   66MOL   C45242182   5.809   6.468   5.646  0.0707  0.5556 -0.3256
   66MOL   C45342183   5.923   6.436   5.749 -0.5478  0.4570 -0.3978
   66MOL   C45442184   6.062   6.441   5.683 -0.4384 -0.4108  0.2634
   66MOL   C45542185   6.167   6.544   5.731  0.3013 -0.0846 -0.1877
   66MOL   C45642186   6.314   6.514   5.692 -0.9234  0.4653 -0.1300
   66MOL   O45742187   6.356   6.518   5.576 -0.4649  0.3626  0.1993
   66MOL   N45842188   6.403   6.486   5.790 -0.0601  0.4737 -0.1402
   66MOL   C45942189   6.521   6.407   5.780 -0.1399  0.1074 -0.1369
   66MOL   C46042190   6.486   6.262   5.793 -0.2673  0.7018 -0.3680
   66MOL   C46142191   6.610   6.170   5.803  0.1389  0.1432  0.1912
   66MOL   C46242192   6.576   6.024   5.802  0.7864 -0.0437  0.4221
   66MOL   N46342193   6.535   5.970   5.927 -0.7121  0.2611  0.6640
   66MOL   H46442194   5.711   6.440   5.683  0.3603  1.3048  1.0432
   66MOL   H46542195   5.810   6.404   5.557  0.8461 -0.6559  0.5434
   66MOL   H46642196   5.908   6.507   5.829  0.9511 -1.3612  1.5465
   66MOL   H46742197   5.911   6.336   5.791  1.4108 -0.0378 -0.9798
   66MOL   H46842198   6.050   6.451   5.575 -2.2490 -1.7275  0.3156
   66MOL   H46942199   6.107   6.343   5.694 -0.8942 -0.5678  0.7759
   66MOL   H47042200   6.163   6.546   5.840 -0.4345 -0.1240 -0.2141
   66MOL   H47142201   6.140   6.644   5.697 -0.0029  0.5729  1.9513
   66MOL   H47242202   6.353   6.477   5.878  0.7283  3.3110  0.6501
   66MOL   H47342203   6.584   6.443   5.861  0.2807  1.6820 -1.1369
   66MOL   H47442204   6.568   6.436   5.686 -0.8105 -0.3057 -0.6037
   66MOL   H47542205   6.424   6.259   5.883 -3.9439 -0.5316 -2.7867
   66MOL   H47642206   6.422   6.236   5.708  1.7191 -1.1575 -1.3459
   66MOL   H47742207   6.660   6.199   5.895 -2.0895 -1.2555  1.8655
   66MOL   H47842208   6.681   6.197   5.724  1.8408 -0.7648  1.3774
   66MOL   H47942209   6.666   5.973   5.768  0.8596 -0.6085  1.4519
   66MOL   H48042210   6.494   6.007   5.732  0.8658 -1.9730  0.7808
   66MOL   H48142211   6.438   5.976   5.956 -1.2635  0.9010 -1.2218
   66MOL   C48242212   6.608   5.920   6.023  0.3604 -0.0295  0.4378
   66MOL   O48342213   6.725   5.900   6.012 -0.0459  0.4359  0.8037
   66MOL   C48442214   6.535   5.883   6.147  0.1291  0.2323  0.7742
   66MOL   C48542215   6.614   5.786   6.239 -0.4017 -1.0114 -0.0056
   66MOL   C48642216   6.711   5.866   6.329 -0.1834  0.2572 -0.3500
   66MOL   C48742217   6.795   5.781   6.429 -0.0435  0.1872  0.2442
   66MOL   C48842218   6.765   5.809   6.577 -0.3340  0.0174  0.3215
   66MOL   O48942219   6.657   5.858   6.614 -0.7409  0.1805 -0.8910
   66MOL   N49042220   6.864   5.768   6.665 -0.1467 -0.1714 -0.1235
   66MOL   C49142221   6.861   5.777   6.808  0.1097 -0.1433  0.2860
   66MOL   C49242222   6.833   5.635   6.870 -0.4167 -0.3912  0.3449
   66MOL   C49342223   6.838   5.640   7.025 -0.1538 -1.1588 -0.7837
   66MOL   C49442224   6.782   5.514   7.093 -0.3965  0.5756 -1.2944
   66MOL   N49542225   6.828   5.393   7.025 -0.1997 -0.2967 -0.4939
   66MOL   H49642226   6.520   5.971   6.209 -0.9395  0.6473 -0.0727
   66MOL   H49742227   6.437   5.850   6.113  0.5625  1.2220 -1.5240
   66MOL   H49842228   6.542   5.729   6.298 -1.1994  1.0895  1.0826
   66MOL   H49942229   6.669   5.712   6.181  0.0389 -0.5965 -0.1195
   66MOL   H50042230   6.649   5.944   6.375  0.2148  0.7601 -0.6623
   66MOL   H50142231   6.774   5.930   6.268 -1.9567  2.3368 -0.0866
   66MOL   H50242232   6.899   5.809   6.415 -0.2158  1.8644  2.1127
   66MOL   H50342233   6.776   5.676   6.406 -2.6296  0.7721 -0.5699
   66MOL   H50442234   6.946   5.718   6.634  0.5244 -0.1556  1.6064
   66MOL   H50542235   6.776   5.840   6.836  0.1914  0.3717 -0.6205
   66MOL   H50642236   6.959   5.813   6.840 -0.3053  2.7505 -1.5661
   66MOL   H50742237   6.740   5.596   6.828  1.2212 -2.7032 -1.1923
   66MOL   H50842238   6.921   5.585   6.831  0.6272  0.6173  1.3761
   66MOL   H50942239   6.804   5.735   7.065  2.0892  1.3945 -4.6055
   66MOL   H51042240   6.945   5.632   7.046  0.0401  0.2090 -1.1772
   66MOL   H51142241   6.673   5.516   7.093 -0.4299 -0.5027 -1.4630
   66MOL   H51242242   6.803   5.499   7.199 -0.0129  0.6384 -1.3616
   66MOL   H51342243   6.771   5.372   6.944 -1.7947  0.3786  0.4255
   66MOL   C51442244   6.924   5.309   7.068  0.6139  0.0974 -0.5773
   66MOL   O51542245   6.999   5.328   7.161  0.0033 -0.3637  0.2170
   66MOL   C51642246   6.944   5.174   6.995  0.0509  0.9264  0.4496
   66MOL   C51742247   6.906   5.046   7.081  0.6340 -0.3746 -0.3311
   66MOL   C51842248   6.752   5.013   7.075 -0.4597 -0.1057  0.1346
   66MOL   C51942249   6.726   4.902   7.184 -0.1357  0.0150  0.2836
   66MOL   C52042250   6.697   4.950   7.324 -0.4409 -0.0416 -0.3494
   66MOL   O52142251   6.600   5.020   7.347  0.5993  0.5802 -0.2908
   66MOL   N52242252   6.789   4.902   7.412  0.2649  0.2547  0.0582
   66MOL   C52342253   6.796   4.925   7.558  0.2106 -0.4189  0.1056
   66MOL   C52442254   6.839   4.796   7.624  0.9509 -0.2493  0.1459
   66MOL   C52542255   6.746   4.681   7.613 -0.1238 -0.3683  0.2050
   66MOL   C52642256   6.791   4.560   7.689  0.3077  0.7067  0.3199
   66MOL   N52742257   6.702   4.457   7.674  0.5692 -0.4811  0.2608
   66MOL   H52842258   6.880   5.162   6.908 -0.4258 -0.6005  0.9995
   66MOL   H52942259   7.046   5.183   6.957 -0.1368 -0.4594 -0.3914
   66MOL   H53042260   6.955   4.961   7.033  1.1653 -0.6631  0.7038
   66MOL   H53142261   6.938   5.061   7.184  1.1535  1.4083 -0.7205
   66MOL   H53242262   6.718   4.988   6.975  1.3469  1.8531 -1.0021
   66MOL   H53342263   6.690   5.099   7.101  0.6529  0.3122  1.4873
   66MOL   H53442264   6.794   4.818   7.168 -0.1899  0.3834 -2.1891
   66MOL   H53542265   6.632   4.859   7.148 -0.5493  0.3868  0.9171
   66MOL   H53642266   6.874   4.856   7.381  1.2354 -0.2518  3.2939
   66MOL   H53742267   6.705   4.959   7.606  0.5735 -1.0410  1.2633
   66MOL   H53842268   6.867   5.004   7.585 -0.1005  0.6736 -2.1092
   66MOL   H53942269   6.936   4.763   7.587  1.4898  1.7306 -0.2567
   66MOL   H54042270   6.844   4.821   0.029 -1.5331 -1.0541  0.4907
   66MOL   H54142271   6.737   4.653   7.509 -1.7064 -0.4036  0.3361
   66MOL   H54242272   6.643   4.699   7.644  0.3302  0.0851  1.4867
   66MOL   H54342273   6.794   4.582   0.094  2.2280 -0.5650  0.5613
   66MOL   H54442274   6.893   4.537   7.657 -0.1268  0.3802 -0.8369
   66MOL   H54542275   6.609   4.478   0.005 -0.7670 -1.0299 -3.0016
   66MOL   C54642276   6.704   4.346   7.599 -0.0118  0.4104 -0.2383
   66MOL   O54742277   6.791   4.335   7.516  0.3955 -0.1661  0.1922
   66MOL   C54842278   6.578   4.254   7.602  0.6217  0.5540 -0.3323
   66MOL   C54942279   6.566   4.169   7.467 -0.0816 -0.5125  0.0341
   66MOL   C55042280   6.612   4.025   7.471  0.2883  0.1649 -0.1810
   66MOL   C55142281   6.492   3.930   7.506  0.1184 -0.0551  0.2291
   66MOL   C55242282   6.409   3.892   7.384  0.3873 -0.6957 -0.1552
   66MOL   O55342283   6.412   3.957   7.276  0.0166 -0.2425 -0.0407
   66MOL   N55442284   6.326   3.785   7.406 -0.5881 -0.6192 -0.2346
   66MOL   C55542285   6.232   3.751   7.306  0.8381  0.1088  0.0898
   66MOL   C55642286   6.158   3.618   7.344  0.0866 -0.2276 -0.4651
   66MOL   C55742287   6.248   3.494   7.353 -0.1259 -0.4755  0.2426
   66MOL   C55842288   6.181   3.353   7.378  0.1752  0.2203  0.0470
   66MOL   N55942289   6.063   3.334   7.293 -0.5272  0.4831  0.0763
   66MOL   H56042290   6.581   4.194   7.693 -1.7600 -0.1495 -0.7012
   66MOL   H56142291   6.487   4.312   7.618  0.4013  0.9617 -2.8776
   66MOL   H56242292   6.460   4.171   7.439  0.1581  1.2594 -0.8621
   66MOL   H56342293   6.601   4.229   7.383 -1.9939 -1.7165 -1.6673
   66MOL   H56442294   6.696   3.997   7.535  1.9453 -0.1911 -2.4544
   66MOL   H56542295   6.647   4.007   7.369  0.4101  0.6889 -0.2369
   66MOL   H56642296   6.415   3.977   7.568  0.8690  1.2866  0.1600
   66MOL   H56742297   6.525   3.836   7.550 -0.3744 -1.1141 -1.6009
   66MOL   H56842298   6.326   3.719   7.483  2.0312  0.1598  0.4740
   66MOL   H56942299   6.289   3.709   7.224  0.2617 -1.5912  0.5449
   66MOL   H57042300   6.167   3.833   7.276 -2.5734 -1.7789  2.0489
   66MOL   H57142301   6.106   3.645   7.435 -0.7229 -0.4887 -0.8444
   66MOL   H57242302   6.072   3.592   7.282 -0.8672  2.6484 -0.4188
   66MOL   H57342303   6.332   3.502   7.422 -0.2457 -1.0798  0.4646
   66MOL   H57442304   6.303   3.472   7.261  1.3733 -0.6993  1.1704
   66MOL   H57542305   6.157   3.338   7.484 -1.8373 -0.0343 -0.4286
   66MOL   H57642306   6.253   3.273   7.360  0.8467 -0.0621  3.5911
   66MOL   H57742307   5.983   3.381   7.332 -0.6559 -0.1205  0.5379
   66MOL   C57842308   6.060   3.288   7.169 -0.3024  0.5961  0.0342
   66MOL   O57942309   6.158   3.239   7.115 -0.3399 -0.5773  0.3566
   66MOL   C58042310   5.925   3.306   7.092  0.0691  0.3734  0.1388
   66MOL   C58142311   5.926   3.277   6.936  0.1969 -0.6876  0.2743
   66MOL   C58242312   5.789   3.295   6.864 -0.0633 -1.4704 -0.1827
   66MOL   C58342313   5.742   3.440   6.858  0.0783  0.3023 -0.2040
   66MOL   C58442314   5.646   3.463   6.743 -0.4280  0.0760  0.1649
   66MOL   O58542315   5.537   3.411   6.746 -0.0975  0.5457  0.3488
   66MOL   N58642316   5.687   3.546   6.645  0.0509  0.5849 -0.2525
   66MOL   C58742317   5.601   3.552   6.522 -0.4138  0.2588 -0.0739
   66MOL   C58842318   5.666   3.646   6.417  0.1848  0.5402 -0.9491
   66MOL   C58942319   5.680   3.788   6.453  0.7253  0.0356 -0.0557
   66MOL   C59042320   5.763   3.877   6.361 -0.5372  0.7309  0.2223
   66MOL   N59142321   5.901   3.833   6.344 -0.2159 -0.1164  0.1009
   66MOL   H59242322   5.856   3.238   7.141 -1.5482  2.0934  0.3286
   66MOL   H59342323   5.892   3.408   7.114 -0.5905 -0.0340  1.0385
   66MOL   H59442324   5.999   3.340   6.885  0.0359 -0.9060 -0.2244
   66MOL   H59542325   5.952   3.173   6.920 -3.5516 -2.0077  2.0285
   66MOL   H59642326   5.716   3.233   6.915 -0.1290 -1.5816 -0.4139
   66MOL   H59742327   5.795   3.247   6.767  0.5569 -0.2570 -0.7608
   66MOL   H59842328   5.827   3.505   6.834 -2.5881  3.1912 -2.1390
   66MOL   H59942329   5.711   3.469   6.958 -0.1800 -0.7722  0.0279
   66MOL   H60042330   5.774   3.599   6.648  0.9140 -0.7375 -1.2193
   66MOL   H60142331   5.498   3.580   6.545  0.5583  2.5576  1.7741
   66MOL   H60242332   5.598   3.453   6.477 -0.7932  1.2834 -2.3641
   66MOL   H60342333   5.770   3.617   6.403  0.4049  0.0151  1.6319
   66MOL   H60442334   5.620   3.629   6.319 -1.5285 -2.9172  0.4021
   66MOL   H60542335   5.703   3.813   6.557 -3.0511  2.5229  0.2764
   66MOL   H60642336   5.580   3.829   6.439 -0.0975 -3.0620 -4.2772
   66MOL   H60742337   5.763   3.978   6.400 -2.8559  0.3718  1.2048
   66MOL   H60842338   5.723   3.899   6.262 -3.8603  0.9421  1.5581
   66MOL   H60942339   5.924   3.735   6.348 -1.2301 -0.3221  1.4976
   66MOL   C61042340   6.001   3.916   6.321  0.2921 -0.2199 -0.1953
   66MOL   O61142341   5.980   4.040   6.306 -0.4751 -0.1700  0.0850
   66MOL   C61242342   6.135   3.856   6.293 -0.3314  0.2110 -0.1222
   66MOL   C61342343   6.231   3.935   6.206 -0.0699 -0.0887 -0.4036
   66MOL   C61442344   6.371   3.870   6.212  0.3733  0.4209  0.1600
   66MOL   C61542345   6.462   3.924   6.095 -0.3474  0.1401 -0.6548
   66MOL   C61642346   6.606   3.898   6.137  0.1906  0.5949  0.8439
   66MOL   O61742347   6.662   3.785   6.130  0.3307  0.2061  0.0197
   66MOL   N61842348   6.673   4.007   6.172 -0.5856 -0.2623 -0.0901
   66MOL   C61942349   6.815   4.016   6.209 -0.4612  0.0043 -0.0115
   66MOL   C62042350   6.894   4.072   6.095  0.0166 -0.2159 -0.2705
   66MOL   C62142351   7.038   4.084   6.128  0.4722  0.3577 -0.6443
   66MOL   C62242352   7.133   4.049   6.011  0.1774 -0.0914 -0.3628
   66MOL   N62342353   7.167   4.164   5.939 -0.3516  0.2253  0.0224
   66MOL   H62442354   6.183   3.845   6.391  0.5884  0.2662 -0.5669
   66MOL   H62542355   6.122   3.754   6.257  1.1366 -0.4488  1.1404
   66MOL   H62642356   6.199   3.940   6.102  2.2392  1.6630 -1.0881
   66MOL   H62742357   6.243   4.036   6.247 -0.0916  0.0027 -0.6260
   66MOL   H62842358   6.363   3.761   6.219  1.0808  0.3514 -0.0817
   66MOL   H62942359   6.410   3.894   6.311 -1.7857  1.6395  0.7591
   66MOL   H63042360   6.441   4.031   6.096  1.0507  0.4324 -0.4966
   66MOL   H63142361   6.441   3.873   6.002  1.8730 -0.5307 -0.8269
   66MOL   H63242362   6.627   4.096   6.181  1.1090  0.3655  3.4399
   66MOL   H63342363   6.857   3.918   6.236  0.4863  0.6764  1.0100
   66MOL   H63442364   6.814   4.085   6.293 -1.3100  1.9632 -1.5853
   66MOL   H63542365   6.873   4.015   6.005 -5.8747 -0.8885  1.3364
   66MOL   H63642366   6.855   4.166   6.056 -0.9249 -0.7441 -0.6223
   66MOL   H63742367   7.064   4.007   6.200 -3.2232  1.3949  1.9781
   66MOL   H63842368   7.059   4.178   6.180  1.7673 -0.3372  0.0979
   66MOL   H63942369   7.084   3.973   5.950 -1.0531 -0.6957  1.3568
   66MOL   H64042370   7.225   4.019   6.061 -0.9281  1.7133  2.8917
   66MOL   H64142371   7.238   4.140   5.871 -1.9883 -0.4205 -1.5126
   66MOL   H64242372   7.089   4.211   5.895 -0.6872  1.3606  1.7859
   67MOL     C142373   3.605   3.332   6.307 -0.2065  0.7816 -0.4491
   67MOL     O242374   3.576   3.420   6.384  0.2066  0.2912  0.1678
   67MOL     C342375   3.734   3.262   6.334 -0.1105 -0.3660 -0.2266
   67MOL     C442376   3.843   3.349   6.401  0.4250  0.8168 -0.8737
   67MOL     C542377   3.988   3.284   6.415 -0.6564  0.3637 -0.1182
   67MOL     C642378   4.005   3.192   6.541  0.0456 -0.1360  0.3276
   67MOL     C742379   4.048   3.264   6.675  1.1753  0.3878 -0.3184
   67MOL     O842380   4.105   3.372   6.680  0.1827 -0.0629  0.0264
   67MOL     N942381   4.027   3.188   6.786 -0.0229  0.0994 -0.0163
   67MOL    C1042382   4.064   3.222   6.919 -0.2248 -0.5201 -0.0383
   67MOL    C1142383   3.964   3.296   7.012 -0.4025 -0.1011 -0.0234
   67MOL    C1242384   4.003   3.303   7.164 -0.2279 -0.6284  0.2308
   67MOL    C1342385   4.108   3.403   7.206 -0.5083  0.0051  0.5521
   67MOL    N1442386   4.125   3.392   7.348 -0.3648  0.1212 -0.3208
   67MOL    H1542387   3.713   3.174   6.394 -0.6575 -1.1932 -1.6281
   67MOL    H1642388   3.771   3.219   6.241  0.4382 -3.4423  1.3483
   67MOL    H1742389   3.843   3.435   6.334 -0.0739  2.2269  0.9047
   67MOL    H1842390   3.806   3.396   6.492  2.3563  0.5734  0.0557
   67MOL    H1942391   4.055   3.370   6.413  0.7409 -0.6903  0.3025
   67MOL    H2042392   4.012   3.222   6.328 -0.1039 -0.7522  0.8055
   67MOL    H2142393   4.099   3.140   6.520 -0.5022 -0.9326 -0.1913
   67MOL    H2242394   3.931   3.113   6.557  0.0218 -0.3261 -0.6781
   67MOL    H2342395   3.980   3.099   6.779 -0.7332  0.3319  1.6841
   67MOL    H2442396   4.152   3.283   6.903  0.5343 -2.3304 -3.2065
   67MOL    H2542397   4.092   3.130   6.970  0.1428 -1.0626 -1.2027
   67MOL    H2642398   3.940   3.394   6.970  0.2588 -0.2894 -0.8673
   67MOL    H2742399   3.867   3.247   7.017 -0.6974  0.5180  0.3492
   67MOL    H2842400   4.031   3.203   7.198 -2.2826 -1.3120 -0.0422
   67MOL    H2942401   3.915   3.333   7.221 -0.3754  0.3996 -0.5175
   67MOL    H3042402   4.073   3.506   7.202  0.8187  0.4597  0.0414
   67MOL    H3142403   4.205   3.393   7.156 -0.6312 -1.7048  0.6299
   67MOL    H3242404   4.090   3.465   7.408  0.0572 -1.0532  1.4080
   67MOL    H3342405   3.539   3.285   6.233 -0.2218 -1.2227  0.7917
   67MOL    C3442406   4.196   3.307   7.422  0.0746  0.2901 -0.2831
   67MOL    O3542407   4.259   3.218   7.364 -0.2708 -0.0168  0.3008
   67MOL    C3642408   4.202   3.311   7.573 -0.0943  0.1993  0.3326
   67MOL    C3742409   4.333   3.243   7.625  1.0042  0.2447  0.8145
   67MOL    C3842410   4.343   3.237   0.080  0.3056 -0.5954  0.0304
   67MOL    C3942411   4.256   3.128   0.138  0.8913 -1.0581  0.1116
   67MOL    C4042412   4.258   3.140   0.295  0.1050  0.1577 -0.2803
   67MOL    O4142413   4.189   3.226   0.344  0.1329 -0.2576  0.4535
   67MOL    N4242414   4.333   3.054   0.362  0.3447 -0.1829 -0.0136
   67MOL    C4342415   4.330   3.054   0.515 -0.1619  0.5576  0.3445
   67MOL    C4442416   4.212   2.985   0.576  0.7405 -0.0585  0.5923
   67MOL    C4542417   4.160   3.046   0.707  0.8435 -0.4065  0.5796
   67MOL    C4642418   4.142   2.942   0.811 -0.1890 -0.5282 -0.2463
   67MOL    N4742419   4.269   2.880   0.858  0.0886 -0.4891  0.1787
   67MOL    H4842420   4.203   3.415   7.607 -1.8681  0.0511  0.9017
   67MOL    H4942421   4.116   3.271   7.627  0.7939 -1.6176  0.4418
   67MOL    H5042422   4.353   3.143   7.589  3.0061  0.7197  0.5387
   67MOL    H5142423   4.416   3.298   7.581 -1.1843  0.9077 -2.7241
   67MOL    H5242424   4.312   3.330   0.128  0.1708 -1.9680  2.6838
   67MOL    H5342425   4.448   3.222   0.105 -0.4303 -1.6538  2.7001
   67MOL    H5442426   4.301   3.032   0.111  0.4951 -1.2697  0.2102
   67MOL    H5542427   4.157   3.130   0.093  1.5948  2.3248 -1.5237
   67MOL    H5642428   4.395   2.995   0.308  0.0565  0.1478 -0.6987
   67MOL    H5742429   4.323   3.157   0.551 -1.7283  0.2819  0.8728
   67MOL    H5842430   4.426   3.014   0.548 -0.1078  0.9290  0.6376
   67MOL    H5942431   4.135   2.973   0.499  0.0269 -0.8229  1.4162
   67MOL    H6042432   4.244   2.882   0.594  0.8971 -0.4643 -1.7624
   67MOL    H6142433   4.074   3.112   0.701  1.1738  0.3087  3.3315
   67MOL    H6242434   4.232   3.124   0.733 -0.1836  0.3343  1.2466
   67MOL    H6342435   4.080   2.863   0.769  3.6723 -5.2252  2.3441
   67MOL    H6442436   4.093   2.981   0.900 -0.4207 -1.0292 -0.1457
   67MOL    H6542437   4.353   2.933   0.839 -1.4286  2.5309  1.5943
   67MOL    C6642438   4.283   2.772   0.933 -0.4813  0.0316 -0.2377
   67MOL    O6742439   4.180   2.718   0.981  0.1357  0.4976 -0.6820
   67MOL    C6842440   4.422   2.717   0.966 -0.3337 -0.0791 -0.6064
   67MOL    C6942441   4.432   2.721   1.124  0.3192 -0.6256 -0.1865
   67MOL    C7042442   4.437   2.863   1.186 -0.5507 -0.4150 -0.1499
   67MOL    C7142443   4.442   2.861   1.342  0.0947 -0.5027  0.3465
   67MOL    C7242444   4.454   3.006   1.396  0.3646 -0.0226 -0.4468
   67MOL    O7342445   4.354   3.079   1.412  0.1226 -0.2130 -0.1449
   67MOL    N7442446   4.581   3.048   1.414 -0.1665  0.2820 -1.0024
   67MOL    C7542447   4.616   3.182   1.459  0.4344  0.3104 -0.2733
   67MOL    C7642448   4.623   3.279   1.338 -0.4361 -0.3759 -0.4538
   67MOL    C7742449   4.670   3.421   1.369  0.0779  0.1370  0.1669
   67MOL    C7842450   4.748   3.489   1.250  0.3854 -0.0392 -0.3082
   67MOL    N7942451   4.859   3.408   1.204  0.5451  0.2829 -0.3101
   67MOL    H8042452   4.425   2.617   0.922 -1.6883 -0.1787 -0.5023
   67MOL    H8142453   4.494   2.780   0.913  0.2266 -0.0959  0.1236
   67MOL    H8242454   4.365   2.648   1.171 -0.0511  1.1381  2.1159
   67MOL    H8342455   4.530   2.684   1.154 -0.2792 -2.0021  0.1101
   67MOL    H8442456   4.359   2.931   1.152 -1.1541 -1.4145 -0.7791
   67MOL    H8542457   4.526   2.912   1.148 -0.6956 -1.4933 -1.8837
   67MOL    H8642458   4.516   2.792   1.382 -0.1026  0.4886  2.5054
   67MOL    H8742459   4.343   2.832   1.379  0.1460 -1.7282 -0.4631
   67MOL    H8842460   4.651   2.983   1.381 -2.3975 -2.9476  0.3305
   67MOL    H8942461   4.712   3.175   1.511 -0.1814 -1.1422  0.7047
   67MOL    H9042462   4.553   3.218   1.541  0.5584 -0.7855  0.3071
   67MOL    H9142463   4.672   3.227   1.255 -2.2704  0.0861 -1.8935
   67MOL    H9242464   4.523   3.299   1.298 -1.8834 -1.5775  2.4624
   67MOL    H9342465   4.742   3.415   1.451  0.2312  0.8326  0.0874
   67MOL    H9442466   4.591   3.486   1.406 -0.8510 -0.8666 -0.0324
   67MOL    H9542467   4.779   3.587   1.286  1.8483 -0.2431 -0.9667
   67MOL    H9642468   4.684   3.509   1.165 -1.0649 -0.8587  0.5724
   67MOL    H9742469   4.915   3.359   1.272 -0.2309  0.6407  0.6015
   67MOL    C9842470   4.871   3.367   1.082 -0.0268  0.0169 -0.6674
   67MOL    O9942471   4.781   3.387   0.995 -0.0626  0.5560  0.0152
   67MOL   C10042472   4.990   3.280   1.049  0.1192 -0.5346  0.5327
   67MOL   C10142473   4.978   3.135   1.116  0.1295 -0.2100 -0.2987
   67MOL   C10242474   4.861   3.048   1.074  0.5059  0.3409 -0.7452
   67MOL   C10342475   4.874   2.903   1.120 -0.1064 -0.6483  0.4770
   67MOL   C10442476   4.883   2.883   1.273  1.2812 -0.2998  0.0395
   67MOL   O10542477   4.780   2.878   1.341 -0.3272 -0.7670  0.2050
   67MOL   N10642478   5.008   2.864   1.318  0.3710  0.1827  0.3410
   67MOL   C10742479   5.037   2.798   1.440  0.4304  0.0610  0.4219
   67MOL   C10842480   5.176   2.838   1.502  0.8765  0.2408 -0.2260
   67MOL   C10942481   5.194   2.752   1.627 -0.0270  0.1363  0.2247
   67MOL   C11042482   5.319   2.786   1.708 -0.2793  0.3975  0.2275
   67MOL   N11142483   5.332   2.688   1.805  0.2980  0.3952  0.7838
   67MOL   H11242484   5.003   3.256   0.944  0.2888  0.1947  0.3835
   67MOL   H11342485   5.082   3.338   1.060 -0.0840 -0.1300  0.1043
   67MOL   H11442486   5.066   3.073   1.103 -0.0378 -0.4996 -0.0604
   67MOL   H11542487   4.983   3.143   1.224 -0.4791 -2.3272 -0.1063
   67MOL   H11642488   4.864   3.048   0.965 -1.4754 -0.4491 -0.8079
   67MOL   H11742489   4.769   3.084   1.119  1.2971 -3.7314  4.7161
   67MOL   H11842490   4.957   2.850   1.073 -0.4838 -1.2790  0.5124
   67MOL   H11942491   4.786   2.849   1.086 -1.6488  1.9437  0.1678
   67MOL   H12042492   5.077   2.865   1.244  0.1379 -0.5194  0.1144
   67MOL   H12142493   5.031   2.692   1.417  1.6832 -0.0875  0.7281
   67MOL   H12242494   4.961   2.818   1.515  0.1008 -0.9875  0.3720
   67MOL   H12342495   5.259   2.820   1.434  1.8023  2.0854  0.3846
   67MOL   H12442496   5.180   2.946   1.517 -0.6045  0.0044  2.0383
   67MOL   H12542497   5.204   2.650   1.590 -1.0323  0.1902 -0.2193
   67MOL   H12642498   5.105   2.753   1.691 -0.0826  0.6032  0.1415
   67MOL   H12742499   5.321   2.890   1.739  1.0903  0.8052 -1.1880
   67MOL   H12842500   5.402   2.783   1.637 -0.7631 -1.5615 -0.2866
   67MOL   H12942501   5.269   2.610   1.804 -0.7936  1.2641  0.7050
   67MOL   C13042502   5.444   2.670   1.873  0.3233 -0.3742  0.1012
   67MOL   O13142503   5.530   2.757   1.880 -0.1253 -0.0085  0.0828
   67MOL   C13242504   5.459   2.537   1.947 -0.4604 -0.4593 -0.5755
   67MOL   C13342505   5.522   2.550   2.094 -0.2419 -0.3660  0.0695
   67MOL   C13442506   5.424   2.608   2.195  1.3787  0.2845  0.4315
   67MOL   C13542507   5.485   2.634   2.327  0.2117 -0.2074 -0.1673
   67MOL   C13642508   5.520   2.503   2.404  0.3532  0.4692  0.4458
   67MOL   O13742509   5.430   2.431   2.445 -0.2991 -0.0579 -0.1172
   67MOL   N13842510   5.648   2.477   2.421 -0.6475  0.2000 -0.5525
   67MOL   C13942511   5.710   2.379   2.509 -0.5086 -0.0912  0.3780
   67MOL   C14042512   5.760   2.253   2.434 -0.0461 -0.6388  0.3606
   67MOL   C14142513   5.793   2.128   2.525  0.8747  0.7085 -0.1731
   67MOL   C14242514   5.834   2.005   2.446 -0.2594 -0.0511  0.3190
   67MOL   N14342515   5.778   1.993   2.316  0.0551  0.2136  0.2404
   67MOL   H14442516   5.369   2.475   1.951 -0.0609 -1.1020 -1.3989
   67MOL   H14542517   5.514   2.459   1.894 -0.5794 -1.2826  0.4956
   67MOL   H14642518   5.565   2.452   2.113 -1.5167 -0.9480  0.0064
   67MOL   H14742519   5.612   2.611   2.094 -1.2573  1.2530 -3.8555
   67MOL   H14842520   5.341   2.540   2.212  0.1894  2.0971  2.1439
   67MOL   H14942521   5.391   2.704   2.154 -1.7282 -0.3068  1.3888
   67MOL   H15042522   5.428   2.697   2.396  2.5240  2.3444 -0.5346
   67MOL   H15142523   5.582   2.678   2.304  0.9000 -1.4654  0.3107
   67MOL   H15242524   5.713   2.553   2.405  1.8346 -1.7731 -0.2312
   67MOL   H15342525   5.635   2.349   2.582 -0.5985 -1.2923 -0.1999
   67MOL   H15442526   5.793   2.433   2.554 -0.0245 -0.8382  0.3944
   67MOL   H15542527   5.687   2.230   2.356  0.3802 -0.9393  0.0403
   67MOL   H15642528   5.850   2.282   2.378  0.9378 -1.9190  1.2456
   67MOL   H15742529   5.702   2.096   2.576  1.9347  0.3403  1.4964
   67MOL   H15842530   5.869   2.154   2.598  1.9258  0.8495 -1.2952
   67MOL   H15942531   5.811   1.912   2.498  0.5657 -0.1294  0.5614
   67MOL   H16042532   5.943   1.995   2.454 -0.2819 -0.1988  0.4461
   67MOL   H16142533   5.678   2.011   2.316  0.3182  1.7495 -0.4294
   67MOL   C16242534   5.832   1.960   2.200 -0.5254 -0.1814  0.1478
   67MOL   O16342535   5.944   1.914   2.189  0.1008  0.2032  0.0336
   67MOL   C16442536   5.741   1.977   2.074 -0.2545  0.0349 -0.8846
   67MOL   C16542537   5.813   1.959   1.935  0.3006 -0.1342  0.4364
   67MOL   C16642538   5.757   2.049   1.820 -0.2809  0.1234 -0.7580
   67MOL   C16742539   5.611   2.020   1.772 -0.4367 -0.4841 -0.2089
   67MOL   C16842540   5.588   1.882   1.713  0.4647  0.3825  0.2944
   67MOL   O16942541   5.677   1.816   1.659  0.1458  0.5699 -0.2839
   67MOL   N17042542   5.469   1.832   1.707 -0.3159 -0.3006  0.2261
   67MOL   C17142543   5.334   1.886   1.719  0.8415 -0.7166 -0.2060
   67MOL   C17242544   5.243   1.851   1.602 -0.5470 -0.7159  1.1309
   67MOL   C17342545   5.109   1.919   1.615  0.0943 -0.3041  0.1933
   67MOL   C17442546   5.110   2.070   1.592 -0.3098 -0.8130  0.0812
   67MOL   N17542547   4.978   2.120   1.572  0.6174  0.0318  0.2527
   67MOL   H17642548   5.652   1.915   2.088 -1.1420  1.3271 -0.7171
   67MOL   H17742549   5.704   2.079   2.081 -0.3018  0.0885 -1.7813
   67MOL   H17842550   5.920   1.976   1.944  0.5359 -0.4360 -1.5395
   67MOL   H17942551   5.798   1.855   1.906 -2.6943  0.9690 -2.3130
   67MOL   H18042552   5.825   2.050   1.735 -0.3407  4.3474 -0.8363
   67MOL   H18142553   5.750   2.151   1.858 -0.6595 -0.2069  0.0644
   67MOL   H18242554   5.577   2.090   1.696 -0.1167 -1.3149 -1.1286
   67MOL   H18342555   5.545   2.022   1.859  0.8541  2.1114  0.7870
   67MOL   H18442556   5.475   1.732   1.694  0.9925 -0.2096  0.0973
   67MOL   H18542557   5.346   1.993   1.731  1.1600 -0.3516 -3.2035
   67MOL   H18642558   5.291   1.852   1.813 -1.4730  0.6147 -0.7505
   67MOL   H18742559   5.290   1.872   1.506 -1.0662 -2.7444  0.3934
   67MOL   H18842560   5.235   1.742   1.599  1.2072 -0.8358  0.3186
   67MOL   H18942561   5.051   1.889   1.702 -2.1959 -0.7375 -1.4506
   67MOL   H19042562   5.052   1.880   1.532  1.8268 -0.8649 -0.7519
   67MOL   H19142563   5.178   2.094   1.511 -1.2568 -0.1921 -0.5330
   67MOL   H19242564   5.166   2.126   1.668 -2.1871  1.1317  0.0852
   67MOL   H19342565   4.924   2.129   1.657  0.0686  0.8993 -0.1718
   67MOL   C19442566   4.916   2.129   1.446  0.6218 -0.0077  0.5042
   67MOL   O19542567   4.962   2.072   1.341 -0.1069 -0.2848  0.0603
   67MOL   C19642568   4.783   2.204   1.452  0.2436  0.1640  0.3228
   67MOL   C19742569   4.740   2.268   1.321  1.0657 -0.5044 -0.7289
   67MOL   C19842570   4.833   2.377   1.249  0.2852  0.1707  0.3393
   67MOL   C19942571   4.764   2.472   1.146  0.2023 -0.0834 -0.1411
   67MOL   C20042572   4.681   2.393   1.040  0.1258 -0.0815 -0.0888
   67MOL   O20142573   4.559   2.389   1.042  0.4572 -0.6534 -0.3529
   67MOL   N20242574   4.742   2.329   0.946 -0.1226 -0.4695 -0.3490
   67MOL   C20342575   4.690   2.234   0.844  0.1147 -0.0809 -0.5431
   67MOL   C20442576   4.662   2.083   0.894 -0.2360  0.2793 -0.7942
   67MOL   C20542577   4.784   2.038   0.968 -0.2660 -0.0543 -0.1443
   67MOL   C20642578   4.771   1.909   1.047 -0.1216  0.4378 -0.2220
   67MOL   N20742579   4.892   1.885   1.127  0.0672  0.4810 -0.5989
   67MOL   H20842580   4.704   2.142   1.494 -0.6869  0.8789 -0.3730
   67MOL   H20942581   4.772   2.279   1.530  3.3413  0.6829  0.3356
   67MOL   H21042582   4.710   2.187   1.254 -1.7692  0.0684 -0.1934
   67MOL   H21142583   4.655   2.326   1.356 -0.8749 -2.7734 -1.5562
   67MOL   H21242584   4.917   2.325   1.204  0.6862 -0.1463  1.4189
   67MOL   H21342585   4.862   2.437   1.336 -0.5373  3.1407 -1.3418
   67MOL   H21442586   4.839   2.538   1.104  0.2366 -0.0791 -0.0723
   67MOL   H21542587   4.695   2.531   1.206  0.9129  1.5595 -0.9035
   67MOL   H21642588   4.840   2.351   0.941 -0.3825  0.6024 -0.8777
   67MOL   H21742589   4.774   2.224   0.776  0.5019  1.0948 -0.2422
   67MOL   H21842590   4.604   2.280   0.795 -1.8547 -2.8701  0.1292
   67MOL   H21942591   4.580   2.074   0.964  1.6710 -0.1917  1.4183
   67MOL   H22042592   4.650   2.007   0.816 -0.1143  1.4123 -1.9455
   67MOL   H22142593   4.821   2.113   1.038 -1.7022  1.1106 -0.6143
   67MOL   H22242594   4.856   2.032   0.886  0.6748 -0.4076  0.6965
   67MOL   H22342595   4.746   1.828   0.978  1.2377 -0.2774  0.1057
   67MOL   H22442596   4.678   1.901   1.103 -1.5324  0.6370 -2.4913
   67MOL   H22542597   4.913   1.957   1.195 -0.5512  1.5267 -1.4921
   67MOL   C22642598   4.970   1.775   1.121 -0.4913 -0.6807  0.4089
   67MOL   O22742599   4.973   1.691   1.031  0.5351 -0.1330 -0.3432
   67MOL   C22842600   5.077   1.765   1.237  0.2120 -0.5600 -0.0683
   67MOL   C22942601   5.199   1.668   1.193 -0.8702 -0.7086 -1.1043
   67MOL   C23042602   5.320   1.674   1.300 -0.3762  0.0132  0.2925
   67MOL   C23142603   5.430   1.581   1.244 -0.0127  0.0983  0.0661
   67MOL   C23242604   5.501   1.630   1.122  0.0137 -0.1767  0.0271
   67MOL   O23342605   5.506   1.753   1.101 -0.0649 -0.2814 -0.2489
   67MOL   N23442606   5.577   1.532   1.060  0.7859 -0.1209  0.0884
   67MOL   C23542607   5.646   1.554   0.925  0.5514  0.8962 -1.3989
   67MOL   C23642608   5.774   1.472   0.913  0.0679  0.1971 -0.5887
   67MOL   C23742609   5.858   1.498   0.783  0.2132 -0.1350 -0.4494
   67MOL   C23842610   5.998   1.437   0.777  0.6298 -0.5385  0.0408
   67MOL   N23942611   6.068   1.488   0.658  0.3892  0.3270  0.8795
   67MOL   H24042612   5.117   1.866   1.244 -0.2346 -0.4028  0.2273
   67MOL   H24142613   5.034   1.739   1.333  1.2659  0.5947  0.7197
   67MOL   H24242614   5.171   1.562   1.188 -1.7223 -0.5370 -0.1169
   67MOL   H24342615   5.235   1.702   1.096 -2.7086  1.0501 -1.2055
   67MOL   H24442616   5.294   1.641   1.401  1.0147 -0.3444  0.5385
   67MOL   H24542617   5.358   1.776   1.312  0.1608 -0.0119 -1.1688
   67MOL   H24642618   5.382   1.483   1.236  1.0548 -0.3079 -1.5578
   67MOL   H24742619   5.509   1.568   1.318 -2.1562 -0.1872  2.3801
   67MOL   H24842620   5.579   1.438   1.097  0.8602  0.5767  1.9414
   67MOL   H24942621   5.677   1.659   0.923 -0.9532  1.4370  0.9318
   67MOL   H25042622   5.580   1.528   0.842  1.3751 -0.6810 -1.5613
   67MOL   H25142623   5.849   1.485   0.992 -0.4637 -1.1195  0.1438
   67MOL   H25242624   5.761   1.364   0.911  0.0348  0.1722  0.4740
   67MOL   H25342625   5.869   1.607   0.788  2.8964 -0.3592 -0.6238
   67MOL   H25442626   5.795   1.473   0.697  0.2178 -0.4050 -0.3750
   67MOL   H25542627   5.978   1.330   0.777  1.0129 -0.6132 -0.4002
   67MOL   H25642628   6.043   1.478   0.867 -0.9883 -0.5225  0.8559
   67MOL   H25742629   6.027   1.563   0.604 -1.0029  0.1565  1.6855
   67MOL   C25842630   6.167   1.417   0.598 -0.2841 -0.1036  0.1361
   67MOL   O25942631   6.214   1.318   0.650  0.0358 -0.4212  0.6617
   67MOL   C26042632   6.219   1.484   0.472 -0.0733 -0.0706  0.7228
   67MOL   C26142633   6.371   1.471   0.450 -0.1191 -0.5191  0.7377
   67MOL   C26242634   6.411   1.522   0.303 -0.1195  1.5491 -0.1388
   67MOL   C26342635   6.399   1.671   0.265  0.3756  0.1738  0.9765
   67MOL   C26442636   6.529   1.746   0.280 -0.1251 -1.7355  0.4412
   67MOL   O26542637   6.628   1.717   0.213 -0.3111  0.3421  0.3135
   67MOL   N26642638   6.535   1.843   0.373 -0.3352 -0.6238 -0.6924
   67MOL   C26742639   6.653   1.926   0.387 -0.1899 -0.2554  0.2750
   67MOL   C26842640   6.708   1.921   0.526 -0.0467  0.2311 -0.1302
   67MOL   C26942641   6.728   1.781   0.593  0.1319  0.3572 -1.3306
   67MOL   C27042642   6.786   1.775   0.737 -0.3038  0.7370 -0.7334
   67MOL   N27142643   6.801   1.638   0.780 -0.2506  0.8014 -0.9995
   67MOL   H27242644   6.165   1.430   0.395 -0.1001  0.9799 -0.0151
   67MOL   H27342645   6.188   1.589   0.465  0.9416  0.1028 -1.7791
   67MOL   H27442646   6.421   1.530   0.527  1.6304 -0.6794 -0.2510
   67MOL   H27542647   6.401   1.367   0.453 -1.2017 -0.8917 -0.6989
   67MOL   H27642648   6.336   1.471   0.241  1.1595 -0.8535  0.2111
   67MOL   H27742649   6.510   1.483   0.282 -1.6954 -2.5278 -0.4468
   67MOL   H27842650   6.327   1.713   0.336 -0.9606  0.2558 -0.4223
   67MOL   H27942651   6.363   1.683   0.163  0.0031  0.6906  1.1672
   67MOL   H28042652   6.453   1.861   0.429  1.5376  1.0641  1.6205
   67MOL   H28142653   6.625   2.029   0.364  0.7386 -0.6400 -2.8382
   67MOL   H28242654   6.732   1.911   0.313 -1.0381  1.6015 -1.0622
   67MOL   H28342655   6.804   1.972   0.531  0.5053 -0.8405  0.2511
   67MOL   H28442656   6.636   1.958   0.599  0.6001 -1.5520  1.4270
   67MOL   H28542657   6.794   1.734   0.520 -0.2501 -1.3340 -0.6060
   67MOL   H28642658   6.632   1.729   0.586 -0.5857  1.7177 -1.8243
   67MOL   H28742659   6.728   1.831   0.810  0.9684  1.6030 -0.3754
   67MOL   H28842660   6.889   1.809   0.747 -0.4589  2.3152 -3.9390
   67MOL   H28942661   6.783   1.565   0.713  0.8447 -0.7305  0.3296
   67MOL   C29042662   6.816   1.589   0.905  0.3348  0.6216  0.2834
   67MOL   O29142663   6.825   1.666   0.998 -0.0598  0.0787 -0.2075
   67MOL   C29242664   6.836   1.445   0.939  0.0519 -0.4394  0.0213
   67MOL   C29342665   6.772   1.385   1.067  0.3583  0.0574 -0.2717
   67MOL   C29442666   6.805   1.235   1.072  0.4477 -0.3517 -0.3555
   67MOL   C29542667   6.749   1.159   1.194  0.0967  0.2846  0.0007
   67MOL   C29642668   6.809   1.192   1.327  0.0950 -0.4685  0.1077
   67MOL   O29742669   6.917   1.250   1.338 -0.0897 -0.0571  0.0114
   67MOL   N29842670   6.751   1.141   1.426  0.4496  0.1529  0.3959
   67MOL   C29942671   6.795   1.116   1.563 -0.0271  0.8431 -0.0087
   67MOL   C30042672   6.806   1.249   1.643  0.2440 -0.6474  0.0086
   67MOL   C30142673   6.827   1.237   1.799  0.1181  0.0058  0.1897
   67MOL   C30242674   6.845   1.375   1.863  0.2761  0.6580 -0.1109
   67MOL   N30342675   6.865   1.358   2.005  0.4645  0.6518  0.1026
   67MOL   H30442676   6.813   1.376   0.857  0.3864 -0.2189 -0.2579
   67MOL   H30542677   6.945   1.439   0.949 -0.1239 -0.4588  2.0812
   67MOL   H30642678   6.811   1.443   1.151 -1.8131 -1.1119  1.6166
   67MOL   H30742679   6.666   1.408   1.062  0.0571 -0.7661  1.8419
   67MOL   H30842680   6.913   1.222   1.066  0.4270 -0.9407  0.4805
   67MOL   H30942681   6.768   1.189   0.980 -0.4745 -0.9063  0.2874
   67MOL   H31042682   6.762   1.051   1.185 -0.7211  0.3193 -1.8934
   67MOL   H31142683   6.642   1.178   1.205  0.0653  1.2894 -1.8264
   67MOL   H31242684   6.658   1.104   1.414  0.7345 -0.2094 -0.7593
   67MOL   H31342685   6.893   1.068   1.563  0.7886  2.5026 -0.2745
   67MOL   H31442686   6.720   1.048   1.604 -1.1710  2.0705 -0.0319
   67MOL   H31542687   6.882   1.314   1.600 -0.0364 -1.5368 -1.8991
   67MOL   H31642688   6.718   1.309   1.622 -0.7839 -2.2736 -0.4207
   67MOL   H31742689   6.914   1.171   1.807 -0.1253 -0.2562  0.7581
   67MOL   H31842690   6.747   1.179   1.846  1.9202  0.2813  3.7636
   67MOL   H31942691   6.749   1.426   1.850 -0.6322 -1.2813 -1.3455
   67MOL   H32042692   6.920   1.435   1.812  0.9831  1.0100  1.3386
   67MOL   H32142693   6.781   1.356   2.062  1.1736 -2.7295  1.1246
   67MOL   C32242694   6.983   1.317   2.052  0.6681 -0.2665  0.0601
   67MOL   O32342695   7.086   1.307   1.985 -0.5470  0.4075 -0.1602
   67MOL   C32442696   6.987   1.277   2.199  0.0454  0.1457 -0.2420
   67MOL   C32542697   7.046   1.136   2.218  0.9204  0.4325  0.4945
   67MOL   C32642698   7.086   1.105   2.368 -0.5783 -0.1510 -0.1212
   67MOL   C32742699   6.968   1.099   2.473  0.2250  0.0643  0.9377
   67MOL   C32842700   6.999   1.013   2.594  0.3360 -0.5076  0.1665
   67MOL   O32942701   6.944   0.906   2.605 -0.0422  0.2848 -0.0695
   67MOL   N33042702   7.076   1.063   2.695 -0.0644 -0.2268 -0.0876
   67MOL   C33142703   7.104   0.988   2.816  0.2269 -0.6638  0.0860
   67MOL   C33242704   7.143   1.074   2.934 -0.2971 -0.3705  0.6970
   67MOL   C33342705   7.160   1.007   3.068 -0.1223  0.1775 -0.2656
   67MOL   C33442706   7.163   1.096   3.197 -0.5286 -0.0771 -0.1520
   67MOL   N33542707   7.121   1.017   3.309  0.3855 -0.1272  0.1199
   67MOL   H33642708   7.053   1.346   2.253  0.1141 -1.8237  2.2517
   67MOL   H33742709   6.888   1.291   2.242  0.6721  3.5381  0.2920
   67MOL   H33842710   6.967   1.064   2.197 -0.6673  2.5413 -0.9066
   67MOL   H33942711   7.133   1.113   2.158  0.9911  2.2548 -0.1404
   67MOL   H34042712   7.157   1.182   2.399 -0.0173  0.0674 -1.8906
   67MOL   H34142713   7.133   1.007   2.369  1.4280  0.7793  0.9466
   67MOL   H34242714   6.879   1.056   2.427 -1.0274  1.5440  1.8970
   67MOL   H34342715   6.936   1.201   2.496  0.8353  1.3057 -3.3277
   67MOL   H34442716   7.128   1.149   2.693  0.7276 -0.6425  1.8371
   67MOL   H34542717   7.179   0.914   2.788  2.0618  0.7496  1.1676
   67MOL   H34642718   7.021   0.921   2.839 -2.4039  2.2052 -0.7232
   67MOL   H34742719   7.237   1.123   2.910  0.4700 -2.0671  0.1642
   67MOL   H34842720   7.073   1.156   2.949 -0.7481 -0.2100 -2.1093
   67MOL   H34942721   7.245   0.940   3.060  0.0874  0.3802  0.2312
   67MOL   H35042722   7.079   0.936   3.083 -0.0466  0.1501  0.0056
   67MOL   H35142723   7.091   1.178   3.199  2.1397  2.3564  1.6130
   67MOL   H35242724   7.259   1.146   3.211 -0.0546 -0.8562 -0.5918
   67MOL   H35342725   7.023   1.002   3.329 -0.8028  2.6349 -3.1897
   67MOL   C35442726   7.202   0.953   3.391  0.3587 -0.5736 -0.0637
   67MOL   O35542727   7.327   0.965   3.387  0.3152 -0.7655 -0.8395
   67MOL   C35642728   7.130   0.865   3.500  0.2994  0.6706 -0.1188
   67MOL   C35742729   7.106   0.932   3.633 -0.0927  0.0799 -0.2079
   67MOL   C35842730   7.239   0.934   3.717  0.4891 -0.0917 -0.2459
   67MOL   C35942731   7.239   0.826   3.825 -0.0338  0.0404 -0.2823
   67MOL   C36042732   7.211   0.687   3.777  0.3019 -0.2464 -0.0339
   67MOL   O36142733   7.297   0.637   3.698 -0.1732 -0.5557  0.1466
   67MOL   N36242734   7.094   0.624   3.792 -0.1786 -0.2740 -0.5340
   67MOL   C36342735   7.070   0.487   3.754  0.1626 -0.3258 -0.7095
   67MOL   C36442736   6.947   0.425   3.829 -0.2957 -0.1154 -0.2513
   67MOL   C36542737   6.907   0.281   3.791 -0.6125  0.3485 -0.7979
   67MOL   C36642738   6.964   0.187   3.892 -0.2802  0.1167 -0.1001
   67MOL   N36742739   6.925   0.045   3.856 -0.1448 -0.7399  0.0576
   67MOL   H36842740   7.037   0.849   3.445 -0.0221  1.0523  0.3086
   67MOL   H36942741   7.184   0.771   3.509  0.0933  0.6839  1.5211
   67MOL   H37042742   7.068   1.033   3.617  1.4028  0.5730 -0.7052
   67MOL   H37142743   7.020   0.888   3.682  0.1995 -0.8099 -0.4757
   67MOL   H37242744   7.258   1.032   3.761  0.1730  0.1229 -0.5762
   67MOL   H37342745   7.316   0.923   3.640  2.1824 -0.9828  1.5452
   67MOL   H37442746   7.178   0.843   3.914  2.5574  0.0176  1.5610
   67MOL   H37542747   7.337   0.830   3.873 -0.9268  1.4788  1.5344
   67MOL   H37642748   7.017   0.668   3.840  0.7563 -0.7574  1.4641
   67MOL   H37742749   7.156   0.420   3.753  0.4936  0.0623  0.6086
   67MOL   H37842750   7.047   0.478   3.648 -1.7674  0.3991 -0.3739
   67MOL   H37942751   6.960   0.437   3.936 -1.3329  1.5475 -0.2856
   67MOL   H38042752   6.875   0.506   3.817 -0.7999 -0.7102 -1.3522
   67MOL   H38142753   6.953   0.253   3.695  1.7932 -0.1353  0.4413
   67MOL   H38242754   6.799   0.282   3.795 -0.5695 -0.8935  1.9469
   67MOL   H38342755   6.929   0.205   3.994  0.2849  2.2391 -0.2623
   67MOL   H38442756   7.071   0.188   3.917 -0.7991 -1.0748  2.3549
   67MOL   H38542757   6.995   7.699   3.801  0.2071  0.1060 -0.2424
   67MOL   C38642758   6.806   7.690   3.878 -0.3248 -0.3291  0.2396
   67MOL   O38742759   6.718   0.046   3.940 -0.2561 -0.8669  0.1203
   67MOL   C38842760   6.780   7.555   3.807  0.2698 -0.1225  0.6855
   67MOL   C38942761   6.647   7.552   3.735 -0.5087 -0.2274 -0.6180
   67MOL   C39042762   6.646   7.632   3.602 -0.1398  0.2616  0.9358
   67MOL   C39142763   6.742   7.596   3.493 -0.2630  0.1692  1.0047
   67MOL   C39242764   6.707   7.666   3.362 -0.1254  0.3164 -0.0014
   67MOL   O39342765   6.714   0.091   3.357 -0.4328 -0.6801 -0.2246
   67MOL   N39442766   6.674   7.594   3.249 -0.2639 -0.5678 -0.1319
   67MOL   C39542767   6.628   7.648   3.121  0.0440  0.2427 -1.0216
   67MOL   C39642768   6.745   7.653   3.021  0.0303  0.1860  0.0765
   67MOL   C39742769   6.716   7.695   2.874 -0.3698 -0.3235 -0.2081
   67MOL   C39842770   6.839   0.032   2.801 -0.2664 -0.4268  0.2755
   67MOL   N39942771   6.805   0.058   2.666  0.0739 -0.5186  0.0267
   67MOL   H40042772   6.852   7.528   3.730 -0.5704  1.8067 -0.8004
   67MOL   H40142773   6.795   7.479   3.885  0.3292 -0.9940 -0.1672
   67MOL   H40242774   6.611   7.451   3.719 -1.4714  0.2134 -1.2130
   67MOL   H40342775   6.567   7.586   3.801  0.2179  0.7284 -0.2152
   67MOL   H40442776   6.645   0.038   3.624  0.5079  0.7649 -1.3858
   67MOL   H40542777   6.548   7.615   3.558 -0.0527  0.8399  0.5078
   67MOL   H40642778   6.742   7.491   3.464 -0.5646 -0.6021  3.6552
   67MOL   H40742779   6.844   7.612   3.528  1.0619 -0.3951 -2.3448
   67MOL   H40842780   6.682   7.493   3.255 -1.4007 -0.5686  1.8741
   67MOL   H40942781   6.583   0.044   3.145 -2.6708 -0.8847 -1.3633
   67MOL   H41042782   6.547   7.585   3.085 -0.3428  0.3506 -0.3531
   67MOL   H41142783   6.822   0.006   3.075 -0.8606  1.3372  0.2221
   67MOL   H41242784   6.790   7.555   3.009  0.2673  0.5207 -1.9224
   67MOL   H41342785   6.658   0.085   2.882  2.9706  1.6935  2.1358
   67MOL   H41442786   6.648   7.621   2.831 -1.0185  1.1217 -1.6925
   67MOL   H41542787   6.922   7.663   2.800  1.9209  2.0897  0.8043
   67MOL   H41642788   6.871   0.128   2.841  1.2058  0.3884 -2.6930
   67MOL   H41742789   6.712   0.047   2.628 -0.4119  2.4134  0.2532
   67MOL   C41842790   6.899   0.099   2.575  0.7412 -0.3839 -0.0193
   67MOL   O41942791   7.022   0.117   2.591 -0.2720 -0.5127  0.1324
   67MOL   C42042792   6.844   0.120   2.432  0.0163 -0.0403  0.6777
   67MOL   C42142793   6.838   0.275   2.390  0.0155  0.0450  0.5975
   67MOL   C42242794   6.725   0.354   2.462  0.0041 -0.1513  0.5689
   67MOL   C42342795   6.721   0.505   2.430 -0.1386  0.2047  0.4183
   67MOL   C42442796   6.624   0.585   2.512 -0.0086 -0.2445 -0.1625
   67MOL   O42542797   6.591   0.545   2.624  0.0785 -0.0442  0.0663
   67MOL   N42642798   6.569   0.694   2.461  0.4440 -0.5979 -0.2832
   67MOL   C42742799   6.489   0.794   2.535  1.0016  0.1645 -0.0349
   67MOL   C42842800   6.333   0.758   2.528 -0.0377  0.1006  0.3747
   67MOL   C42942801   6.252   0.837   2.628  0.1230 -0.3820  0.3026
   67MOL   C43042802   6.110   0.793   2.634  0.6552 -0.0888 -0.2541
   67MOL   N43142803   6.057   0.780   2.502 -0.4622  0.4174 -0.6333
   67MOL   H43242804   6.909   0.078   2.356 -0.4993 -0.5351  0.5099
   67MOL   H43342805   6.741   0.091   2.409 -0.6801  1.2686  2.0280
   67MOL   H43442806   6.937   0.319   2.398 -1.3032  3.5623 -1.4585
   67MOL   H43542807   6.828   0.277   2.281 -2.8939 -0.4712  0.7928
   67MOL   H43642808   6.742   0.342   2.569  2.6629  1.6164  0.3845
   67MOL   H43742809   6.630   0.305   2.437 -0.3511  1.0939 -0.6134
   67MOL   H43842810   6.700   0.515   2.323  1.2451 -1.8085 -0.0702
   67MOL   H43942811   6.818   0.542   2.464 -0.2147  3.2996 -2.4274
   67MOL   H44042812   6.590   0.722   2.366 -0.6344 -2.0479 -0.9624
   67MOL   H44142813   6.504   0.894   2.496  2.4057 -0.0366 -0.0215
   67MOL   H44242814   6.523   0.790   2.639 -0.8436 -0.7594  0.5673
   67MOL   H44342815   6.286   0.764   2.430  0.8787 -2.3402 -0.2442
   67MOL   H44442816   6.325   0.652   2.550  1.0873  0.0838  0.7374
   67MOL   H44542817   6.266   0.944   2.608 -1.3828  0.1240  1.8000
   67MOL   H44642818   6.304   0.843   2.723 -0.2474 -2.0582  0.6197
   67MOL   H44742819   6.046   0.863   2.687 -0.7193 -3.1330  2.3184
   67MOL   H44842820   6.119   0.694   2.679  1.8510  0.3141  0.4204
   67MOL   H44942821   6.069   0.687   2.463 -0.8726  0.0128  0.2116
   67MOL   C45042822   5.982   0.871   2.424  0.6579 -0.0094 -0.0507
   67MOL   O45142823   5.955   0.987   2.462 -0.1197  0.3453  0.5341
   67MOL   C45242824   5.917   0.810   2.298  0.0879 -0.1848  0.6258
   67MOL   C45342825   5.946   0.898   2.173 -0.4819 -1.2041  0.1826
   67MOL   C45442826   6.089   0.864   2.122  1.0234 -0.0979  0.3965
   67MOL   C45542827   6.124   0.927   1.988 -0.1936 -0.7675  0.2797
   67MOL   C45642828   6.255   0.873   1.930 -0.7607  0.1056 -1.0343
   67MOL   O45742829   6.268   0.749   1.922 -0.0961 -0.6545 -0.1365
   67MOL   N45842830   6.344   0.954   1.869  0.0327  0.4384  0.2476
   67MOL   C45942831   6.454   0.923   1.778 -0.4678  0.0903 -0.4010
   67MOL   C46042832   6.411   0.953   1.630 -0.3757  0.3442  0.0415
   67MOL   C46142833   6.319   0.837   1.572  0.0733 -0.3511 -0.4885
   67MOL   C46242834   6.273   0.842   1.426  0.0889 -0.1927 -0.2263
   67MOL   N46342835   6.385   0.863   1.330  0.7252 -0.5466 -0.3072
   67MOL   H46442836   5.961   0.711   2.286  0.0387 -0.0405 -0.7478
   67MOL   H46542837   5.810   0.799   2.316 -0.4338  0.5054 -1.8394
   67MOL   H46642838   5.872   0.888   2.094  0.1659 -0.8372 -0.4829
   67MOL   H46742839   5.954   1.004   2.200 -0.9451 -1.2961  0.6898
   67MOL   H46842840   6.092   0.756   2.110  0.2783 -0.1877  0.9461
   67MOL   H46942841   6.166   0.885   2.196 -0.8402  0.7215  2.1724
   67MOL   H47042842   6.124   1.036   1.994 -2.5625 -0.7040 -0.2227
   67MOL   H47142843   6.052   0.896   1.912 -0.5763 -2.2655  1.2247
   67MOL   H47242844   6.322   1.052   1.875 -0.5696  0.2617  1.1136
   67MOL   H47342845   6.491   0.823   1.799  1.6551  0.8089 -0.6262
   67MOL   H47442846   6.532   0.993   1.807 -1.3467  1.1657 -0.5936
   67MOL   H47542847   6.363   1.050   1.616  0.7317  0.9571  0.3794
   67MOL   H47642848   6.508   0.956   1.579  1.2080 -1.7584  2.8025
   67MOL   H47742849   6.230   0.824   1.634  0.6413 -1.5992  0.0566
   67MOL   H47842850   6.369   0.741   1.579  0.1921 -0.4977 -2.7794
   67MOL   H47942851   6.201   0.922   1.404 -1.1939 -1.4609 -0.7115
   67MOL   H48042852   6.220   0.752   1.396 -2.2763  1.5003 -1.3439
   67MOL   H48142853   6.406   0.954   1.292 -3.4673 -0.3194 -2.3784
   67MOL   C48242854   6.443   0.763   1.263 -0.4358 -0.3396  0.1161
   67MOL   O48342855   6.426   0.639   1.279  0.3378 -0.5202  0.0383
   67MOL   C48442856   6.530   0.818   1.153  0.4496 -0.0822  0.4967
   67MOL   C48542857   6.576   0.724   1.039  0.5681 -0.3675  0.0369
   67MOL   C48642858   6.661   0.801   0.943  1.1509  0.4594 -0.5295
   67MOL   C48742859   6.698   0.738   0.805  0.4942 -0.3304  0.0261
   67MOL   C48842860   6.785   0.615   0.821 -0.2278 -0.1299 -0.1844
   67MOL   O48942861   6.879   0.602   0.900 -0.2176 -0.2598  0.1627
   67MOL   N49042862   6.754   0.519   0.738  0.1842 -0.3449  0.0589
   67MOL   C49142863   6.814   0.393   0.717 -0.2126  0.4779  0.2654
   67MOL   C49242864   6.741   0.280   0.780  0.7342  0.2785  0.2043
   67MOL   C49342865   6.727   0.297   0.937 -0.0142  0.5938  0.4533
   67MOL   C49442866   6.638   0.206   1.008  1.1227  0.0904 -0.0125
   67MOL   N49542867   6.683   0.068   0.990  0.0997  0.1827 -0.1493
   67MOL   H49642868   6.480   0.904   1.108 -1.5818 -1.8697 -0.7683
   67MOL   H49742869   6.614   0.861   1.207 -0.8780  0.5571  2.1240
   67MOL   H49842870   6.624   0.638   1.085 -0.7942 -0.3501  1.5319
   67MOL   H49942871   6.491   0.692   0.979  0.7386 -1.0147  0.1370
   67MOL   H50042872   6.758   0.833   0.979  1.1110  0.3053 -0.2897
   67MOL   H50142873   6.613   0.893   0.908  0.3344  1.2771  2.5583
   67MOL   H50242874   6.758   0.811   0.753  0.2178  0.2793  0.5534
   67MOL   H50342875   6.614   0.719   0.738  0.7256 -0.4264 -0.2378
   67MOL   H50442876   6.677   0.537   0.676  0.2390 -0.2673  0.0135
   67MOL   H50542877   6.920   0.407   0.736  0.0872 -0.7119 -0.4916
   67MOL   H50642878   6.801   0.384   0.609  0.4857  3.3051 -0.0969
   67MOL   H50742879   6.645   0.275   0.728  0.1586  2.5600  0.9954
   67MOL   H50842880   6.794   0.188   0.754 -2.0367 -1.1004 -0.8386
   67MOL   H50942881   6.678   0.391   0.960 -1.6721 -0.2838  0.6085
   67MOL   H51042882   6.827   0.305   0.978  0.8022 -1.4478 -1.0521
   67MOL   H51142883   6.537   0.217   0.969  1.7481 -0.0999 -1.7416
   67MOL   H51242884   6.636   0.232   1.113 -0.2800 -0.9890  0.2372
   67MOL   H51342885   6.763   0.034   1.041 -0.5157  0.2863  0.8940
   67MOL   C51442886   6.612   7.671   0.934  0.0110  0.4327  0.1732
   67MOL   O51542887   6.507   7.680   0.869 -0.1522  0.0206  0.5300
   67MOL   C51642888   6.690   7.540   0.943  0.7192  0.0719  0.0515
   67MOL   C51742889   6.636   7.425   0.860  0.2466  0.0082  0.0696
   67MOL   C51842890   6.651   7.437   0.710  0.5199  0.1781  0.1355
   67MOL   C51942891   6.601   7.317   0.611 -0.6577 -0.0651  0.0913
   67MOL   C52042892   6.665   7.188   0.629  0.0660 -0.0455  0.1905
   67MOL   O52142893   6.776   7.180   0.677 -0.4174  0.3046  0.4638
   67MOL   N52242894   6.593   7.080   0.600 -0.5400 -0.2258  0.6854
   67MOL   C52342895   6.631   6.940   0.614 -0.5629 -0.0855  0.2420
   67MOL   C52442896   6.544   6.844   0.542  0.5406  0.3174  0.4522
   67MOL   C52542897   6.573   6.702   0.582 -0.6112 -0.4664  0.6632
   67MOL   C52642898   6.712   6.644   0.556  0.1605  0.4945  0.1054
   67MOL   N52742899   6.715   6.502   0.571 -0.7213  0.1343  0.0532
   67MOL   H52842900   6.791   7.557   0.904 -0.0550 -2.2472 -3.0968
   67MOL   H52942901   6.698   7.507   1.046  2.3783 -0.4059 -0.2054
   67MOL   H53042902   6.693   7.334   0.880  1.2321  0.4804 -0.5612
   67MOL   H53142903   6.532   7.401   0.883 -0.4977 -0.1460 -3.1988
   67MOL   H53242904   6.758   7.437   0.691  0.3176  3.0686 -1.2774
   67MOL   H53342905   6.621   7.536   0.677 -1.8007  0.3881  2.7303
   67MOL   H53442906   6.616   7.348   0.508  1.6699 -0.0079  0.4301
   67MOL   H53542907   6.494   7.315   0.631 -0.8122 -1.0079 -0.8169
   67MOL   H53642908   6.503   7.105   0.561 -0.9662  1.3411  2.6184
   67MOL   H53742909   6.626   6.912   0.719  0.6690 -0.8484  0.1101
   67MOL   H53842910   6.733   6.927   0.578 -1.7607 -0.4097 -3.2525
   67MOL   H53942911   6.439   6.870   0.558 -0.7431 -2.6765 -2.5131
   67MOL   H54042912   6.576   6.860   0.439  1.4622  0.8549  0.8237
   67MOL   H54142913   6.510   6.643   0.517 -0.9750  2.0853 -1.4052
   67MOL   H54242914   6.535   6.675   0.681 -1.4393 -1.1738  0.1568
   67MOL   H54342915   6.792   6.680   0.620  0.0217  0.6406  0.1981
   67MOL   H54442916   6.742   6.670   0.455  0.8342  0.4556  0.2944
   67MOL   H54542917   6.689   6.466   0.662 -1.2525  0.7686  0.1588
   67MOL   C54642918   6.738   6.408   0.478 -0.2665 -0.0594  0.6842
   67MOL   O54742919   6.763   6.432   0.358  0.3440  0.4298  0.1394
   67MOL   C54842920   6.727   6.260   0.524 -0.1265 -0.1155 -0.2067
   67MOL   C54942921   6.806   6.155   0.440  0.0285  0.1662 -0.5899
   67MOL   C55042922   6.961   6.165   0.473 -0.1733  0.4425 -0.2337
   67MOL   C55142923   7.053   6.052   0.415 -0.0815  0.2977 -0.3690
   67MOL   C55242924   7.055   6.036   0.262  0.8101 -0.5874 -0.2958
   67MOL   O55342925   6.959   6.000   0.198 -0.2517 -0.2461 -0.4617
   67MOL   N55442926   7.174   6.070   0.205  0.3568 -0.3512  0.2101
   67MOL   C55542927   7.213   6.010   0.076  0.5839 -0.7015  0.1771
   67MOL   C55642928   7.353   5.946   0.083 -0.3172  0.0818 -0.4283
   67MOL   C55742929   7.426   5.950   7.648  0.0306  0.2853  0.6051
   67MOL   C55842930   7.575   5.894   7.660 -0.1506 -0.3583 -0.5969
   67MOL   N55942931   7.647   5.957   0.071 -0.1156  0.1439 -0.5095
   67MOL   H56042932   6.755   6.248   0.629 -0.7473  0.3596  0.0176
   67MOL   H56142933   6.624   6.226   0.531 -0.8526  1.5300 -2.2923
   67MOL   H56242934   6.790   6.053   0.474 -0.1667  0.2472 -0.4411
   67MOL   H56342935   6.780   6.146   0.335 -3.8376 -0.1224  0.3359
   67MOL   H56442936   6.962   6.156   0.581 -0.5296  1.7792 -0.1144
   67MOL   H56542937   7.008   6.260   0.449 -0.7136  0.5311 -0.9955
   67MOL   H56642938   7.029   5.955   0.458 -1.4689  0.1355 -1.4673
   67MOL   H56742939   7.152   6.089   0.444  0.3136 -0.3176 -0.9029
   67MOL   H56842940   7.238   6.121   0.263 -0.1582  0.0092  0.4637
   67MOL   H56942941   7.213   6.100   0.014 -2.9633 -0.8650 -0.1808
   67MOL   H57042942   7.133   5.943   0.042 -2.1111  2.0310  0.8730
   67MOL   H57142943   7.413   6.004   0.153  0.2218 -1.8539  0.7560
   67MOL   H57242944   7.354   5.847   0.127  0.2620  0.4820  0.4630
   67MOL   H57342945   7.437   6.052   7.612  0.1377 -0.2719 -0.9654
   67MOL   H57442946   7.360   5.897   7.579  0.4104  1.3561 -0.5876
   67MOL   H57542947   7.638   5.901   7.571  1.1178 -2.2995  0.1148
   67MOL   H57642948   7.568   5.789   7.685 -3.0209 -0.5224 -1.8062
   67MOL   H57742949   7.661   5.898   0.152 -0.6736  2.4813  1.3361
   67MOL   C57842950   7.695   6.083   0.067  0.8133  0.0545 -0.0015
   67MOL   O57942951   7.679   6.156   7.667  0.8288  0.3605 -0.6030
   67MOL   C58042952   0.057   6.141   0.196 -0.2686 -0.4091 -0.6843
   67MOL   C58142953   0.147   6.269   0.174 -0.0145  0.4685 -0.2905
   67MOL   C58242954   0.292   6.226   0.125 -0.6361 -0.7092 -0.3473
   67MOL   C58342955   0.394   6.344   0.130  0.4274  0.6172 -0.2229
   67MOL   C58442956   0.536   6.319   0.070  0.0496 -0.4511  0.2121
   67MOL   O58542957   0.597   6.217   0.080  0.2498  0.0664  0.2699
   67MOL   N58642958   0.587   6.423   0.007 -0.7317  0.3185  0.3716
   67MOL   C58742959   0.712   6.440   7.644 -0.0775  0.4655 -0.0560
   67MOL   C58842960   0.828   6.492   0.024  0.0765 -0.1718  0.1752
   67MOL   C58942961   0.796   6.635   0.070 -0.2909 -0.1073  0.1913
   67MOL   C59042962   0.919   6.705   0.131 -0.4663  0.0222  0.7231
   67MOL   N59142963   0.883   6.836   0.180 -0.2422 -0.1406  1.1180
   67MOL   H59242964   7.671   6.166   0.256 -0.0586 -1.3821  0.0235
   67MOL   H59342965   0.105   6.072   0.265  0.3390 -1.3637 -2.0410
   67MOL   H59442966   0.112   6.343   0.102  0.7743 -0.3827 -1.5830
   67MOL   H59542967   0.173   6.322   0.265  2.5738  3.4007 -2.5917
   67MOL   H59642968   0.285   6.180   0.027  2.5412  0.5264 -1.2207
   67MOL   H59742969   0.337   6.141   0.176  1.9252 -0.2026 -1.6692
   67MOL   H59842970   0.416   6.363   0.235  0.0380 -1.3090  0.2263
   67MOL   H59942971   0.354   6.434   0.084  1.5105  0.9296 -0.5654
   67MOL   H60042972   0.524   6.499   7.687 -1.3881 -0.1769  0.5339
   67MOL   H60142973   0.708   6.519   7.569  0.0844  0.7816  0.2687
   67MOL   H60242974   0.735   6.343   7.602 -2.3389 -0.4021  0.6207
   67MOL   H60342975   0.853   6.430   0.110  1.1526 -1.8658 -1.3347
   67MOL   H60442976   0.918   6.495   7.664 -0.1806  1.9845 -0.1381
   67MOL   H60542977   0.720   6.638   0.148  0.0221 -0.2901  0.5049
   67MOL   H60642978   0.771   6.699   7.687 -0.6041 -0.7558 -0.2110
   67MOL   H60742979   0.995   6.715   0.053  0.9462  1.9692  2.2799
   67MOL   H60842980   0.974   6.650   0.207 -0.0742  1.4431  1.5008
   67MOL   H60942981   0.914   6.906   0.114 -0.3888 -2.5381 -1.6118
   67MOL   C61042982   0.815   6.861   0.293  0.2344  0.0807 -0.3865
   67MOL   O61142983   0.795   6.777   0.379 -0.1266  0.0798 -0.3588
   67MOL   C61242984   0.778   7.010   0.323  0.0421  0.5145 -0.2049
   67MOL   C61342985   0.723   7.038   0.465  0.2946 -0.6115 -0.2142
   67MOL   C61442986   0.700   7.189   0.493  0.1282  0.2413 -0.4506
   67MOL   C61542987   0.590   7.223   0.603  0.1339 -0.3773  0.1085
   67MOL   C61642988   0.447   7.162   0.570  0.1143  0.3084  0.3903
   67MOL   O61742989   0.415   7.045   0.598 -0.3839 -0.1287 -0.3151
   67MOL   N61842990   0.375   7.248   0.500  0.1247  0.2309 -0.6158
   67MOL   C61942991   0.238   7.226   0.458 -0.3676 -0.0411 -0.3114
   67MOL   C62042992   0.225   7.147   0.328 -0.1126 -0.3982 -0.0434
   67MOL   C62142993   0.074   7.121   0.299 -0.5188 -1.1944  0.5182
   67MOL   C62242994   0.052   7.034   0.169 -1.0919 -0.6548  0.3257
   67MOL   N62342995   7.612   7.033   0.134  0.5011 -0.8605 -0.4174
   67MOL   H62442996   0.863   7.074   0.301 -0.3058 -0.1275 -3.5941
   67MOL   H62542997   0.698   7.037   0.254 -0.1724  0.9063  0.1852
   67MOL   H62642998   0.635   6.976   0.477 -0.9083  1.0172 -0.3998
   67MOL   H62742999   0.789   7.004   0.545  0.4362 -0.3093 -0.2001
   67MOL   H62843000   0.686   7.245   0.400 -1.5413  0.8485  0.1625
   67MOL   H62943001   0.795   7.232   0.524 -0.3109  0.7783  0.1593
   67MOL   H63043002   0.593   7.329   0.627  0.2631 -0.5480  0.8647
   67MOL   H63143003   0.626   7.176   0.695 -0.4606  0.6458  0.8760
   67MOL   H63243004   0.399   7.345   0.486 -0.5530  0.5438  0.4056
   67MOL   H63343005   0.200   7.326   0.438  0.3332  0.4368  0.7308
   67MOL   H63443006   0.174   7.180   0.533  1.0417 -0.3651  0.7089
   67MOL   H63543007   0.273   7.210   0.253  0.3635 -0.2363  0.3882
   67MOL   H63643008   0.272   7.050   0.344 -0.8572 -0.6104  0.9117
   67MOL   H63743009   0.023   7.217   0.290 -0.2647 -0.9120  1.9173
   67MOL   H63843010   0.032   7.061   0.379  2.6262 -2.0690  1.5971
   67MOL   H63943011   0.087   6.938   0.208 -2.1617 -0.0551  2.8789
   67MOL   H64043012   0.120   7.058   0.088  0.3770  2.4373  2.3667
   67MOL   H64143013   7.607   7.018   0.034 -2.0237  0.5647 -0.5478
   67MOL   H64243014   7.581   7.128   0.147  0.6796 -1.0001  1.0404
   68MOL     C143015   6.437   5.027   5.400  0.0512 -0.2136 -0.4234
   68MOL     O243016   6.357   4.945   5.345 -0.4924  0.1829 -0.2200
   68MOL     C343017   6.406   5.170   5.424 -0.1584  0.8661  0.3664
   68MOL     C443018   6.278   5.205   5.496 -1.3578  0.1378 -0.3730
   68MOL     C543019   6.141   5.150   5.444  0.3339  0.2389  1.2160
   68MOL     C643020   6.120   5.177   5.292  0.5402 -0.2015  0.6428
   68MOL     C743021   6.118   5.331   5.261 -0.0500 -0.8617 -0.6342
   68MOL     O843022   6.097   5.417   5.348 -0.1797  0.2569 -0.0123
   68MOL     N943023   6.133   5.362   5.132 -0.5156  0.5979 -0.3084
   68MOL    C1043024   6.106   5.489   5.074  0.4781  0.5412  0.1322
   68MOL    C1143025   6.235   5.578   5.082  0.6296 -0.2139 -0.1489
   68MOL    C1243026   6.372   5.529   5.031 -0.6443  0.4040  0.1670
   68MOL    C1343027   6.488   5.625   5.069 -0.3770 -0.2050  0.3354
   68MOL    N1443028   6.618   5.575   5.024 -0.2587  0.0772  0.0008
   68MOL    H1543029   6.487   5.206   5.487 -0.3804  1.1112  0.5146
   68MOL    H1643030   6.414   5.219   5.327  0.1674 -0.1109 -0.1053
   68MOL    H1743031   6.288   5.147   5.588 -0.0093  1.2882  0.2415
   68MOL    H1843032   6.262   5.310   5.522 -0.4502  0.7280 -2.1438
   68MOL    H1943033   6.051   5.185   5.493 -1.7949 -0.9194 -1.7555
   68MOL    H2043034   6.150   5.042   5.442  0.1876  0.2450 -0.1493
   68MOL    H2143035   6.022   5.139   5.263  0.3341  0.5096  0.3920
   68MOL    H2243036   6.198   5.135   5.228  0.2556 -1.6256  1.2237
   68MOL    H2343037   6.120   5.285   5.068 -1.5031 -0.2707  0.8975
   68MOL    H2443038   6.027   5.547   5.121 -1.0268 -1.2210 -0.1620
   68MOL    H2543039   6.082   5.465   4.970 -0.9428 -0.6890  0.7214
   68MOL    H2643040   6.210   5.673   5.034  1.8537  0.3566  0.3293
   68MOL    H2743041   6.254   5.600   5.187 -0.6952  1.2463 -0.1870
   68MOL    H2843042   6.363   5.495   4.927  1.8223  4.0855 -1.3390
   68MOL    H2943043   6.397   5.440   5.089 -0.2636 -0.2861 -1.0213
   68MOL    H3043044   6.483   5.648   5.175  0.0844  2.4321 -0.1767
   68MOL    H3143045   6.463   5.722   5.025 -2.2637 -1.4374 -1.3813
   68MOL    H3243046   6.669   5.520   5.091 -0.1991  0.1671  0.0259
   68MOL    H3343047   6.535   4.997   5.434  0.1599  0.3890 -0.2013
   68MOL    C3443048   6.677   5.583   4.903 -0.0386 -0.4423  0.2755
   68MOL    O3543049   6.618   5.618   4.806  0.5183 -0.6598 -0.0588
   68MOL    C3643050   6.814   5.525   4.883  0.3273  0.5177 -0.1528
   68MOL    C3743051   6.826   5.415   4.773  0.1597 -0.4834 -0.1999
   68MOL    C3843052   6.848   5.473   4.628 -0.1895  0.2988 -0.4649
   68MOL    C3943053   6.852   5.359   4.520 -0.6273 -0.1741 -0.4468
   68MOL    C4043054   6.727   5.273   4.511  0.1977  0.4399  0.0253
   68MOL    O4143055   6.617   5.326   4.483 -0.4249 -0.8526  0.1777
   68MOL    N4243056   6.740   5.141   4.540  0.4700  0.3216 -0.2164
   68MOL    C4343057   6.630   5.039   4.554 -0.5040  0.2286 -0.0648
   68MOL    C4443058   6.695   4.901   4.592 -0.7959 -0.0649 -0.3171
   68MOL    C4543059   6.591   4.786   4.616 -0.3647 -0.6633 -0.7196
   68MOL    C4643060   6.649   4.643   4.644 -0.3361 -0.1080 -0.3586
   68MOL    N4743061   6.702   4.641   4.777  0.0176  0.2027  0.1055
   68MOL    H4843062   6.872   5.615   4.861 -3.3846  2.9946 -0.1957
   68MOL    H4943063   6.842   5.484   4.980 -0.0876  1.1500  0.2375
   68MOL    H5043064   6.894   5.334   4.799  0.8765  0.4358  0.8843
   68MOL    H5143065   6.736   5.355   4.779  0.9222 -1.7622 -1.3270
   68MOL    H5243066   6.944   5.526   4.625 -0.6492  1.1128 -0.8289
   68MOL    H5343067   6.775   5.549   4.602 -2.1352 -1.7392 -1.1386
   68MOL    H5443068   6.935   5.291   4.533  0.2227  0.9543  0.1287
   68MOL    H5543069   6.867   5.420   4.430 -0.7293  1.7147  0.7841
   68MOL    H5643070   6.835   5.108   4.533  0.3521 -0.1505  0.3317
   68MOL    H5743071   6.569   5.033   4.464  1.0284 -1.5569 -1.0242
   68MOL    H5843072   6.572   5.080   4.636 -0.9372  0.6685 -0.5864
   68MOL    H5943073   6.761   4.872   4.510 -0.8370 -0.9115 -0.0580
   68MOL    H6043074   6.759   4.915   4.679 -0.0892 -3.0504 -0.3160
   68MOL    H6143075   6.531   4.776   4.526 -2.6814 -0.4847  0.7697
   68MOL    H6243076   6.525   4.818   4.696  0.8001  0.4852 -0.2006
   68MOL    H6343077   6.725   4.607   4.575  0.3495  1.1673 -0.2774
   68MOL    H6443078   6.569   4.569   4.638  0.0076 -0.6845  1.6993
   68MOL    H6543079   6.701   4.723   4.836 -0.5702  1.0669 -1.1028
   68MOL    C6643080   6.755   4.536   4.842  0.1241  0.5436 -0.5896
   68MOL    O6743081   6.737   4.423   4.793  0.4959 -0.5450  0.3252
   68MOL    C6843082   6.824   4.563   4.973  0.0971 -0.0872 -0.3948
   68MOL    C6943083   6.961   4.640   4.971  0.6557  0.4885 -0.1030
   68MOL    C7043084   7.088   4.549   4.940  0.4849 -0.8366 -0.4397
   68MOL    C7143085   7.215   4.635   4.925 -0.0411 -0.7235 -0.7364
   68MOL    C7243086   7.250   4.682   5.066  0.2242  0.5636 -0.3383
   68MOL    O7343087   7.284   4.594   5.143  0.0570 -0.3058 -0.3399
   68MOL    N7443088   7.235   4.809   5.091  0.4030  0.1768  0.8039
   68MOL    C7543089   7.244   4.876   5.219 -0.0572 -0.0213  0.2534
   68MOL    C7643090   7.253   5.025   5.213  0.0437  0.2907  0.4641
   68MOL    C7743091   7.227   5.081   5.356 -0.2645 -0.1222  0.5198
   68MOL    C7843092   7.215   5.232   5.351  0.2426  0.1055  0.0737
   68MOL    N7943093   7.087   5.274   5.386  0.1649  0.3516  0.2128
   68MOL    H8043094   6.751   4.624   5.027 -0.9573 -1.4216 -0.2857
   68MOL    H8143095   6.840   4.469   5.026  2.6582 -0.1410 -1.2295
   68MOL    H8243096   6.954   4.719   4.896  2.2296 -0.8636 -1.7386
   68MOL    H8343097   6.968   4.683   5.071  2.8316 -0.0702  0.0088
   68MOL    H8443098   7.073   4.502   4.843  0.0606 -0.3254 -0.6216
   68MOL    H8543099   7.102   4.457   4.997 -0.4324 -1.0158 -0.4804
   68MOL    H8643100   7.192   4.717   4.857 -0.4996  2.6002  3.2235
   68MOL    H8743101   7.294   4.568   4.892  1.0599  0.4028 -0.4271
   68MOL    H8843102   7.197   4.860   5.013  0.1799 -0.3807  0.5540
   68MOL    H8943103   7.331   4.838   5.272  0.5003 -0.4888 -0.9880
   68MOL    H9043104   7.155   4.839   5.270 -1.3733  1.2606 -1.0543
   68MOL    H9143105   7.353   5.049   5.176 -0.6876 -0.4578 -2.1069
   68MOL    H9243106   7.188   5.071   5.140 -0.0455  1.0081  0.9909
   68MOL    H9343107   7.302   5.069   5.434 -1.6585  1.0069  2.0546
   68MOL    H9443108   7.142   5.032   5.403 -0.3157 -0.1836  0.3611
   68MOL    H9543109   7.231   5.269   5.250  0.1699  1.5011  0.5557
   68MOL    H9643110   7.294   5.269   5.417  0.4923  0.0627 -0.2010
   68MOL    H9743111   7.068   5.260   5.484 -0.0008 -0.9248  0.0110
   68MOL    C9843112   6.978   5.292   5.311  0.4337  0.0133 -0.5185
   68MOL    O9943113   6.970   5.285   5.190  0.5638 -0.2109 -0.6148
   68MOL   C10043114   6.851   5.351   5.391  0.3673 -0.1138  0.6202
   68MOL   C10143115   6.831   5.297   5.533 -0.1798  0.3621 -0.3803
   68MOL   C10243116   6.831   5.143   5.547 -0.4007  0.6361  0.0834
   68MOL   C10343117   6.808   5.089   5.691  0.1669 -0.1472 -0.2219
   68MOL   C10443118   6.663   5.119   5.740  0.0621 -0.2485  0.0115
   68MOL   O10543119   6.568   5.049   5.694  0.1595 -0.3393  0.1692
   68MOL   N10643120   6.641   5.214   5.829  0.5255 -0.0232 -0.3714
   68MOL   C10743121   6.504   5.241   5.891 -0.4907 -1.1751  0.2162
   68MOL   C10843122   6.516   5.342   6.001  0.2989 -0.6750 -0.1654
   68MOL   C10943123   6.386   5.369   6.075 -0.3057  0.5606 -0.5030
   68MOL   C11043124   6.376   5.500   6.152  0.0149 -0.1914 -0.4754
   68MOL   N11143125   6.249   5.507   6.231 -0.6735  0.2106  0.7272
   68MOL   H11243126   6.875   5.456   5.410  1.9828 -0.6388  1.6047
   68MOL   H11343127   6.763   5.344   5.327  0.6626  1.2850  0.0300
   68MOL   H11443128   6.913   5.344   5.587 -0.7633  1.7169 -0.6405
   68MOL   H11543129   6.741   5.347   5.571 -0.5077 -1.3852  1.1920
   68MOL   H11643130   6.921   5.096   5.507 -1.0167 -0.5199  0.0191
   68MOL   H11743131   6.752   5.103   5.483 -1.0308 -0.9590  1.7820
   68MOL   H11843132   6.877   5.134   5.763 -0.4322  0.0618  0.2282
   68MOL   H11943133   6.821   4.981   5.692 -1.0914 -0.3206  2.4272
   68MOL   H12043134   6.720   5.269   5.862  0.3633 -0.3904  0.6441
   68MOL   H12143135   6.475   5.144   5.931 -0.9561 -0.8548  0.6637
   68MOL   H12243136   6.436   5.273   5.812 -0.2924 -0.5298  0.3043
   68MOL   H12343137   6.579   5.306   6.082 -1.4320 -0.6381  1.2232
   68MOL   H12443138   6.545   5.437   5.956 -0.6767 -1.7464 -3.1981
   68MOL   H12543139   6.380   5.282   6.141 -1.2801  0.3444 -0.8769
   68MOL   H12643140   6.300   5.367   6.008 -0.4203  3.5128 -0.5211
   68MOL   H12743141   6.377   5.588   6.088 -0.2582  0.4062  0.3289
   68MOL   H12843142   6.459   5.511   6.222  1.4087 -0.4253 -2.0601
   68MOL   H12943143   6.173   5.549   6.179 -2.4000 -2.7039  0.7268
   68MOL   C13043144   6.241   5.443   6.348 -0.0833 -0.0741  0.0606
   68MOL   O13143145   6.343   5.391   6.397  0.5550  0.3079  0.1940
   68MOL   C13243146   6.102   5.433   6.412  0.2188  0.6153 -0.3020
   68MOL   C13343147   6.084   5.521   6.543 -0.1071 -0.1281 -0.1886
   68MOL   C13443148   6.067   5.669   6.496  0.4071  0.0956 -0.3081
   68MOL   C13543149   6.037   5.759   6.611  0.5958  0.4935  0.0720
   68MOL   C13643150   6.016   5.904   6.567 -0.1943  0.2218 -0.5626
   68MOL   O13743151   6.115   5.979   6.559 -0.1664 -0.0637 -0.0209
   68MOL   N13843152   5.889   5.951   6.564  0.1418  0.4524  0.2327
   68MOL   C13943153   5.859   6.089   6.513  0.0253  0.0254 -0.0174
   68MOL   C14043154   5.848   6.191   6.625  0.2244 -0.5316  0.8479
   68MOL   C14143155   5.801   6.328   6.578  0.0123  0.4499  0.1755
   68MOL   C14243156   5.781   6.428   6.700 -0.5723  0.0755 -0.1156
   68MOL   N14343157   5.709   6.383   6.819  0.3969 -0.1189 -0.0031
   68MOL   H14443158   6.032   5.466   6.336  1.6208  3.4320 -0.4318
   68MOL   H14543159   6.070   5.332   6.439  0.2372  0.6665 -0.0941
   68MOL   H14643160   5.998   5.494   6.603  1.5939 -0.4717  2.1423
   68MOL   H14743161   6.172   5.527   6.608  0.0985  1.6981 -0.5912
   68MOL   H14843162   5.974   5.684   6.442 -0.5919  0.8107  1.5507
   68MOL   H14943163   6.149   5.700   6.431  0.5435 -1.3686 -0.8414
   68MOL   H15043164   6.121   5.758   6.680  0.2105  3.0432  0.6181
   68MOL   H15143165   5.951   5.723   6.668  1.1986  0.1100  0.7509
   68MOL   H15243166   5.830   5.870   6.551 -0.5592  1.1290 -0.9209
   68MOL   H15343167   5.756   6.076   6.478  0.0359  1.4792 -0.6617
   68MOL   H15443168   5.923   6.127   6.433 -0.2115 -0.7514 -0.5777
   68MOL   H15543169   5.774   6.165   6.701  0.6913 -0.6304  1.2620
   68MOL   H15643170   5.945   6.211   6.669  0.1763 -1.4643  1.3983
   68MOL   H15743171   5.704   6.325   6.529 -0.5266 -0.0177  1.2577
   68MOL   H15843172   5.885   6.361   6.516  1.1440  0.7278  1.8415
   68MOL   H15943173   5.740   6.523   6.666  1.3950  0.6355 -0.9968
   68MOL   H16043174   5.881   6.455   6.734 -0.7578  0.8085 -0.1512
   68MOL   H16143175   5.754   6.406   6.906 -0.1660 -1.5634  0.6786
   68MOL   C16243176   5.582   6.361   6.834 -0.2597  0.2034 -0.6093
   68MOL   O16343177   5.509   6.372   6.736 -0.1761  0.3170  0.2398
   68MOL   C16443178   5.526   6.339   6.974  0.5177  0.2008 -0.5798
   68MOL   C16543179   5.486   6.188   6.990 -0.4905 -0.3281  0.3305
   68MOL   C16643180   5.393   6.180   7.112  0.0455  0.0046 -0.8700
   68MOL   C16743181   5.329   6.037   7.130  0.8395  0.2556 -0.3454
   68MOL   C16843182   5.236   6.030   7.248  0.1997  0.4960  0.4131
   68MOL   O16943183   5.140   6.104   7.266  0.1302 -0.1173 -0.3001
   68MOL   N17043184   5.264   5.930   7.326 -0.2414  0.5658  0.2580
   68MOL   C17143185   5.207   5.907   7.458  0.3745  0.3380 -0.7364
   68MOL   C17243186   5.207   5.756   7.487 -0.2670 -0.1879 -0.1504
   68MOL   C17343187   5.126   5.685   7.599 -0.1186 -0.5399  0.4688
   68MOL   C17443188   4.978   5.688   7.564  0.2991 -0.3586 -0.0175
   68MOL   N17543189   4.895   5.606   7.659 -0.5191 -0.3977  0.1359
   68MOL   H17643190   5.600   6.364   7.049 -0.6448  2.1616 -0.0625
   68MOL   H17743191   5.443   6.405   6.997  1.2322  1.4501 -1.5388
   68MOL   H17843192   5.431   6.160   6.901  2.0953 -1.2977 -1.0041
   68MOL   H17943193   5.575   6.125   6.994  0.4973  1.0096 -0.1869
   68MOL   H18043194   5.316   6.256   7.108 -3.3469 -3.0105  2.4453
   68MOL   H18143195   5.448   6.202   7.204 -0.4429  0.6345 -0.7322
   68MOL   H18243196   5.406   5.961   7.143 -0.2593 -1.0147 -1.1374
   68MOL   H18343197   5.273   6.011   7.040 -0.2373  0.1990  0.3325
   68MOL   H18443198   5.334   5.862   7.300 -2.2861 -1.4798 -0.0149
   68MOL   H18543199   5.102   5.934   7.469  0.8580  1.2380  1.8849
   68MOL   H18643200   5.268   5.953   7.535 -0.9692 -0.7173  0.9888
   68MOL   H18743201   5.167   5.708   7.398 -2.1971  1.6698 -0.3266
   68MOL   H18843202   5.312   5.730   7.494 -0.3572 -0.5628 -0.1704
   68MOL   H18943203   5.132   5.744   7.690 -2.7101  0.5216  0.0062
   68MOL   H19043204   5.180   5.590   7.600 -1.3307 -1.2262  2.6004
   68MOL   H19143205   4.953   5.659   7.462 -1.5078 -0.6747  0.5016
   68MOL   H19243206   4.948   5.792   7.572  1.1484 -0.0342 -0.9017
   68MOL   H19343207   4.850   5.518   7.635 -1.8173  0.2578  0.1362
   68MOL   C19443208   4.860   5.641   0.080  0.3907  0.9016  0.4267
   68MOL   O19543209   4.887   5.756   0.128  0.4449 -0.0484 -0.3509
   68MOL   C19643210   4.766   5.553   0.153  0.6832 -0.8696  0.2072
   68MOL   C19743211   4.617   5.605   0.156 -0.2663  0.5334  0.1290
   68MOL   C19843212   4.545   5.606   0.023 -0.3591  0.4538 -0.5587
   68MOL   C19943213   4.396   5.658   0.033  0.2181  0.2840 -0.1532
   68MOL   C20043214   4.324   5.621   7.602  0.3438 -0.2047 -0.3781
   68MOL   O20143215   4.277   5.510   7.598  0.1312 -0.1871 -0.5252
   68MOL   N20243216   4.294   5.718   7.517  0.5326  0.3433  0.0491
   68MOL   C20343217   4.202   5.685   7.411 -0.4538 -0.3931  0.1447
   68MOL   C20443218   4.168   5.818   7.345 -0.3284  0.3490  0.6953
   68MOL   C20543219   4.096   5.793   7.214 -0.5895  0.4429 -1.1712
   68MOL   C20643220   4.190   5.786   7.098 -0.5171  0.0167 -0.0660
   68MOL   N20743221   4.130   5.734   6.974  0.1234 -0.1645 -0.3799
   68MOL   H20843222   4.760   5.458   0.100  1.5391 -1.3476  0.9654
   68MOL   H20943223   4.812   5.536   0.250 -0.2664  1.7952  1.1742
   68MOL   H21043224   4.561   5.534   0.217 -0.7184  0.3319 -0.5217
   68MOL   H21143225   4.615   5.696   0.217 -1.9364 -0.7353  2.0164
   68MOL   H21243226   4.540   5.512   7.670  1.5924  1.5168 -2.6361
   68MOL   H21343227   4.599   5.669   7.653  0.8932 -1.4664 -1.3262
   68MOL   H21443228   4.398   5.765   0.052 -0.9359  0.1101  0.9929
   68MOL   H21543229   4.343   5.605   0.112 -0.9976 -2.1030 -2.4829
   68MOL   H21643230   4.338   5.809   7.528  1.6821 -0.3319  1.1303
   68MOL   H21743231   4.110   5.648   7.456 -0.2572  0.7642  1.5323
   68MOL   H21843232   4.250   5.622   7.336 -2.1688 -1.6515  0.0657
   68MOL   H21943233   4.115   5.888   7.411  1.4139  0.8367  1.6055
   68MOL   H22043234   4.261   5.870   7.323 -0.3292 -0.2431 -0.7306
   68MOL   H22143235   4.023   5.872   7.197 -0.4958  0.9498  0.6429
   68MOL   H22243236   4.036   5.702   7.225 -1.4503  1.1736  0.3267
   68MOL   H22343237   4.281   5.731   7.124 -1.3015 -0.5451  1.6206
   68MOL   H22443238   4.225   5.887   7.080  0.3433 -0.4127 -0.8785
   68MOL   H22543239   4.047   5.680   6.989 -1.6835  2.4238 -0.6594
   68MOL   C22643240   4.178   5.757   6.850  0.3982  0.0612  0.5379
   68MOL   O22743241   4.290   5.812   6.830 -0.3653  0.0602  0.4639
   68MOL   C22843242   4.099   5.691   6.737 -0.4756 -0.6157 -0.2474
   68MOL   C22943243   4.152   5.736   6.599 -0.1440  0.3209  0.3280
   68MOL   C23043244   4.112   5.645   6.482  0.8514  1.0087  0.8550
   68MOL   C23143245   3.962   5.661   6.449 -0.4724  0.2969  0.0027
   68MOL   C23243246   3.909   5.578   6.332 -0.5935  0.0253 -0.4314
   68MOL   O23343247   3.895   5.458   6.341  0.3293  0.9680 -0.0596
   68MOL   N23443248   3.870   5.644   6.222 -0.6109 -0.3094 -0.6169
   68MOL   C23543249   3.834   5.585   6.093  0.0099  1.0572 -0.0182
   68MOL   C23643250   3.682   5.583   6.067 -0.3416 -0.6038 -0.0865
   68MOL   C23743251   3.644   5.554   5.921 -0.3284  0.4208  0.4052
   68MOL   C23843252   3.625   5.400   5.893  0.0781 -0.4593  0.3409
   68MOL   N23943253   3.750   5.324   5.925  0.3753 -0.2193 -0.2470
   68MOL   H24043254   4.099   5.582   6.748  1.3549 -0.4909  1.0695
   68MOL   H24143255   3.993   5.714   6.751 -1.1457 -1.6374 -3.3083
   68MOL   H24243256   4.120   5.839   6.580 -0.7377  0.1623  0.4901
   68MOL   H24343257   4.261   5.739   6.602 -0.1346  0.1375  0.1695
   68MOL   H24443258   4.131   5.541   6.512 -0.4933  0.3747 -0.4925
   68MOL   H24543259   4.175   5.669   6.396 -0.5297  0.9811 -0.1646
   68MOL   H24643260   3.959   5.768   6.429  3.3784  0.5245  0.3354
   68MOL   H24743261   3.909   5.635   6.540 -2.1556  0.2485 -0.9526
   68MOL   H24843262   3.891   5.743   6.225 -3.9661  0.4892 -1.9998
   68MOL   H24943263   3.881   5.487   6.092 -0.4334  0.8279  0.9893
   68MOL   H25043264   3.896   5.623   6.011  1.3431  1.0909  0.9749
   68MOL   H25143265   3.627   5.533   6.147 -0.1495 -1.2063 -0.3207
   68MOL   H25243266   3.664   5.689   6.082 -2.5938 -0.5605 -2.7813
   68MOL   H25343267   3.718   5.604   5.859 -2.5191  1.8856 -1.1440
   68MOL   H25443268   3.543   5.592   5.900 -2.0378 -1.9030  3.8951
   68MOL   H25543269   3.615   5.382   5.786 -0.1950 -0.9155  0.4431
   68MOL   H25643270   3.544   5.355   5.950 -0.7181  0.0596 -0.3708
   68MOL   H25743271   3.831   5.376   5.955 -0.4587 -0.1133  1.9946
   68MOL   C25843272   3.751   5.193   5.938  0.2161 -0.4445 -0.3041
   68MOL   O25943273   3.647   5.121   5.924  0.0569 -0.3030 -0.8304
   68MOL   C26043274   3.889   5.123   5.968  0.3582  0.3284 -0.2028
   68MOL   C26143275   3.870   5.044   6.089 -0.2490  0.1511 -1.3090
   68MOL   C26243276   3.887   5.123   6.226 -0.3170  0.3627  0.5520
   68MOL   C26343277   3.887   5.022   6.345 -0.0491 -0.4774 -0.4548
   68MOL   C26443278   3.925   5.068   6.487 -0.0537  0.7228  0.4126
   68MOL   O26543279   3.893   5.004   6.585 -0.2754 -0.1258  0.0806
   68MOL   N26643280   4.010   5.175   6.487 -0.5182  0.2261 -0.5112
   68MOL   C26743281   4.056   5.249   6.602  0.9913  0.3817 -0.1095
   68MOL   C26843282   4.206   5.252   6.581 -0.3517 -0.1917  0.1789
   68MOL   C26943283   4.278   5.330   6.687  0.2944 -0.6120 -0.3288
   68MOL   C27043284   4.431   5.320   6.683  0.6456  0.1203 -0.5186
   68MOL   N27143285   4.490   5.429   6.759 -0.2027 -0.0259 -0.7880
   68MOL   H27243286   3.912   5.054   5.887 -0.1770  2.1920 -2.0059
   68MOL   H27343287   3.962   5.203   5.978 -2.6064  3.1061  0.0196
   68MOL   H27443288   3.771   4.998   6.093 -1.7033  3.1707 -0.6932
   68MOL   H27543289   3.944   4.965   6.089 -0.9954 -0.7352  3.7205
   68MOL   H27643290   3.815   5.202   6.244  0.3380  1.1634 -0.2484
   68MOL   H27743291   3.981   5.178   6.233  0.3511 -0.7722  0.6882
   68MOL   H27843292   3.947   4.936   6.315 -1.0778 -0.9730 -1.1002
   68MOL   H27943293   3.785   4.985   6.354 -0.6813  1.4579  0.5569
   68MOL   H28043294   4.036   5.224   6.402  1.1255 -1.4302 -1.0069
   68MOL   H28143295   4.030   5.204   6.697 -1.6619 -1.3928 -1.6286
   68MOL   H28243296   4.010   5.348   6.596  3.4315  1.4895 -1.7293
   68MOL   H28343297   4.246   5.152   6.566  0.0481 -0.0966  0.6196
   68MOL   H28443298   4.237   5.308   6.493 -1.0949 -0.4716 -0.2655
   68MOL   H28543299   4.260   5.292   6.788  1.3176  1.6942  0.7720
   68MOL   H28643300   4.243   5.434   6.688  0.3247 -0.6043 -0.0040
   68MOL   H28743301   4.460   5.341   6.580  0.0292  1.2165 -0.4717
   68MOL   H28843302   4.471   5.224   6.715 -2.0159  0.4044  4.1390
   68MOL   H28943303   4.493   5.520   6.715  0.0516  0.5721  0.4645
   68MOL   C29043304   4.541   5.413   6.879  0.3213  0.0727 -0.2075
   68MOL   O29143305   4.533   5.301   6.940 -0.0233 -0.0898  0.0194
   68MOL   C29243306   4.613   5.535   6.937  0.6530 -0.3805 -0.2155
   68MOL   C29343307   4.757   5.571   6.897 -0.7864 -0.5694 -1.1758
   68MOL   C29443308   4.755   5.640   6.758  0.1393  0.2054 -0.5003
   68MOL   C29543309   4.897   5.636   6.694 -0.2680 -0.1249  0.2395
   68MOL   C29643310   4.878   5.698   6.556  0.7100 -0.3576  0.0605
   68MOL   O29743311   4.807   5.800   6.532  0.8046  0.1836 -0.2098
   68MOL   N29843312   4.965   5.643   6.472  0.0653 -0.5462  0.6452
   68MOL   C29943313   4.998   5.695   6.338 -0.4459 -0.1522  0.6561
   68MOL   C30043314   5.152   5.726   6.316 -0.5749 -0.3514  0.0390
   68MOL   C30143315   5.220   5.710   6.182  0.6823 -0.4772  0.3149
   68MOL   C30243316   5.133   5.740   6.058  0.7695 -0.4113 -0.0471
   68MOL   N30343317   5.083   5.876   6.050 -0.0176  0.6008 -0.4971
   68MOL   H30443318   4.550   5.623   6.923 -0.4236 -0.9043  1.2261
   68MOL   H30543319   4.608   5.516   7.044  0.0064 -0.6394 -0.2892
   68MOL   H30643320   4.792   5.641   6.972 -1.4601 -1.3222 -0.1382
   68MOL   H30743321   4.815   5.478   6.900  0.3386  0.1578 -0.1829
   68MOL   H30843322   4.725   5.744   6.775  0.3054  0.4119 -1.4924
   68MOL   H30943323   4.682   5.598   6.689 -1.4010 -1.3625  1.9822
   68MOL   H31043324   4.954   5.544   6.707 -0.3802 -0.5078 -1.7302
   68MOL   H31143325   4.962   5.705   6.746  0.7293 -0.1252 -0.9767
   68MOL   H31243326   5.010   5.560   6.507 -0.3924 -0.8439  0.5315
   68MOL   H31343327   4.927   5.772   6.308 -0.6787 -0.4254  0.5087
   68MOL   H31443328   4.977   5.612   6.270 -1.3151 -0.8586  1.7611
   68MOL   H31543329   5.174   5.830   6.343  1.5820 -1.0442  1.0747
   68MOL   H31643330   5.210   5.668   6.388  0.0821 -0.3358 -0.4729
   68MOL   H31743331   5.241   5.603   6.172 -2.0961 -0.9140 -1.1577
   68MOL   H31843332   5.315   5.764   6.181  0.2797  0.2245 -0.0319
   68MOL   H31943333   5.045   5.677   6.050  0.5353 -0.0989  0.0667
   68MOL   H32043334   5.197   5.725   5.971  0.2295 -0.5660 -0.4181
   68MOL   H32143335   4.987   5.888   6.077  1.1079  0.1054  4.0318
   68MOL   C32243336   5.147   5.988   6.009 -0.2225  0.0202 -0.4721
   68MOL   O32343337   5.268   5.999   5.985 -0.0341  0.2103  0.0890
   68MOL   C32443338   5.052   6.112   6.029  0.0909 -0.2213 -0.8300
   68MOL   C32543339   5.109   6.239   5.967 -0.3157  0.1905 -0.3739
   68MOL   C32643340   5.054   6.360   6.042  0.0158 -0.1164 -0.2963
   68MOL   C32743341   5.125   6.497   6.002 -1.2251  0.1213  0.8157
   68MOL   C32843342   5.069   6.609   6.088  0.1554 -0.2855  0.0241
   68MOL   O32943343   4.976   6.675   6.038  0.3910  0.3475 -0.0923
   68MOL   N33043344   5.120   6.624   6.214 -0.5807  0.0070 -0.1699
   68MOL   C33143345   5.093   6.734   6.309 -0.6224 -0.6024  0.4875
   68MOL   C33243346   5.185   6.854   6.283  0.5817 -0.1350 -0.0844
   68MOL   C33343347   5.115   6.987   6.291  0.2389  0.0303 -0.1413
   68MOL   C33443348   5.186   7.106   6.218  0.4314 -0.5072 -0.1633
   68MOL   N33543349   5.206   7.078   6.073 -0.1073 -0.0982  0.3783
   68MOL   H33643350   4.950   6.090   5.999  0.2787 -1.9823 -0.2737
   68MOL   H33743351   5.057   6.115   6.138  1.9846  0.8776 -0.9321
   68MOL   H33843352   5.218   6.240   5.973 -0.3720 -0.7134  1.0825
   68MOL   H33943353   5.083   6.244   5.861  1.9577  1.5749 -0.9134
   68MOL   H34043354   5.074   6.343   6.148  0.7653  0.0193 -0.4115
   68MOL   H34143355   4.947   6.377   6.039 -0.0364  0.0750  1.9333
   68MOL   H34243356   5.110   6.524   5.898  1.4947 -0.0395  0.3560
   68MOL   H34343357   5.234   6.493   6.012 -1.1763  0.8558  0.6254
   68MOL   H34443358   5.196   6.560   6.232  0.6190  1.5374  0.2648
   68MOL   H34543359   5.091   6.694   6.410  1.7857  0.1861  0.8936
   68MOL   H34643360   4.987   6.752   6.291 -0.3096  1.4755  0.5829
   68MOL   H34743361   5.274   6.848   6.345  1.2731 -0.3293 -1.0698
   68MOL   H34843362   5.219   6.841   6.180  2.1502  1.0540  0.2647
   68MOL   H34943363   5.122   7.007   6.398 -2.1491 -1.5988  0.3566
   68MOL   H35043364   5.010   6.984   6.262  0.4553 -1.0786 -0.8326
   68MOL   H35143365   5.278   7.132   6.269 -0.3343 -0.4274  1.1810
   68MOL   H35243366   5.119   7.191   6.209  0.6023 -0.6266 -3.2621
   68MOL   H35343367   5.302   7.063   6.045 -0.0303  1.4266 -0.2523
   68MOL   C35443368   5.122   7.032   5.986  0.9750 -0.7661  0.5787
   68MOL   O35543369   5.004   7.043   6.012 -0.2387  0.3379 -0.0864
   68MOL   C35643370   5.197   6.988   5.855  0.0106  0.0530  0.8786
   68MOL   C35743371   5.092   6.952   5.738  0.1819  0.8646  0.1856
   68MOL   C35843372   5.053   7.080   5.663  0.7712 -0.6821  0.8955
   68MOL   C35943373   4.974   7.055   5.534 -0.6258  0.7410  0.2413
   68MOL   C36043374   4.928   7.182   5.467 -0.0420 -0.7492 -0.5089
   68MOL   O36143375   5.008   7.271   5.444  0.4129 -0.2903  0.2127
   68MOL   N36243376   4.793   7.193   5.450  0.1786 -0.3562 -0.3336
   68MOL   C36343377   4.728   7.288   5.364 -0.1190  0.5647 -0.5411
   68MOL   C36443378   4.653   7.229   5.244 -0.9191  0.3468  0.1534
   68MOL   C36543379   4.736   7.129   5.162  0.4785 -0.4941 -0.3260
   68MOL   C36643380   4.862   7.185   5.094 -0.5967 -0.2048  0.1738
   68MOL   N36743381   4.939   7.091   5.025  0.2377 -0.3046  0.1461
   68MOL   H36843382   5.269   7.062   5.819  0.8339 -1.6794 -1.2103
   68MOL   H36943383   5.259   6.899   5.870  1.0058  0.2679 -1.6622
   68MOL   H37043384   5.129   6.881   5.663  1.5295  0.7251  0.9713
   68MOL   H37143385   4.998   6.915   5.779 -0.1282  3.4433  1.9222
   68MOL   H37243386   5.151   7.119   5.636  0.0948 -1.1508 -2.4033
   68MOL   H37343387   5.013   7.157   5.728 -1.2284 -1.0868  0.1720
   68MOL   H37443388   4.885   6.994   5.546 -0.6834  1.1323  1.8960
   68MOL   H37543389   5.036   7.007   5.458 -2.1556 -2.0721  0.7094
   68MOL   H37643390   4.738   7.118   5.488 -0.4167  0.8741  1.2882
   68MOL   H37743391   4.799   7.363   5.329  0.5577  0.6046  0.8998
   68MOL   H37843392   4.654   7.350   5.415 -0.7587 -0.2547 -0.4636
   68MOL   H37943393   4.559   7.179   5.268 -0.4591 -1.2265 -1.2480
   68MOL   H38043394   4.622   7.309   5.177 -0.6741 -0.0995 -0.4940
   68MOL   H38143395   4.669   7.095   5.084 -0.2969 -0.9128  0.5159
   68MOL   H38243396   4.752   7.039   5.221  1.5225 -1.5134 -2.1382
   68MOL   H38343397   4.925   7.243   5.161  0.0466  0.8771 -1.3329
   68MOL   H38443398   4.820   7.264   5.031 -1.3983  1.6865  3.0039
   68MOL   H38543399   4.917   6.994   5.043 -1.6176 -0.0456 -0.5962
   68MOL   C38643400   5.019   7.126   4.922 -0.4469 -0.7937  0.2839
   68MOL   O38743401   5.029   7.241   4.878  0.1694 -0.1116 -0.0067
   68MOL   C38843402   5.087   7.008   4.848 -1.1067  0.0117  0.4181
   68MOL   C38943403   5.128   7.042   4.703 -0.7583  0.1527 -0.4368
   68MOL   C39043404   5.214   6.925   4.647  0.1677  0.3637  0.8062
   68MOL   C39143405   5.306   6.960   4.531 -1.0690  0.2537  0.2677
   68MOL   C39243406   5.269   6.889   4.399 -0.3102 -0.1655  0.2628
   68MOL   O39343407   5.151   6.887   4.366  1.0322 -0.0565  0.2501
   68MOL   N39443408   5.375   6.837   4.329  0.0585  0.0472  0.7618
   68MOL   C39543409   5.381   6.786   4.195 -0.0466  0.7622 -0.2232
   68MOL   C39643410   5.529   6.785   4.158 -0.4047 -0.2643  0.7958
   68MOL   C39743411   5.596   6.916   4.107  0.1290 -0.0121 -0.1607
   68MOL   C39843412   5.650   7.001   4.217 -0.3671  0.4695 -0.4521
   68MOL   N39943413   5.719   7.122   4.159  0.1602 -0.3115  0.8364
   68MOL   H40043414   5.178   6.976   4.899  0.6601  2.7162 -0.9454
   68MOL   H40143415   5.014   6.927   4.859  0.2448 -1.2202  0.5282
   68MOL   H40243416   5.036   7.065   4.649 -1.1656  0.0507  0.2100
   68MOL   H40343417   5.191   7.131   4.697 -0.4548  0.0029  0.5147
   68MOL   H40443418   5.154   6.835   4.631 -1.0346  1.3230 -0.1998
   68MOL   H40543419   5.289   6.896   4.720 -1.1117 -1.8865  1.2724
   68MOL   H40643420   5.404   6.919   4.556 -0.3816  0.8309 -1.4015
   68MOL   H40743421   5.313   7.067   4.509 -0.0782  0.0307 -0.5549
   68MOL   H40843422   5.452   6.811   4.390  1.1673  1.1063 -0.1861
   68MOL   H40943423   5.314   6.835   4.125 -0.5621 -0.7960 -0.8427
   68MOL   H41043424   5.334   6.687   4.202  0.2207  0.6532  0.0121
   68MOL   H41143425   5.589   6.718   4.220 -0.3680  0.4347  1.5188
   68MOL   H41243426   5.534   6.718   4.072 -0.1129  2.4656 -1.3718
   68MOL   H41343427   5.530   6.974   4.043 -0.4860 -0.0903  0.3941
   68MOL   H41443428   5.678   6.892   4.039 -0.9086  1.3267 -1.9297
   68MOL   H41543429   5.719   6.938   4.273 -1.2710  0.4167  0.6227
   68MOL   H41643430   5.567   7.030   4.282 -0.2599 -0.6219  0.1878
   68MOL   H41743431   5.738   7.111   4.061 -3.0096 -0.3556  0.1578
   68MOL   C41843432   5.770   7.233   4.219  0.1362  0.9170 -0.4078
   68MOL   O41943433   5.753   7.262   4.338 -0.5746  0.5695 -0.3002
   68MOL   C42043434   5.869   7.314   4.134  0.2782 -0.4561 -0.1860
   68MOL   C42143435   5.842   7.467   4.129 -0.6692 -0.2102 -0.3306
   68MOL   C42243436   5.712   7.517   4.061 -0.6819 -0.0149  0.6552
   68MOL   C42343437   5.729   7.647   3.979 -0.4177 -0.2832  0.2540
   68MOL   C42443438   5.767   0.065   4.064 -0.2327  0.2420 -0.1021
   68MOL   O42543439   5.723   0.071   4.176 -0.5683 -0.0210  0.3137
   68MOL   N42643440   5.845   0.156   4.010 -0.2081 -0.2817 -0.4073
   68MOL   C42743441   5.891   0.275   4.072 -0.1711 -0.3732  0.7863
   68MOL   C42843442   5.788   0.376   4.113 -0.0968 -0.5442 -0.1989
   68MOL   C42943443   5.724   0.454   3.995 -0.0925  0.2828 -0.0899
   68MOL   C43043444   5.610   0.530   4.053  0.8274 -0.5028  0.5505
   68MOL   N43143445   5.523   0.577   3.947 -0.2525 -0.5593  0.1466
   68MOL   H43243446   5.974   7.297   4.159  0.5235  1.7880  0.4171
   68MOL   H43343447   5.874   7.279   4.031 -1.3090  1.8276 -1.0750
   68MOL   H43443448   5.841   7.508   4.230  4.7730 -2.5892  0.8409
   68MOL   H43543449   5.924   7.523   4.084 -1.6742  1.6634  0.1258
   68MOL   H43643450   5.631   7.518   4.134 -1.5376 -0.2851 -0.2713
   68MOL   H43743451   5.688   7.436   3.993  1.7527 -2.2173  2.3118
   68MOL   H43843452   5.634   7.675   3.933 -2.2662 -2.4036  2.6655
   68MOL   H43943453   5.802   7.636   3.899 -0.3612 -2.5950  0.5804
   68MOL   H44043454   5.881   0.136   3.919 -2.1509  0.7001 -1.4278
   68MOL   H44143455   5.972   0.325   4.019 -0.4979  1.1522  1.7233
   68MOL   H44243456   5.942   0.243   4.163  2.7819  0.8793 -0.3615
   68MOL   H44343457   5.713   0.334   4.180 -0.5295 -0.4559 -0.6286
   68MOL   H44443458   5.839   0.446   4.180  0.1466 -0.3380 -0.5996
   68MOL   H44543459   5.686   0.385   3.919  2.3230 -0.1476 -0.9530
   68MOL   H44643460   5.795   0.527   3.956  0.0584  0.2182  0.0668
   68MOL   H44743461   5.634   0.614   4.117 -0.0989  0.1397  0.0617
   68MOL   H44843462   5.553   0.466   4.121 -1.8030  0.5981 -0.5658
   68MOL   H44943463   5.548   0.660   3.896  0.9502 -0.0851  1.4966
   68MOL   C45043464   5.405   0.516   3.917  0.0122 -0.3181 -0.1826
   68MOL   O45143465   5.375   0.403   3.961 -0.2494  0.3785  0.7542
   68MOL   C45243466   5.300   0.587   3.829  0.4254 -0.7827 -0.8355
   68MOL   C45343467   5.196   0.661   3.906 -0.5616  0.0107  0.1548
   68MOL   C45443468   5.248   0.757   4.007 -0.9637  0.3773 -0.2817
   68MOL   C45543469   5.324   0.872   3.938 -0.0039  0.7003 -0.4427
   68MOL   C45643470   5.376   0.990   4.021 -1.0827 -0.1280 -0.3720
   68MOL   O45743471   5.295   1.058   4.085  0.2109 -1.0534 -0.0404
   68MOL   N45843472   5.510   0.998   4.034  0.1798  0.5020 -0.4225
   68MOL   C45943473   5.569   1.107   4.115  0.2882  0.5875  0.0091
   68MOL   C46043474   5.723   1.091   4.114 -0.3432 -0.8128  0.3869
   68MOL   C46143475   5.789   1.176   4.218 -0.4280 -0.1676 -0.2739
   68MOL   C46243476   5.945   1.164   4.218 -0.1988 -0.4916  0.2565
   68MOL   N46343477   6.003   1.223   4.337 -0.9370 -0.3521 -0.2090
   68MOL   H46443478   5.357   0.657   3.768 -2.2936  2.0098 -0.2905
   68MOL   H46543479   5.249   0.519   3.761 -0.1728 -0.2960 -0.8764
   68MOL   H46643480   5.150   0.731   3.836 -0.5671  2.3919  2.4406
   68MOL   H46743481   5.118   0.591   3.937  0.5659 -0.4431  2.0820
   68MOL   H46843482   5.317   0.708   4.075 -2.5688 -0.5260  0.7295
   68MOL   H46943483   5.167   0.798   4.068 -0.5784 -0.5360  0.8562
   68MOL   H47043484   5.258   0.917   3.863  0.8148  0.8332 -1.0934
   68MOL   H47143485   5.404   0.821   3.885 -1.0158 -1.0370 -0.3485
   68MOL   H47243486   5.569   0.945   3.972 -0.7286  2.1095 -2.7314
   68MOL   H47343487   5.524   1.098   4.214 -1.5726  1.9567 -0.6913
   68MOL   H47443488   5.537   1.203   4.075 -2.9683 -1.0572 -1.5235
   68MOL   H47543489   5.764   0.991   4.123  0.5762 -0.6687 -1.9497
   68MOL   H47643490   5.757   1.137   4.022  0.1167  3.0023  2.3436
   68MOL   H47743491   5.742   1.152   4.314 -0.6131 -0.4950 -0.4481
   68MOL   H47843492   5.767   1.281   4.200 -1.0058 -0.8712 -3.8862
   68MOL   H47943493   5.984   1.209   4.126  0.3742  0.3755  0.9169
   68MOL   H48043494   5.980   1.061   4.210  3.2026  0.6464 -0.3169
   68MOL   H48143495   6.023   1.322   4.328  1.7014 -0.9470 -1.2970
   68MOL   C48243496   6.037   1.168   4.453 -0.2014 -0.2151 -0.3223
   68MOL   O48343497   6.014   1.049   4.480  0.0759  0.2277  0.5058
   68MOL   C48443498   6.097   1.254   4.556  0.4334  0.3093  0.3540
   68MOL   C48543499   6.221   1.191   4.623 -0.7353  0.5763  0.3035
   68MOL   C48643500   6.280   1.289   4.727  0.1034  0.4270  0.6210
   68MOL   C48743501   6.177   1.307   4.842  0.4499 -0.2877 -0.0675
   68MOL   C48843502   6.258   1.283   4.970 -0.3593 -0.5973 -0.6334
   68MOL   O48943503   6.326   1.370   5.026  0.5301 -0.2226  0.2700
   68MOL   N49043504   6.270   1.156   5.007  0.1697 -0.0818 -0.0119
   68MOL   C49143505   6.374   1.106   5.092  0.9824 -0.3533  0.1624
   68MOL   C49243506   6.470   1.016   5.027  0.3335  0.2163  0.5130
   68MOL   C49343507   6.405   0.904   4.944  0.1837  0.1062 -0.5533
   68MOL   C49443508   6.509   0.801   4.895  1.2372  0.0413 -0.7810
   68MOL   N49543509   6.625   0.855   4.834 -0.3768  0.6192  0.3094
   68MOL   H49643510   6.121   1.349   4.508  1.4363 -0.2451 -0.2744
   68MOL   H49743511   6.020   1.270   4.631  0.7928 -0.3052  0.8586
   68MOL   H49843512   6.175   1.105   4.672 -1.4134  0.5034 -0.4361
   68MOL   H49943513   6.287   1.148   4.548 -1.6473  1.1696 -0.8480
   68MOL   H50043514   6.306   1.383   4.679  0.7996 -0.2523 -0.3393
   68MOL   H50143515   6.375   1.248   4.760 -1.4834 -1.8917  2.4280
   68MOL   H50243516   6.098   1.233   4.847  1.0405 -0.9846 -0.8439
   68MOL   H50343517   6.142   1.409   4.826 -1.4286 -0.8767  0.1657
   68MOL   H50443518   6.200   1.092   4.973  2.1652 -0.7542 -3.0540
   68MOL   H50543519   6.319   1.039   5.158 -1.1254 -0.7982 -2.0057
   68MOL   H50643520   6.413   1.185   5.157 -0.9649  0.8504 -0.0952
   68MOL   H50743521   6.535   1.066   4.955 -0.3062 -3.2212 -2.5993
   68MOL   H50843522   6.545   0.975   5.094  0.1070  0.6629  1.0466
   68MOL   H50943523   6.362   0.941   4.851  0.4317  0.0395 -0.6955
   68MOL   H51043524   6.335   0.849   5.007  0.5361  0.3452  0.0509
   68MOL   H51143525   6.460   0.725   4.835 -0.6730  1.0771 -0.5952
   68MOL   H51243526   6.541   0.745   4.982  0.9228  0.4653 -0.3874
   68MOL   H51343527   6.698   0.887   4.896  1.6460 -2.8967 -0.1420
   68MOL   C51443528   6.642   0.902   4.704 -0.1966 -0.1162 -0.5592
   68MOL   O51543529   6.552   0.906   4.623 -0.4609 -0.0197 -0.0860
   68MOL   C51643530   6.781   0.961   4.676  0.5323 -0.0689 -0.0477
   68MOL   C51743531   6.790   1.088   4.592  0.4581 -0.4398 -0.1616
   68MOL   C51843532   6.746   1.211   4.669 -0.3979  0.5506 -0.2160
   68MOL   C51943533   6.718   1.337   4.585 -0.0938 -0.9424  0.2189
   68MOL   C52043534   6.841   1.402   4.532  0.5383  0.2235 -0.1992
   68MOL   O52143535   6.927   1.339   4.481 -0.6724  0.6208  0.0753
   68MOL   N52243536   6.852   1.534   4.547  0.5526 -0.4771 -0.3569
   68MOL   C52343537   6.952   1.618   4.480 -0.7278  0.1101  0.0749
   68MOL   C52443538   6.883   1.707   4.369  0.6006  0.6613 -0.2221
   68MOL   C52543539   6.787   1.627   4.274 -0.2782 -0.0436  0.4515
   68MOL   C52643540   6.737   1.714   4.159  0.0635 -0.5899  0.3478
   68MOL   N52743541   6.714   1.640   4.043  0.1076  1.1308 -0.4052
   68MOL   H52843542   6.847   0.971   4.762  1.6711 -1.9607 -0.6561
   68MOL   H52943543   6.828   0.888   4.609  0.3513 -1.2977  1.1405
   68MOL   H53043544   6.888   1.108   4.551  0.9252  0.4352  1.3215
   68MOL   H53143545   6.718   1.081   4.511  0.4583 -2.2633 -0.0382
   68MOL   H53243546   6.812   1.238   4.751  0.9591  0.2351 -1.1967
   68MOL   H53343547   6.652   1.180   4.716  1.3579 -0.5061  2.7174
   68MOL   H53443548   6.674   1.407   4.657 -0.4504  0.6523 -1.5238
   68MOL   H53543549   6.654   1.313   4.501  0.7678 -2.1720 -0.0950
   68MOL   H53643550   6.774   1.576   4.596 -0.5042 -1.2582 -1.3599
   68MOL   H53743551   7.034   1.558   4.442 -1.6188 -0.7686 -0.4676
   68MOL   H53843552   6.993   1.670   4.567 -2.5433 -0.1104  1.1028
   68MOL   H53943553   6.830   1.782   4.429  1.0307  0.6556  0.1697
   68MOL   H54043554   6.965   1.756   4.316 -0.1058  0.4278 -1.5364
   68MOL   H54143555   6.712   1.586   4.341 -0.7863  1.9378  1.1301
   68MOL   H54243556   6.842   1.543   4.231 -2.6891  0.2368 -3.4244
   68MOL   H54343557   6.816   1.783   4.130 -0.6467  0.0357 -0.1305
   68MOL   H54443558   6.656   1.780   4.191  0.8792  1.6336 -2.0202
   68MOL   H54543559   6.799   1.605   4.001  0.0186 -0.3841  0.6456
   68MOL   C54643560   6.596   1.636   3.972 -0.4993  0.6063 -0.6996
   68MOL   O54743561   6.492   1.690   4.012  0.4879  0.7366 -0.3956
   68MOL   C54843562   6.598   1.574   3.834  0.1060  0.8951  0.7903
   68MOL   C54943563   6.560   1.661   3.711  0.4078  0.5958 -0.7667
   68MOL   C55043564   6.648   1.789   3.685  0.1778 -0.4901 -0.5333
   68MOL   C55143565   6.802   1.766   3.677  0.4910 -1.0581 -0.0138
   68MOL   C55243566   6.875   1.773   3.803 -0.0082 -0.3560 -0.2242
   68MOL   O55343567   6.877   1.877   3.867  0.4775 -0.2342  0.0759
   68MOL   N55443568   6.932   1.661   3.847  0.1189  0.5687  0.8036
   68MOL   C55543569   7.036   1.653   3.957 -0.6251  0.3914  0.1329
   68MOL   C55643570   7.055   1.504   4.009  0.1037  0.8733 -0.6605
   68MOL   C55743571   7.142   1.516   4.135  0.1444  0.1457 -0.0786
   68MOL   C55843572   7.181   1.384   4.211 -0.6099 -0.0261 -0.2455
   68MOL   N55943573   7.066   1.306   4.244 -1.1867 -0.2836 -0.3871
   68MOL   H56043574   6.691   1.518   3.822 -1.4127 -1.3915 -0.5902
   68MOL   H56143575   6.526   1.492   3.836 -0.7705  1.6167 -0.2765
   68MOL   H56243576   6.571   1.605   3.618 -0.3974 -1.2586  0.2398
   68MOL   H56343577   6.453   1.677   3.720 -0.0203 -2.8194  0.9349
   68MOL   H56443578   6.618   1.854   3.767  3.5800 -0.3714  0.7053
   68MOL   H56543579   6.625   1.830   3.587 -0.2813  2.4097  0.7383
   68MOL   H56643580   6.847   1.848   3.621 -0.6578  0.0690  0.6862
   68MOL   H56743581   6.830   1.678   3.618 -1.1639  0.0398 -2.5252
   68MOL   H56843582   6.931   1.586   3.779 -2.8586 -0.3977  1.8481
   68MOL   H56943583   7.012   1.729   4.030 -2.4654 -2.7957  2.9938
   68MOL   H57043584   7.137   1.676   3.922  0.1006 -0.9151  1.3097
   68MOL   H57143585   6.964   1.451   4.036 -0.0165  0.4583 -1.8907
   68MOL   H57243586   7.118   1.446   3.942  0.6846  1.4334 -0.6100
   68MOL   H57343587   7.094   1.569   4.218  1.7053  0.2749  0.7603
   68MOL   H57443588   7.228   1.579   4.115  1.4972 -1.1211  1.6287
   68MOL   H57543589   7.221   1.408   4.310  0.4407  1.7852 -1.0748
   68MOL   H57643590   7.259   1.330   4.157  0.8735  1.3733  0.4332
   68MOL   H57743591   7.022   1.326   4.332  1.1675 -3.0449  1.4976
   68MOL   C57843592   7.020   1.205   4.176 -0.2324 -0.5625  0.7563
   68MOL   O57943593   7.073   1.161   4.072  0.2732  0.7425  0.1615
   68MOL   C58043594   6.887   1.145   4.232  0.8414  0.3942 -0.3451
   68MOL   C58143595   6.818   1.053   4.133  0.3531 -0.1833  0.4829
   68MOL   C58243596   6.879   0.906   4.141 -0.0012 -0.0637 -0.4476
   68MOL   C58343597   6.788   0.801   4.071 -0.3624  0.6874  0.0335
   68MOL   C58443598   6.780   0.813   3.917 -0.0193 -0.0933 -0.6237
   68MOL   O58543599   6.872   0.776   3.852  0.0424 -0.5797  0.3124
   68MOL   N58643600   6.669   0.857   3.862  0.1798  0.1922 -0.0022
   68MOL   C58743601   6.658   0.888   3.726  0.4523  0.1928  0.9378
   68MOL   C58843602   6.736   1.016   3.680 -0.1571 -0.5634  0.6380
   68MOL   C58943603   6.674   1.154   3.716  0.9109 -0.1531 -0.1932
   68MOL   C59043604   6.684   1.267   3.609  0.7295 -0.2057  0.0030
   68MOL   N59143605   6.825   1.267   3.557  0.3413  0.1529  0.0759
   68MOL   H59243606   6.890   1.079   4.319  0.0240 -0.4694 -0.9770
   68MOL   H59343607   6.828   1.235   4.250  0.1983  0.0945 -0.9832
   68MOL   H59443608   6.713   1.046   4.160  0.1264  0.7161 -0.1268
   68MOL   H59543609   6.829   1.105   4.037  0.3202  0.8447  1.0308
   68MOL   H59643610   6.898   0.877   4.245 -1.2177  3.1630  0.7444
   68MOL   H59743611   6.978   0.904   4.094  0.1507 -2.5441 -0.0693
   68MOL   H59843612   6.689   0.812   4.115 -2.2712 -0.9291 -3.5908
   68MOL   H59943613   6.835   0.707   4.097  4.2160  2.9803  0.5466
   68MOL   H60043614   6.596   0.889   3.923 -1.4490  0.6812 -2.1263
   68MOL   H60143615   6.552   0.904   3.708  0.2944  1.6643  3.0743
   68MOL   H60243616   6.696   0.804   3.667 -1.3070  1.2180 -1.7514
   68MOL   H60343617   6.838   1.028   3.718  0.2529 -3.3847  0.4858
   68MOL   H60443618   6.747   1.001   3.573 -0.5565 -1.0309  0.6626
   68MOL   H60543619   6.695   1.193   3.815 -1.7264  1.4181 -0.2096
   68MOL   H60643620   6.569   1.134   3.736  0.7651  0.0555 -0.7353
   68MOL   H60743621   6.657   1.358   3.662  1.8608 -0.6100  1.2803
   68MOL   H60843622   6.620   1.252   3.522 -0.0113  2.0609  0.1403
   68MOL   H60943623   6.842   1.191   3.492 -3.2610  1.4244 -2.5064
   68MOL   C61043624   6.922   1.340   3.607  0.4146 -0.0489  0.2470
   68MOL   O61143625   6.899   1.427   3.694  0.4708  0.3775 -0.5847
   68MOL   C61243626   7.066   1.316   3.559  0.2289  0.0257  0.1430
   68MOL   C61343627   7.164   1.310   3.682  0.5907 -0.6526  1.1201
   68MOL   C61443628   7.312   1.280   3.647  0.9543  0.3070 -0.2159
   68MOL   C61543629   7.410   1.287   3.769 -0.3761  0.1824 -0.5083
   68MOL   C61643630   7.453   1.430   3.809  0.3602 -0.4551 -0.0128
   68MOL   O61743631   7.441   1.523   3.730  0.7437  0.2020 -0.4624
   68MOL   N61843632   7.512   1.447   3.932  0.1506 -0.0542 -0.0660
   68MOL   C61943633   7.545   1.582   3.980 -0.6447  0.4063 -0.4224
   68MOL   C62043634   7.657   1.577   4.089  0.3718 -0.0833  0.2284
   68MOL   C62143635   7.606   1.551   4.237 -0.5828 -0.2796  0.9402
   68MOL   C62243636   0.032   1.562   4.329  0.3295 -0.0026  0.2456
   68MOL   N62343637   7.681   1.585   4.463  0.3078  0.2180 -0.4468
   68MOL   H62443638   7.075   1.230   3.493 -1.0635 -0.3566  0.4375
   68MOL   H62543639   7.088   1.404   3.497 -0.7084  0.9223  1.0614
   68MOL   H62643640   7.156   1.407   3.733 -0.8819  0.5933 -1.3862
   68MOL   H62743641   7.118   1.243   3.755  1.0762 -1.9349  0.2478
   68MOL   H62843642   7.337   1.357   3.575 -0.4900 -0.7882 -1.9338
   68MOL   H62943643   7.326   1.186   3.593 -0.7202 -0.0817 -0.0003
   68MOL   H63043644   7.498   1.237   3.728  1.8537  2.1315  1.7638
   68MOL   H63143645   7.373   1.230   3.854  0.6054  0.5074  0.1453
   68MOL   H63243646   7.507   1.377   4.005 -0.8992  0.2277  0.1370
   68MOL   H63343647   7.459   1.636   4.021 -1.5863 -3.0877  2.4621
   68MOL   H63443648   7.582   1.631   3.890 -0.1134 -0.3149 -0.5955
   68MOL   H63543649   0.039   1.513   4.063  0.2908 -0.4067  0.7650
   68MOL   H63643650   7.692   1.680   4.087 -0.9501  0.4263  1.7027
   68MOL   H63743651   7.542   1.464   4.250 -0.6396 -0.4045 -0.1113
   68MOL   H63843652   7.532   1.630   4.252 -0.2742  0.1765  0.0620
   68MOL   H63943653   0.097   1.645   4.303  1.6844 -1.2629 -0.3983
   68MOL   H64043654   0.098   1.476   4.331 -0.3292 -0.5063  0.9471
   68MOL   H64143655   7.620   1.665   4.454  1.5589  1.3258  0.6450
   68MOL   H64243656   7.618   1.509   4.485 -1.1130  0.8856 -2.1289
   69MOL     C143657   3.182   7.255   4.512  0.2763  0.1671 -0.5643
   69MOL     O243658   3.069   7.213   4.500 -0.2110 -0.9598 -0.2277
   69MOL     C343659   3.252   7.322   4.398  0.4310  0.5077  0.2749
   69MOL     C443660   3.405   7.327   4.410 -0.3308  0.0282  0.1033
   69MOL     C543661   3.460   7.206   4.333 -0.2913  0.0537  0.3334
   69MOL     C643662   3.621   7.219   4.320 -0.5650  0.5917  0.3789
   69MOL     C743663   3.670   7.315   4.213  0.2653  0.2028 -0.1212
   69MOL     O843664   3.596   7.355   4.124  0.1527 -0.0190  0.2087
   69MOL     N943665   3.798   7.355   4.215  0.2986  0.0097 -0.2650
   69MOL    C1043666   3.865   7.430   4.111  0.2292 -0.4181 -0.3190
   69MOL    C1143667   3.862   7.585   4.145  0.8818  0.3391 -0.5767
   69MOL    C1243668   3.942   7.671   4.047 -0.4419 -0.4053 -0.9993
   69MOL    C1343669   3.924   0.120   4.058  0.5919  0.5301 -0.1822
   69MOL    N1443670   3.788   0.164   4.029 -0.3387  0.1691 -0.3913
   69MOL    H1543671   3.215   7.269   4.310  1.6383  2.3497 -1.3752
   69MOL    H1643672   3.221   7.426   4.396  1.6482  0.8785  0.5001
   69MOL    H1743673   3.448   7.421   4.374 -0.0309  0.0436  0.4881
   69MOL    H1843674   3.446   7.313   4.511 -0.5414  1.3521  0.3870
   69MOL    H1943675   3.416   7.206   4.233  1.0953 -0.9868 -0.2813
   69MOL    H2043676   3.435   7.115   4.388  1.3202 -1.9107 -2.1229
   69MOL    H2143677   3.669   7.122   4.307  0.8608  1.1999  0.9134
   69MOL    H2243678   3.664   7.239   4.418 -0.1286 -1.1605  0.5647
   69MOL    H2343679   3.854   7.321   4.292  1.3330  1.4833 -0.3591
   69MOL    H2443680   3.822   7.405   4.014  0.8153  1.7979 -1.1638
   69MOL    H2543681   3.967   7.393   4.110 -0.4310 -2.2999 -2.7972
   69MOL    H2643682   3.755   7.603   4.135  0.9002  0.5999 -0.3254
   69MOL    H2743683   3.879   7.602   4.252 -1.8441 -0.2580 -0.0051
   69MOL    H2843684   3.918   7.645   3.944 -2.0978 -2.4158 -0.1167
   69MOL    H2943685   4.049   7.647   4.051 -0.5389 -0.5696  0.9712
   69MOL    H3043686   3.995   0.180   4.001  2.5799 -1.2831  0.2972
   69MOL    H3143687   3.949   0.157   4.158 -1.5047  1.6827 -0.0694
   69MOL    H3243688   3.768   0.195   3.935 -1.9712 -0.1027 -0.1594
   69MOL    H3343689   3.241   7.233   4.601  0.2681 -2.1797 -1.1284
   69MOL    C3443690   3.687   0.179   4.117  0.3977 -0.5091  0.0100
   69MOL    O3543691   3.697   0.155   4.237  0.1983  0.2837  0.0409
   69MOL    C3643692   3.563   0.249   4.057  0.4334 -0.2152 -0.2648
   69MOL    C3743693   3.441   0.172   4.100  0.5407  0.4716  0.7131
   69MOL    C3843694   3.429   0.024   4.058  0.2028  0.7857  0.2822
   69MOL    C3943695   3.290   7.660   4.067 -0.6958  0.5121 -0.8718
   69MOL    C4043696   3.200   7.689   3.942 -0.2961  0.0831  0.4020
   69MOL    O4143697   3.243   0.059   3.853 -0.2376 -0.1060  0.1481
   69MOL    N4243698   3.077   7.647   3.938  0.0727 -0.2201  0.1080
   69MOL    C4343699   3.010   7.574   4.050 -0.3360 -1.0881  0.0041
   69MOL    C4443700   2.876   7.515   4.004  0.2512  0.4527 -0.1205
   69MOL    C4543701   2.803   7.452   4.124  0.1830 -0.3730  0.1441
   69MOL    C4643702   2.666   7.402   4.093  0.3379  0.2493  0.1259
   69MOL    N4743703   2.620   7.341   4.220  0.1775  0.0754 -0.5844
   69MOL    H4843704   3.559   0.353   4.089 -0.3889 -0.8229  1.7035
   69MOL    H4943705   3.555   0.246   3.948 -0.4261  2.1410 -0.2870
   69MOL    H5043706   3.423   0.180   4.208 -0.0574  0.6719  0.5992
   69MOL    H5143707   3.354   0.228   4.065 -1.5481 -0.8637  3.5872
   69MOL    H5243708   3.499   7.665   4.117  1.5195 -0.0239 -2.0594
   69MOL    H5343709   3.472   0.013   3.958  0.1197 -1.5772  0.4704
   69MOL    H5443710   3.238   7.691   4.157 -0.6970 -0.8338 -0.3908
   69MOL    H5543711   3.295   7.551   4.070 -0.6369  0.5039 -1.2820
   69MOL    H5643712   3.010   7.675   3.868  0.4248 -1.2966 -0.6609
   69MOL    H5743713   2.995   7.642   4.134 -0.1762 -0.1238 -0.7291
   69MOL    H5843714   3.082   7.499   4.082 -1.6716 -1.7144  1.6365
   69MOL    H5943715   2.827   7.605   3.966  0.9378  1.1397  0.6197
   69MOL    H6043716   2.893   7.438   3.929 -3.0686  1.3362 -1.9068
   69MOL    H6143717   2.802   7.532   4.198 -2.2294  0.2682 -0.5244
   69MOL    H6243718   2.862   7.373   4.171 -0.5736  0.6310  2.8966
   69MOL    H6343719   2.677   7.332   4.010 -1.4575 -1.6176  1.3980
   69MOL    H6443720   2.590   7.475   4.066  1.4079  0.2904 -2.9405
   69MOL    H6543721   2.609   7.404   4.299 -2.1221  0.8015 -1.4510
   69MOL    C6643722   2.597   7.209   4.237  0.0035 -0.6545 -0.1658
   69MOL    O6743723   2.614   7.120   4.152  0.2065  0.0860 -0.6392
   69MOL    C6843724   2.548   7.178   4.377 -0.4104  0.9925  0.5376
   69MOL    C6943725   2.655   7.121   4.466 -0.2926 -0.5115  0.5583
   69MOL    C7043726   2.705   7.209   4.580 -0.3331 -0.0173  0.3156
   69MOL    C7143727   2.798   7.136   4.672 -0.9395  0.3618 -0.0906
   69MOL    C7243728   2.726   7.064   4.784 -0.3120  0.4467  0.5921
   69MOL    O7343729   2.608   7.099   4.818 -0.4904  0.0488 -0.7951
   69MOL    N7443730   2.806   6.974   4.838  0.9944  0.5790 -0.2101
   69MOL    C7543731   2.763   6.903   4.962  0.2011 -0.5481 -0.0904
   69MOL    C7643732   2.844   6.956   5.079 -0.4260  0.2918  0.2937
   69MOL    C7743733   2.822   6.877   5.211  1.3439  0.0980  0.9600
   69MOL    C7843734   2.879   6.967   5.319  0.4350 -0.0722 -0.6298
   69MOL    N7943735   2.878   6.907   5.453  0.4154 -0.0779 -0.6212
   69MOL    H8043736   2.493   7.256   4.429 -3.4940 -1.3012  0.8686
   69MOL    H8143737   2.469   7.103   4.371  1.1205 -0.7457  1.4901
   69MOL    H8243738   2.623   7.029   4.515 -0.2663  0.1911  1.9342
   69MOL    H8343739   2.734   7.097   4.395 -0.8467  1.0757 -0.6317
   69MOL    H8443740   2.627   7.255   4.640  1.1276 -1.2890  3.3364
   69MOL    H8543741   2.772   7.285   4.539  0.7449 -0.8297  0.5358
   69MOL    H8643742   2.862   7.203   4.730  0.2723 -1.5734  0.8721
   69MOL    H8743743   2.876   7.073   4.630 -0.6371  0.6116  0.0928
   69MOL    H8843744   2.894   6.941   4.801  0.2954 -1.9354  0.2787
   69MOL    H8943745   2.772   6.797   4.936  0.5550 -1.1417  2.3529
   69MOL    H9043746   2.659   6.927   4.984 -0.2296 -1.2291 -1.2874
   69MOL    H9143747   2.949   6.952   5.050 -0.6588  0.0514 -0.5478
   69MOL    H9243748   2.825   7.061   5.099  3.0579  1.1993 -0.8532
   69MOL    H9343749   2.878   6.784   5.204  1.4280  0.3093 -2.2923
   69MOL    H9443750   2.723   6.842   5.238  0.8504  1.4303  0.9142
   69MOL    H9543751   2.835   7.066   5.319  1.0277  0.1988  0.2410
   69MOL    H9643752   2.984   6.980   5.291  0.5155  1.1200  0.2037
   69MOL    H9743753   2.930   6.821   5.453  3.1423  1.5117 -1.9719
   69MOL    C9843754   2.833   6.953   5.573  0.2346  0.3061  0.5985
   69MOL    O9943755   2.787   7.061   5.589 -0.6390  0.0676  0.2428
   69MOL   C10043756   2.837   6.848   5.684  0.3622 -0.0783 -0.3137
   69MOL   C10143757   2.912   6.902   5.801 -0.3503  0.4052  1.1593
   69MOL   C10243758   2.879   6.827   5.934 -1.1222  0.8339 -0.2241
   69MOL   C10343759   2.955   6.858   6.066  0.1115 -0.4182  0.8753
   69MOL   C10443760   3.088   6.794   6.066 -0.3525 -0.0234  0.5034
   69MOL   O10543761   3.176   6.862   6.016  0.5750  0.1482  0.0227
   69MOL   N10643762   3.107   6.679   6.123  0.4564 -0.5392 -0.0328
   69MOL   C10743763   3.237   6.618   6.138  1.1325 -0.4090  0.5477
   69MOL   C10843764   3.220   6.492   6.226  0.3079 -0.4982 -0.1088
   69MOL   C10943765   3.123   6.379   6.167 -0.1754 -0.7027  0.3871
   69MOL   C11043766   3.085   6.281   6.276  0.2114  0.9939  0.0408
   69MOL   N11143767   3.001   6.177   6.222  0.1614  0.0748  0.1403
   69MOL   H11243768   2.739   6.809   5.712  1.0993 -2.2743 -0.6979
   69MOL   H11343769   2.890   6.760   5.648 -0.1269 -0.0270 -1.1757
   69MOL   H11443770   3.018   6.913   5.775 -0.2660  1.2515  1.8494
   69MOL   H11543771   2.894   7.008   5.819  3.5075  0.8893  2.7172
   69MOL   H11643772   2.885   6.723   5.902  1.3035  0.1588  2.1481
   69MOL   H11743773   2.772   6.843   5.938 -1.4125 -1.1632  0.7476
   69MOL   H11843774   2.902   6.821   6.154 -0.7122 -1.5247 -0.0658
   69MOL   H11943775   2.966   6.966   6.073 -3.8524 -0.0130  1.8278
   69MOL   H12043776   3.034   6.629   6.171 -0.6335 -0.4447 -1.5486
   69MOL   H12143777   3.290   6.697   6.192 -1.3701  1.1198  0.8438
   69MOL   H12243778   3.290   6.593   6.046  2.3154  1.3447  0.7182
   69MOL   H12343779   3.325   6.469   6.243  0.3306 -0.0629  0.3407
   69MOL   H12443780   3.186   6.516   6.327  0.9176  0.5655 -0.1521
   69MOL   H12543781   3.179   6.329   6.088  1.1303  0.7537  0.3475
   69MOL   H12643782   3.040   6.428   6.117  1.1542  1.5906  0.3003
   69MOL   H12743783   3.026   6.330   6.354 -0.6461  1.0891 -0.6646
   69MOL   H12843784   3.172   6.233   6.320  1.0365  2.9937  0.6489
   69MOL   H12943785   2.977   6.193   6.125 -0.7633  1.3115  0.5619
   69MOL   C13043786   2.962   6.068   6.289  0.0684  0.2204 -0.0322
   69MOL   O13143787   2.977   6.056   6.409  0.1563  0.1526 -0.3791
   69MOL   C13243788   2.868   5.977   6.212 -0.0650 -0.5786 -0.3873
   69MOL   C13343789   2.837   5.840   6.255  0.0162  0.1954  0.3813
   69MOL   C13443790   2.750   5.761   6.153 -0.3318  0.9794 -0.4216
   69MOL   C13543791   2.724   5.614   6.187  0.0828  0.4093  0.0498
   69MOL   C13643792   2.612   5.610   6.295 -0.9230 -0.0246  0.7406
   69MOL   O13743793   2.499   5.665   6.282 -0.2194  0.2198  0.3220
   69MOL   N13843794   2.640   5.533   6.397 -0.0949  0.4063  0.2075
   69MOL   C13943795   2.545   5.505   6.507 -0.0853  0.3892  0.4976
   69MOL   C14043796   2.624   5.447   6.626 -0.4173  1.1173  0.4482
   69MOL   C14143797   2.720   5.547   6.697  0.7310  0.0294 -0.7376
   69MOL   C14243798   2.634   5.615   6.807  0.1442  0.4520 -0.5023
   69MOL   N14343799   2.699   5.729   6.870 -0.3365  0.1979  1.3727
   69MOL   H14443800   2.778   6.033   6.188 -0.2697 -0.8582 -0.2810
   69MOL   H14543801   2.926   5.965   6.120  0.1068 -0.6855 -0.2667
   69MOL   H14643802   2.926   5.781   6.277 -0.2403  0.3083  1.7517
   69MOL   H14743803   2.792   5.841   6.354  0.2389  2.5842  0.4653
   69MOL   H14843804   2.804   5.763   6.058 -2.4597 -0.6013 -1.7135
   69MOL   H14943805   2.662   5.817   6.123  0.8864  2.1257 -1.8792
   69MOL   H15043806   2.816   5.568   6.224  0.9492  3.1213  1.4212
   69MOL   H15143807   2.693   5.559   6.098  1.3903 -0.4462  0.1052
   69MOL   H15243808   2.730   5.487   6.394  0.7686  2.1432 -3.7184
   69MOL   H15343809   2.463   5.440   6.479  0.2964 -1.2772  3.0967
   69MOL   H15443810   2.493   5.601   6.518  1.0020  1.0506  0.0017
   69MOL   H15543811   2.563   5.391   6.696  0.3157 -0.1552  0.0934
   69MOL   H15643812   2.687   5.368   6.584 -0.2756  1.9597 -0.9866
   69MOL   H15743813   2.772   5.622   6.638  0.0646  1.0112 -0.0918
   69MOL   H15843814   2.800   5.491   6.745  0.1884 -0.6533 -0.6132
   69MOL   H15943815   2.611   5.539   6.881 -1.2347 -0.1255 -1.5056
   69MOL   H16043816   2.540   5.647   6.761  0.9160  4.1875  0.3140
   69MOL   H16143817   2.725   5.811   6.818  1.6880  0.0025  2.0532
   69MOL   C16243818   2.755   5.721   6.992  0.5920  0.3433  0.3382
   69MOL   O16343819   2.749   5.620   7.069 -0.1251 -0.6999  0.5919
   69MOL   C16443820   2.829   5.844   7.036 -0.2812 -0.1869  0.1448
   69MOL   C16543821   2.933   5.814   7.151 -0.3469 -0.0037  0.5461
   69MOL   C16643822   3.047   5.718   7.106 -0.1775  0.7865  0.3212
   69MOL   C16743823   3.139   5.767   6.994 -0.1574 -0.2561 -0.2617
   69MOL   C16843824   3.263   5.847   7.040  0.7737  0.8202  0.6212
   69MOL   O16943825   3.267   5.901   7.150  0.0185 -0.4811  0.4434
   69MOL   N17043826   3.359   5.856   6.947  0.0362  0.1559  0.0480
   69MOL   C17143827   3.493   5.909   6.961 -0.1420 -0.7816  0.1001
   69MOL   C17243828   3.495   6.065   6.955 -0.3687 -0.9768  0.1023
   69MOL   C17343829   3.630   6.122   7.011 -0.4676  0.3968  0.1036
   69MOL   C17443830   3.644   6.274   6.993 -0.1062 -0.0025 -0.0747
   69MOL   N17543831   3.560   6.351   7.082  0.7140  0.0949  0.5927
   69MOL   H17643832   2.881   5.888   6.951 -2.0321  0.2268 -0.7577
   69MOL   H17743833   2.759   5.923   7.063  0.2586  1.0575 -1.9406
   69MOL   H17843834   2.989   5.906   7.170  2.0929 -1.2153 -0.6117
   69MOL   H17943835   2.880   5.773   7.237 -1.5734  0.3238 -0.0376
   69MOL   H18043836   3.000   5.624   7.078 -0.1000  0.2408  1.9737
   69MOL   H18143837   3.102   5.698   7.198 -0.4845  2.0634  0.7998
   69MOL   H18243838   3.088   5.814   6.910  1.3466  2.6797  0.4024
   69MOL   H18343839   3.176   5.673   6.953  0.2179  0.7856 -2.3986
   69MOL   H18443840   3.344   5.814   6.857 -0.5794 -0.2744  0.3504
   69MOL   H18543841   3.559   5.879   6.880  0.0847  1.1833 -0.4638
   69MOL   H18643842   3.524   5.890   7.064 -1.3277 -0.4482  0.5242
   69MOL   H18743843   3.469   6.095   6.853 -0.1899  1.8214  0.8441
   69MOL   H18843844   3.416   6.109   7.015 -0.7290 -1.8643  0.2906
   69MOL   H18943845   3.706   6.064   6.957 -0.9733 -0.5361  0.3724
   69MOL   H19043846   3.647   6.099   7.117  2.0657 -1.1480 -0.5760
   69MOL   H19143847   3.617   6.304   6.892 -2.4234  0.2290  0.5923
   69MOL   H19243848   3.750   6.298   7.000  0.7027 -3.2064 -0.4610
   69MOL   H19343849   3.556   6.328   7.180  0.0135  0.2377  0.6030
   69MOL   C19443850   3.485   6.459   7.055 -0.3047  0.5325 -0.1088
   69MOL   O19543851   3.470   6.509   6.945 -0.0289  0.3657  0.0861
   69MOL   C19643852   3.408   6.517   7.172  0.3197  0.3733  0.1234
   69MOL   C19743853   3.423   6.667   7.191  0.1657 -0.2025  0.4589
   69MOL   C19843854   3.438   6.702   7.339 -0.5168  0.4371 -0.4716
   69MOL   C19943855   3.411   6.851   7.378  0.0917  0.1584  0.1283
   69MOL   C20043856   3.532   6.948   7.355  0.5778 -0.4981  0.2994
   69MOL   O20143857   3.628   6.938   7.429  0.1315 -0.0265 -0.1715
   69MOL   N20243858   3.540   7.027   7.247 -0.4796 -0.3712 -0.0889
   69MOL   C20343859   3.644   7.108   7.185  0.4589 -0.1895 -0.4548
   69MOL   C20443860   3.725   7.033   7.087 -0.4344 -0.1252 -0.1787
   69MOL   C20543861   3.818   7.123   6.998  0.5167  0.0735 -0.1514
   69MOL   C20643862   3.930   7.171   7.077  0.1188  0.4718 -0.3323
   69MOL   N20743863   3.998   7.075   7.168 -0.0116 -0.1511  0.9761
   69MOL   H20843864   3.305   6.481   7.171  0.6764 -0.7646  2.1184
   69MOL   H20943865   3.443   6.468   7.263 -0.2634 -0.7931 -0.2625
   69MOL   H21043866   3.506   6.705   7.132 -1.6622 -0.6574 -2.5181
   69MOL   H21143867   3.331   6.712   7.152 -0.3027 -2.0445 -0.6548
   69MOL   H21243868   3.536   6.661   7.365  0.0944  0.3660 -2.8290
   69MOL   H21343869   3.367   6.646   7.399  1.1410  0.4095  1.5305
   69MOL   H21443870   3.394   6.861   7.485 -1.0850 -1.8036  0.1587
   69MOL   H21543871   3.319   6.893   7.337 -0.2578 -0.1107  0.6338
   69MOL   H21643872   3.452   7.040   7.200  0.6313 -0.7202 -2.3404
   69MOL   H21743873   3.696   7.169   7.259 -0.7567  0.3136 -0.0030
   69MOL   H21843874   3.596   7.182   7.122  0.8277 -0.3451 -0.9189
   69MOL   H21943875   3.763   6.942   7.134  0.5192 -0.1382 -0.9778
   69MOL   H22043876   3.659   7.002   7.006  1.3161 -0.9207 -1.3339
   69MOL   H22143877   3.767   7.200   6.941 -2.2185 -0.4661  1.4610
   69MOL   H22243878   3.853   7.064   6.913  0.0714  2.0471 -1.7324
   69MOL   H22343879   3.886   7.249   7.140  2.6122  0.3496  1.6142
   69MOL   H22443880   4.007   7.210   7.011  1.6386 -0.8764  0.6100
   69MOL   H22543881   3.953   7.011   7.232  0.6228  0.5218  2.1112
   69MOL   C22643882   4.128   7.095   7.189 -0.6061  0.2248 -0.3956
   69MOL   O22743883   4.199   7.185   7.138  0.1255  0.2173  0.8999
   69MOL   C22843884   4.189   7.001   7.294 -0.4367  0.2709  0.0289
   69MOL   C22943885   4.292   6.924   7.222 -0.0552  0.1821  0.3992
   69MOL   C23043886   4.237   6.792   7.157  0.4034  0.0074  0.0601
   69MOL   C23143887   4.347   6.722   7.069  0.8845  0.8688 -0.3683
   69MOL   C23243888   4.307   6.600   6.980  0.0032 -0.0396  0.2153
   69MOL   O23343889   4.189   6.556   6.988 -0.1127 -0.2119  0.0274
   69MOL   N23443890   4.393   6.540   6.907 -0.2087 -0.1885  0.3461
   69MOL   C23543891   4.355   6.464   6.784  0.1020  0.2289 -0.7303
   69MOL   C23643892   4.348   6.553   6.660 -0.7617 -0.2324  0.7216
   69MOL   C23743893   4.344   6.465   6.539 -0.5553 -0.0004  0.4805
   69MOL   C23843894   4.307   6.538   6.408 -0.0228  0.8452 -0.2886
   69MOL   N23943895   4.276   6.440   6.303 -0.6733  0.0489  0.6765
   69MOL   H24043896   4.239   7.040   7.383 -1.2554 -1.2420  1.1763
   69MOL   H24143897   4.109   6.946   7.343 -1.3432  1.6917  0.1744
   69MOL   H24243898   4.351   6.983   7.151 -0.1547 -0.5775 -0.3259
   69MOL   H24343899   4.369   6.887   7.289 -0.5465  0.3606  1.0699
   69MOL   H24443900   4.152   6.833   7.103 -0.2284 -1.6976 -0.2698
   69MOL   H24543901   4.196   6.720   7.227  1.1527 -0.2197  0.2704
   69MOL   H24643902   4.422   6.695   7.143  0.8086 -1.7299 -1.2095
   69MOL   H24743903   4.357   6.810   7.004  2.6157  0.3754 -0.8018
   69MOL   H24843904   4.490   6.567   6.912 -0.3239  0.3067 -0.0528
   69MOL   H24943905   4.267   6.401   6.797  0.4764 -0.4466 -1.4451
   69MOL   H25043906   4.432   6.390   6.765  0.2537 -0.0508  0.9222
   69MOL   H25143907   4.263   6.621   6.665  0.6141  1.7805 -1.5491
   69MOL   H25243908   4.441   6.611   6.656 -0.4408 -0.8577 -1.8491
   69MOL   H25343909   4.265   6.393   6.562 -0.1942 -1.1548 -1.8037
   69MOL   H25443910   4.445   6.426   6.530 -0.7495  0.2261 -3.4240
   69MOL   H25543911   4.379   6.612   6.373 -0.3115  0.4489 -1.7818
   69MOL   H25643912   4.220   6.601   6.425 -0.5313 -0.2853  1.4661
   69MOL   H25743913   4.355   6.399   6.254 -1.4243  0.7518 -1.1963
   69MOL   C25843914   4.151   6.407   6.273 -0.9798  0.0088 -0.1003
   69MOL   O25943915   4.055   6.457   6.331 -0.2576 -0.5917  0.0610
   69MOL   C26043916   4.141   6.291   6.177  0.0212  0.6181  0.7202
   69MOL   C26143917   4.110   6.328   6.032 -0.2359  0.9522  0.7803
   69MOL   C26243918   4.218   6.294   5.926 -0.3622  0.3537 -0.3894
   69MOL   C26343919   4.184   6.304   5.778 -0.2190  0.0449  0.5314
   69MOL   C26443920   4.128   6.437   5.736 -0.0443 -0.1376 -0.2970
   69MOL   O26543921   4.188   6.541   5.757  0.1454  0.1241  0.1387
   69MOL   N26643922   4.018   6.442   5.660 -0.5787 -0.0054 -0.4214
   69MOL   C26743923   3.968   6.572   5.596 -0.3437  0.1292 -1.0658
   69MOL   C26843924   3.858   6.553   5.498 -0.0741  0.4443  0.0752
   69MOL   C26943925   3.887   6.470   5.370 -0.3002 -0.8176  0.0501
   69MOL   C27043926   3.758   6.487   5.286 -0.0685 -0.3730 -0.5465
   69MOL   N27143927   3.749   6.410   5.161 -0.3122  0.4656 -0.2947
   69MOL   H27243928   4.232   6.232   6.185 -0.8739 -1.2117 -1.8358
   69MOL   H27343929   4.064   6.222   6.210  1.2696 -0.8310  0.6362
   69MOL   H27443930   4.026   6.264   6.006  0.1691  0.8093 -0.1798
   69MOL   H27543931   4.085   6.434   6.026 -1.4739  0.5850 -0.9615
   69MOL   H27643932   4.258   6.199   5.961  2.3867  1.1222 -1.3563
   69MOL   H27743933   4.294   6.370   5.937  0.3551 -0.7095  2.2514
   69MOL   H27843934   4.116   6.224   5.747  0.7395 -1.2832  1.7736
   69MOL   H27943935   4.273   6.283   5.717  1.1635  1.2072  2.1277
   69MOL   H28043936   3.964   6.357   5.646 -0.5866  0.1917 -1.5919
   69MOL   H28143937   4.051   6.610   5.536 -0.7827  2.2142 -0.3921
   69MOL   H28243938   3.950   6.650   5.669  0.1414 -1.5029  0.8337
   69MOL   H28343939   3.781   6.496   5.549  1.1576  0.4555  1.9748
   69MOL   H28443940   3.817   6.650   5.472  0.7905  0.5663 -0.8998
   69MOL   H28543941   3.917   6.368   5.397  0.9218 -0.5603 -0.2972
   69MOL   H28643942   3.969   6.508   5.309 -1.1712  0.2079 -0.4830
   69MOL   H28743943   3.738   6.590   5.256 -0.3869 -0.8604 -2.0802
   69MOL   H28843944   3.670   6.461   5.344 -1.1461  1.2406 -1.4352
   69MOL   H28943945   3.825   6.345   5.152 -1.5669 -0.6817 -3.1944
   69MOL   C29043946   3.652   6.431   5.068 -0.1126  1.1086 -0.1847
   69MOL   O29143947   3.575   6.527   5.076 -0.3148 -0.0305 -0.4098
   69MOL   C29243948   3.631   6.326   4.959  0.0516 -0.1701  0.4018
   69MOL   C29343949   3.606   6.389   4.819  0.2446 -0.1721  0.2471
   69MOL   C29443950   3.709   6.487   4.768  0.3074  0.3068  0.0271
   69MOL   C29543951   3.689   6.520   4.618 -0.2168  0.0691 -0.3455
   69MOL   C29643952   3.812   6.581   4.550  0.5560  0.2707  0.5136
   69MOL   O29743953   3.908   6.620   4.620 -0.0944 -0.3393  0.4200
   69MOL   N29843954   3.812   6.588   4.416 -1.0400 -0.6380  0.0437
   69MOL   C29943955   3.926   6.635   4.334 -0.6301 -0.3725 -0.2763
   69MOL   C30043956   3.899   6.760   4.250  0.3112 -0.1819 -0.3453
   69MOL   C30143957   4.017   6.800   4.158 -0.2133  0.0425  0.5698
   69MOL   C30243958   4.046   6.718   4.028 -0.1244 -0.4169  0.4639
   69MOL   N30343959   3.932   6.682   3.957  0.1781  0.0692  0.1900
   69MOL   H30443960   3.714   6.256   4.966  0.0805 -0.0660  1.1460
   69MOL   H30543961   3.552   6.254   4.984 -0.1277 -0.3481 -0.6654
   69MOL   H30643962   3.591   6.315   4.740  0.1785  1.1338 -0.9879
   69MOL   H30743963   3.518   6.454   4.818 -1.8716 -2.9425 -0.1357
   69MOL   H30843964   3.808   6.442   4.775 -1.0601 -2.6778  0.8922
   69MOL   H30943965   3.694   6.581   4.821 -1.4276  0.8540 -1.3921
   69MOL   H31043966   3.617   6.602   4.609  0.1129  0.6053  1.6580
   69MOL   H31143967   3.654   6.439   4.554 -0.7344 -1.8398  2.2880
   69MOL   H31243968   3.725   6.589   4.365 -1.7921 -1.4301  1.2826
   69MOL   H31343969   3.937   6.551   4.265 -1.8505 -0.2782 -0.5928
   69MOL   H31443970   4.023   6.639   4.384  0.0176  0.5184 -1.5951
   69MOL   H31543971   3.807   6.737   4.197  1.3093 -1.6925 -1.4943
   69MOL   H31643972   3.878   6.843   4.317  0.0797 -0.4129 -0.1302
   69MOL   H31743973   4.107   6.800   4.219  0.3743  2.4037 -0.2370
   69MOL   H31843974   4.004   6.906   4.136  1.0932  0.4296  1.6278
   69MOL   H31943975   4.108   6.633   4.057 -0.6467 -1.4360 -1.2914
   69MOL   H32043976   4.108   6.783   3.967  0.4954 -0.8881  0.5863
   69MOL   H32143977   3.885   6.757   3.909  0.5160 -0.9818 -1.8385
   69MOL   C32243978   3.871   6.562   3.959  0.7554  0.3410 -0.5958
   69MOL   O32343979   3.918   6.464   4.021  0.1308 -0.2547  0.8471
   69MOL   C32443980   3.736   6.543   3.890 -0.2194  0.1230 -0.0447
   69MOL   C32543981   3.637   6.442   3.963 -0.4947  0.1325 -0.1957
   69MOL   C32643982   3.623   6.291   3.911 -0.3017 -0.1724  1.1470
   69MOL   C32743983   3.741   6.201   3.949  0.0347 -0.6140  0.2746
   69MOL   C32843984   3.857   6.192   3.851 -0.3915  0.7271  0.1483
   69MOL   O32943985   3.853   6.244   3.735 -0.5094 -0.0798  0.0681
   69MOL   N33043986   3.968   6.128   3.885 -0.4096  0.4487 -0.2670
   69MOL   C33143987   4.087   6.112   3.804 -0.2002  0.6094 -0.1021
   69MOL   C33243988   4.093   5.997   3.710  0.2738 -0.2156 -0.0014
   69MOL   C33343989   4.225   5.986   3.633 -0.1397 -0.1137 -0.2043
   69MOL   C33443990   4.239   6.084   3.518 -0.3717 -0.5916  0.0303
   69MOL   N33543991   4.360   6.070   3.440 -0.1377 -0.3993 -0.6979
   69MOL   H33643992   3.689   6.641   3.894  1.1230  0.7944 -0.1858
   69MOL   H33743993   3.737   6.510   3.786  1.8207  1.3363 -0.4353
   69MOL   H33843994   3.661   6.453   4.068 -0.8393 -1.4193  0.0619
   69MOL   H33943995   3.538   6.486   3.958 -0.2383  0.8069  0.6235
   69MOL   H34043996   3.617   6.299   3.802  0.5210 -1.5452  0.9823
   69MOL   H34143997   3.529   6.249   3.946 -1.2516  1.0230  0.0575
   69MOL   H34243998   3.700   6.100   3.962 -0.0852 -0.4542  1.1659
   69MOL   H34343999   3.775   6.238   4.045 -2.1641  0.1239  0.8118
   69MOL   H34444000   3.977   6.099   3.982 -0.2505  1.5736  0.0651
   69MOL   H34544001   4.177   6.116   3.865 -1.3144  2.5288  1.4670
   69MOL   H34644002   4.099   6.201   3.741 -0.6312  1.7795  1.4551
   69MOL   H34744003   4.062   5.906   3.762  0.5041 -0.2267  0.1136
   69MOL   H34844004   4.011   6.016   3.640  0.9032  1.7054 -0.2503
   69MOL   H34944005   4.244   5.884   3.598 -0.3975 -0.9742  2.0544
   69MOL   H35044006   4.295   6.011   3.713 -2.3554  1.4829  1.2701
   69MOL   H35144007   4.233   6.188   3.551  0.7147 -0.8111  0.9393
   69MOL   H35244008   4.163   6.068   3.441  1.3350 -1.3817 -1.5162
   69MOL   H35344009   4.338   6.038   3.347  1.2688 -1.2608 -0.7504
   69MOL   C35444010   4.484   6.059   3.482 -0.2271 -0.1376  0.4502
   69MOL   O35544011   4.514   6.082   3.598  0.2959  0.4906 -0.4254
   69MOL   C35644012   4.598   6.020   3.383  0.3699  0.6577 -0.3611
   69MOL   C35744013   4.706   5.929   3.449  0.3000 -1.1210 -0.2758
   69MOL   C35844014   4.815   5.895   3.343 -1.2571  0.2498 -0.6531
   69MOL   C35944015   4.949   5.836   3.401  0.2118 -0.2443  0.3915
   69MOL   C36044016   5.026   5.935   3.489  0.3403 -0.4318  0.4734
   69MOL   O36144017   5.014   6.056   3.472  0.0056 -0.2677  0.2643
   69MOL   N36244018   5.097   5.890   3.592  0.4322  0.7966  0.2444
   69MOL   C36344019   5.174   5.975   3.694  0.5648  0.0428  0.9336
   69MOL   C36444020   5.090   6.019   3.808 -0.0083 -0.4868  0.1535
   69MOL   C36544021   5.168   6.113   3.908 -0.1700  0.6238  0.2880
   69MOL   C36644022   5.191   6.256   3.859  0.5648  0.1530  0.0397
   69MOL   N36744023   5.097   6.351   3.914  0.2135  0.1324 -0.3885
   69MOL   H36844024   4.547   5.951   3.316 -0.3335 -0.0207  0.8470
   69MOL   H36944025   4.634   6.109   3.332  0.5695  0.5575 -0.3933
   69MOL   H37044026   4.735   5.981   3.540 -0.6907 -1.1537  0.0541
   69MOL   H37144027   4.653   5.848   3.498 -0.8994  0.0653  0.4046
   69MOL   H37244028   4.847   5.984   3.289 -0.9788  0.0776 -0.7719
   69MOL   H37344029   4.774   5.832   3.264 -2.0668 -0.5511  0.3774
   69MOL   H37444030   5.021   5.809   3.323  1.4970  1.0522  1.1067
   69MOL   H37544031   4.923   5.756   3.470 -0.7128 -0.4563 -0.1949
   69MOL   H37644032   5.118   5.791   3.595 -0.4820  0.6060  0.3591
   69MOL   H37744033   5.213   6.055   3.631  1.0108 -1.8695 -1.2378
   69MOL   H37844034   5.266   5.928   3.728 -0.8160 -3.5222 -0.1200
   69MOL   H37944035   5.000   6.065   3.769  0.0617  0.6220  1.2569
   69MOL   H38044036   5.043   5.937   3.862  1.9012 -1.4105  0.4757
   69MOL   H38144037   5.263   6.064   3.927  0.8552  2.0144 -1.1483
   69MOL   H38244038   5.120   6.118   4.006 -0.3953  1.3034  0.1495
   69MOL   H38344039   5.178   6.263   3.752 -2.8704 -0.2798  0.3755
   69MOL   H38444040   5.291   6.289   3.887 -0.3250  1.7461  1.4453
   69MOL   H38544041   5.011   6.359   3.862  0.5452 -0.0953 -0.9814
   69MOL   C38644042   5.125   6.452   3.998  0.3070 -0.7485  0.1352
   69MOL   O38744043   5.229   6.462   4.060  0.4677 -0.0841  0.3628
   69MOL   C38844044   5.012   6.551   4.014  0.0776  0.7764  0.3755
   69MOL   C38944045   5.047   6.697   4.027 -0.0310  0.4840  0.5473
   69MOL   C39044046   5.136   6.748   3.913 -0.1983 -0.0782 -0.0488
   69MOL   C39144047   5.058   6.743   3.777 -0.2784  0.6695 -0.3726
   69MOL   C39244048   4.957   6.855   3.760  0.1673  0.0474 -0.2887
   69MOL   O39344049   4.836   6.836   3.786 -0.0220  0.1050  0.3443
   69MOL   N39444050   5.009   6.970   3.717  0.3783  0.4938  0.2282
   69MOL   C39544051   4.925   7.082   3.681  0.1863  0.4562 -0.6949
   69MOL   C39644052   4.893   7.180   3.797  0.9671 -0.6503 -0.3871
   69MOL   C39744053   4.786   7.286   3.757  0.1271  0.8945  0.5075
   69MOL   C39844054   4.812   7.356   3.627  0.2642  0.5919 -0.2165
   69MOL   N39944055   4.773   7.499   3.631 -0.0566  0.2165  0.5225
   69MOL   H40044056   4.947   6.536   3.928  0.7593 -1.1549  0.1710
   69MOL   H40144057   4.943   6.531   4.096 -0.6995 -0.0389 -0.4816
   69MOL   H40244058   4.955   6.755   4.023 -0.3431 -0.0841 -0.7467
   69MOL   H40344059   5.090   6.719   4.125  0.6278 -0.5454  0.4961
   69MOL   H40444060   5.228   6.689   3.904 -0.4682 -0.5546  0.3353
   69MOL   H40544061   5.166   6.851   3.929 -0.3746 -0.2524  1.4122
   69MOL   H40644062   5.018   6.644   3.752 -1.3994  0.7064  1.2346
   69MOL   H40744063   5.140   6.752   3.705  1.7780  0.8123  1.9125
   69MOL   H40844064   5.106   6.979   3.691  0.8113 -0.6065  1.4084
   69MOL   H40944065   4.835   7.040   3.636  0.1855  0.0646 -0.3270
   69MOL   H41044066   4.979   7.136   3.603  1.3334  0.0185 -0.2043
   69MOL   H41144067   4.855   7.129   3.885 -1.4732  0.0154 -1.0358
   69MOL   H41244068   4.980   7.232   3.837  0.5166 -0.5985  0.5357
   69MOL   H41344069   4.789   7.365   3.833  0.7897 -0.3002  1.7520
   69MOL   H41444070   4.682   7.253   3.757  0.2027  0.6604 -0.2374
   69MOL   H41544071   4.771   7.305   3.540  0.5669  1.7841 -1.0719
   69MOL   H41644072   4.916   7.373   3.600  0.0685 -0.4777 -1.6972
   69MOL   H41744073   4.832   7.572   3.669  0.9116 -0.6387  0.6712
   69MOL   C41844074   4.654   7.537   3.589 -0.4025 -0.1203  0.1527
   69MOL   O41944075   4.578   7.466   3.523  0.8624  0.0576  0.0102
   69MOL   C42044076   4.611   7.668   3.646 -0.6052  0.3637 -0.3486
   69MOL   C42144077   4.473   7.653   3.704  0.5983 -0.2735 -0.2006
   69MOL   C42244078   4.446   7.543   3.808  0.0579  0.3472 -0.0606
   69MOL   C42344079   4.315   7.563   3.881 -0.0175 -0.0205  0.0157
   69MOL   C42444080   4.326   7.658   3.998 -0.2580 -0.4099  0.3933
   69MOL   O42544081   4.322   0.074   3.973  0.6076  0.0112  0.2941
   69MOL   N42644082   4.322   7.599   4.113 -0.2402 -0.4532 -1.0724
   69MOL   C42744083   4.317   7.658   4.245  0.0628  0.0569 -0.5243
   69MOL   C42844084   4.181   7.625   4.309  0.0962  0.5416 -0.8630
   69MOL   C42944085   4.160   7.472   4.314 -0.7622  0.6689  0.1146
   69MOL   C43044086   4.270   7.392   4.389  0.3803 -0.0588  0.4206
   69MOL   N43144087   4.242   7.252   4.383 -0.0067 -0.5025 -0.0496
   69MOL   H43244088   4.684   7.700   3.720  0.2767  0.4934 -1.2710
   69MOL   H43344089   4.610   0.037   3.564  1.5685  0.6788 -0.1334
   69MOL   H43444090   4.452   0.046   3.755  0.8587  0.1889 -0.9467
   69MOL   H43544091   4.400   7.646   3.623  1.0186  1.8209 -0.7860
   69MOL   H43644092   4.522   7.542   3.885 -0.4065 -2.1550  0.4060
   69MOL   H43744093   4.451   7.443   3.765  0.9242 -0.1560  1.1888
   69MOL   H43844094   4.282   7.463   3.909  1.1437 -0.7337 -1.0646
   69MOL   H43944095   4.229   7.591   3.820 -0.3290  0.0133  0.4724
   69MOL   H44044096   4.353   7.503   4.119 -1.6121 -0.8132  1.1310
   69MOL   H44144097   4.332   0.064   4.229  0.0476 -0.1779 -2.1587
   69MOL   H44244098   4.409   7.638   4.299  0.4325 -0.4462 -1.3349
   69MOL   H44344099   4.178   7.674   4.406  1.9034 -1.9675  0.5424
   69MOL   H44444100   4.097   7.672   4.258 -1.1172 -1.5359 -0.8585
   69MOL   H44544101   4.157   7.436   4.211  1.3069 -2.0865  0.9688
   69MOL   H44644102   4.067   7.467   4.371 -0.9194  1.4122 -0.0710
   69MOL   H44744103   4.287   7.408   4.496 -1.3681 -0.1290  0.7141
   69MOL   H44844104   4.369   7.408   4.345  0.4513  0.7029  0.8336
   69MOL   H44944105   4.163   7.228   4.326  0.4039  2.0381 -1.8240
   69MOL   C45044106   4.328   7.159   4.422 -0.3676  0.1530 -0.6123
   69MOL   O45144107   4.436   7.182   4.482  0.7439  0.0223 -0.0965
   69MOL   C45244108   4.285   7.020   4.391  0.6479  0.0802 -0.0735
   69MOL   C45344109   4.355   6.920   4.483 -0.2878 -0.6097 -0.2733
   69MOL   C45444110   4.269   6.788   4.490 -0.1319  0.7304 -0.0786
   69MOL   C45544111   4.285   6.720   4.622  0.2661  0.0955 -0.5408
   69MOL   C45644112   4.409   6.631   4.635 -0.5043  0.7296 -0.2076
   69MOL   O45744113   4.433   6.556   4.541 -1.0636 -0.3101  0.5915
   69MOL   N45844114   4.480   6.642   4.747  0.1831  0.1012 -0.7817
   69MOL   C45944115   4.615   6.590   4.766  0.2057 -0.6351 -0.2795
   69MOL   C46044116   4.636   6.490   4.881  0.9029 -0.1600  0.0113
   69MOL   C46144117   4.565   6.531   5.012  0.0356 -0.1949  0.1659
   69MOL   C46244118   4.646   6.630   5.092 -0.0513  0.1704 -0.1459
   69MOL   N46344119   4.788   6.607   5.110  0.6764 -0.2411 -0.3183
   69MOL   H46444120   4.178   7.004   4.383  0.2178  1.6335  2.1689
   69MOL   H46544121   4.319   7.009   4.288  0.0921 -0.9848 -0.1425
   69MOL   H46644122   4.449   6.881   4.446 -1.0380 -1.6094 -1.1693
   69MOL   H46744123   4.378   6.963   4.580  2.5364  1.3202 -1.7556
   69MOL   H46844124   4.295   6.720   4.409 -1.1033  2.6170 -2.0238
   69MOL   H46944125   4.161   6.802   4.483 -0.1516  0.5599 -0.1339
   69MOL   H47044126   4.208   6.643   4.631  0.9150 -0.6591 -1.3316
   69MOL   H47144127   4.277   6.789   4.706 -1.8014  1.3914 -1.7769
   69MOL   H47244128   4.447   6.718   4.805  0.3924  0.8368 -1.6111
   69MOL   H47344129   4.688   6.670   4.764  1.4063 -1.7342 -0.8914
   69MOL   H47444130   4.644   6.544   4.671 -2.7362 -0.0252 -1.5447
   69MOL   H47544131   4.595   6.397   4.844  1.6459 -0.9061  1.0224
   69MOL   H47644132   4.743   6.476   4.897  0.6810 -1.0506  0.7327
   69MOL   H47744133   4.549   6.439   5.069  0.7964 -0.3312  0.1579
   69MOL   H47844134   4.464   6.567   4.995 -0.7034 -1.5873  1.4439
   69MOL   H47944135   4.611   6.641   5.195  1.6690 -1.2512  0.6242
   69MOL   H48044136   4.624   6.730   5.054 -0.9131 -0.2884 -0.8781
   69MOL   H48144137   4.817   6.517   5.145  0.9638  0.0428  0.1836
   69MOL   C48244138   4.888   6.693   5.090  0.5034 -0.2687  0.1643
   69MOL   O48344139   4.871   6.803   5.035 -0.4453 -0.1225  0.0864
   69MOL   C48444140   5.024   6.645   5.140 -0.4571  0.6392 -0.2498
   69MOL   C48544141   5.047   6.685   5.286  0.3411 -0.5507 -0.1185
   69MOL   C48644142   4.947   6.617   5.377 -0.3303  0.7879  0.5310
   69MOL   C48744143   4.966   6.646   5.532 -0.1365 -0.3721  0.0823
   69MOL   C48844144   4.897   6.542   5.626  0.0991  0.3206 -0.5265
   69MOL   O48944145   4.930   6.424   5.605 -0.9753 -0.1318  0.8080
   69MOL   N49044146   4.797   6.575   5.709  0.2131  0.4365 -0.4406
   69MOL   C49144147   4.729   6.468   5.789 -0.4249  0.2882 -0.4591
   69MOL   C49244148   4.668   6.522   5.914 -0.0665 -0.1151 -0.5241
   69MOL   C49344149   4.536   6.596   5.888  0.3544 -0.0949 -0.0594
   69MOL   C49444150   4.458   6.622   6.018  0.1677  0.1195 -0.0380
   69MOL   N49544151   4.327   6.680   5.988 -0.3020 -0.5187 -0.0547
   69MOL   H49644152   5.034   6.537   5.140 -4.1011  0.1862  2.6687
   69MOL   H49744153   5.102   6.686   5.076  1.8511 -1.1209  1.3226
   69MOL   H49844154   5.153   6.677   5.311  0.2657 -0.4689  0.2270
   69MOL   H49944155   5.041   6.794   5.293  2.0726 -0.5078  1.0425
   69MOL   H50044156   4.968   6.512   5.358 -2.9259  0.3173  0.0650
   69MOL   H50144157   4.844   6.636   5.348  0.0211 -0.0993 -1.3652
   69MOL   H50244158   4.928   6.746   5.549  1.3977  0.1955  0.1841
   69MOL   H50344159   5.072   6.650   5.554 -0.4792  3.0670  1.3381
   69MOL   H50444160   4.769   6.672   5.713  0.3852  0.4350  1.5509
   69MOL   H50544161   4.808   6.396   5.811  0.8753  2.4837  2.5257
   69MOL   H50644162   4.654   6.421   5.727 -0.4050  1.5876 -1.4891
   69MOL   H50744163   4.640   6.437   5.976 -0.1754 -0.3268 -0.8609
   69MOL   H50844164   4.734   6.581   5.978 -0.7810 -0.4600  0.5344
   69MOL   H50944165   4.474   6.540   5.818  1.1378 -0.9508 -0.0873
   69MOL   H51044166   4.555   6.690   5.836 -0.6703 -0.3852 -0.9752
   69MOL   H51144167   4.512   6.663   6.103  0.5834  0.6282 -0.5364
   69MOL   H51244168   4.437   6.522   6.056  0.6516 -1.3486 -3.4276
   69MOL   H51344169   4.277   6.640   5.910 -3.6823  1.0176  1.2427
   69MOL   C51444170   4.245   6.737   6.081  1.3371 -0.0865 -0.5479
   69MOL   O51544171   4.292   6.781   6.186  0.1560 -0.4041  0.0963
   69MOL   C51644172   4.095   6.759   6.046 -0.9192  0.1686 -0.4639
   69MOL   C51744173   4.068   6.888   5.959  0.3248  0.8398  0.3647
   69MOL   C51844174   4.114   6.888   5.809 -0.0623 -0.7968 -0.7001
   69MOL   C51944175   4.038   6.991   5.720  0.6082 -0.2187 -0.8038
   69MOL   C52044176   4.051   6.968   5.568 -0.6288  0.0927 -0.3418
   69MOL   O52144177   4.101   6.869   5.525  0.0149  0.2026  0.6870
   69MOL   N52244178   3.993   7.054   5.487  0.3684  0.0677 -0.5281
   69MOL   C52344179   4.008   7.058   5.349  0.1079  0.2897 -0.0653
   69MOL   C52444180   3.955   7.195   5.311 -0.5333 -0.5591 -0.3567
   69MOL   C52544181   3.994   7.218   5.166 -0.4104  0.5464  0.0452
   69MOL   C52644182   3.915   7.310   5.065  0.1567  0.5898  0.3455
   69MOL   N52744183   3.798   7.236   5.027  0.2670  0.7279 -0.1180
   69MOL   H52844184   4.053   6.674   5.992 -0.4272  0.6184 -1.5794
   69MOL   H52944185   4.040   6.765   6.140  2.2777  2.1423  1.3471
   69MOL   H53044186   3.964   6.918   5.975  0.5834  1.4119  0.9959
   69MOL   H53144187   4.125   6.971   6.002 -0.3672 -0.4467  3.9264
   69MOL   H53244188   4.101   6.790   5.764 -3.2777 -0.9051  0.3373
   69MOL   H53344189   4.220   6.912   5.798  0.4029 -1.7496  1.4603
   69MOL   H53444190   4.085   7.085   5.748  0.0098  0.0118 -0.5752
   69MOL   H53544191   3.933   6.990   5.749  0.6445 -1.7727 -0.6814
   69MOL   H53644192   3.936   7.131   5.519  2.1764  0.6595  1.3309
   69MOL   H53744193   3.953   6.976   5.302 -0.5947 -0.5464  2.1635
   69MOL   H53844194   4.114   7.054   5.324 -0.2990 -0.9207 -1.6638
   69MOL   H53944195   3.849   7.184   5.332 -0.8113  3.1948  0.5243
   69MOL   H54044196   3.995   7.275   5.373 -1.6725 -0.6419  0.4930
   69MOL   H54144197   4.012   7.126   5.111 -1.7500 -0.8229  1.8352
   69MOL   H54244198   4.096   7.256   5.170  0.1926 -0.7016 -2.4874
   69MOL   H54344199   3.982   7.337   4.983 -0.3318 -2.0656 -1.0025
   69MOL   H54444200   3.881   7.398   5.119  3.1482  2.5756 -0.8702
   69MOL   H54544201   3.809   7.142   4.994  0.6539  1.0829 -1.0047
   69MOL   C54644202   3.677   7.294   5.004  0.3760 -1.1731 -0.8707
   69MOL   O54744203   3.646   7.409   5.041  0.3110 -0.5575 -0.7440
   69MOL   C54844204   3.573   7.209   4.936  0.3613  0.4087 -0.0950
   69MOL   C54944205   3.432   7.236   4.988  0.1411  0.1736  0.0699
   69MOL   C55044206   3.338   7.123   4.967  0.2258  0.6515  0.0906
   69MOL   C55144207   3.194   7.113   5.027  0.0797  0.4168  1.0875
   69MOL   C55244208   3.182   7.167   5.167  0.0613  0.9085  0.0031
   69MOL   O55344209   3.265   7.129   5.250 -0.2593  0.2481  0.8661
   69MOL   N55444210   3.088   7.257   5.195 -0.2066  0.3082 -0.2548
   69MOL   C55544211   3.081   7.329   5.322  0.4721 -0.4457  0.2068
   69MOL   C55644212   3.130   7.473   5.329  0.1952  0.2688 -1.2293
   69MOL   C55744213   3.266   7.501   5.276 -0.1818 -0.3614 -0.2837
   69MOL   C55844214   3.270   7.570   5.138 -0.5574  0.3426  0.2876
   69MOL   N55944215   3.222   0.004   5.141 -0.3405  0.3757  0.1006
   69MOL   H56044216   3.576   7.204   4.827 -3.4795 -1.8686 -0.1799
   69MOL   H56144217   3.593   7.105   4.959  0.1410  0.1979 -0.8314
   69MOL   H56244218   3.426   7.251   5.096  1.1338  2.1946 -0.1366
   69MOL   H56344219   3.390   7.326   4.945 -1.1639 -0.9099 -0.9706
   69MOL   H56444220   3.380   7.027   4.997  0.0581  0.1913 -1.1225
   69MOL   H56544221   3.322   7.106   4.861  0.9628  2.2582 -0.2896
   69MOL   H56644222   3.162   7.009   5.031  1.0943  0.1643  2.5402
   69MOL   H56744223   3.128   7.171   4.962  0.9210  0.2728  0.0879
   69MOL   H56844224   3.045   7.298   5.113 -0.2083 -1.6141 -1.2390
   69MOL   H56944225   3.136   7.268   5.394  0.7303 -0.2173  0.2005
   69MOL   H57044226   2.979   7.327   5.361  0.1625  0.0166 -0.5693
   69MOL   H57144227   3.055   7.542   5.289 -0.1310  1.0478  0.6880
   69MOL   H57244228   3.135   7.499   5.435 -1.7762 -1.5990 -0.6326
   69MOL   H57344229   3.319   7.408   5.259 -0.3625 -0.5384  0.1260
   69MOL   H57444230   3.325   7.557   5.349  0.0044  1.0314 -1.4689
   69MOL   H57544231   3.206   7.516   5.067 -0.5252  1.3144 -0.4879
   69MOL   H57644232   3.371   7.559   5.098 -0.1713  2.1552  0.7217
   69MOL   H57744233   3.151   0.025   5.210 -0.7653 -1.3463  0.2101
   69MOL   C57844234   3.269   0.111   5.072  0.8948  0.9586  0.1865
   69MOL   O57944235   3.363   0.100   4.992  0.0915 -0.7211 -0.3906
   69MOL   C58044236   3.198   0.248   5.086  0.7921 -0.3154 -0.3818
   69MOL   C58144237   3.277   0.349   5.174  0.1522 -0.1183 -0.1608
   69MOL   C58244238   3.182   0.453   5.243  0.0506  0.6380 -0.7171
   69MOL   C58344239   3.249   0.583   5.278  0.1962  0.7705 -0.1886
   69MOL   C58444240   3.349   0.559   5.388  0.4359 -0.2053 -0.0551
   69MOL   O58544241   3.332   0.489   5.483 -0.0633  0.5715  0.2550
   69MOL   N58644242   3.464   0.631   5.371 -0.1917 -0.1580 -0.2956
   69MOL   C58744243   3.562   0.643   5.476  0.2630 -0.2840 -0.9459
   69MOL   C58844244   3.670   0.534   5.467 -0.9821 -0.4723 -0.0187
   69MOL   C58944245   3.749   0.540   5.335  0.2369  0.5328  0.1232
   69MOL   C59044246   3.879   0.462   5.332  0.2071 -0.1834 -0.6270
   69MOL   N59144247   3.944   0.463   5.197  0.1365 -0.9226 -0.0407
   69MOL   H59244248   3.179   0.292   4.988 -1.5176 -0.2317  0.0792
   69MOL   H59344249   3.097   0.227   5.120  0.5071 -1.6259 -1.9936
   69MOL   H59444250   3.341   0.299   5.246 -0.2077 -0.3034  0.0306
   69MOL   H59544251   3.340   0.402   5.102  0.3763  0.2179  0.2760
   69MOL   H59644252   3.144   0.403   5.332  0.0950 -1.6092 -1.9177
   69MOL   H59744253   3.089   0.464   5.187 -0.4902 -0.7997 -0.1172
   69MOL   H59844254   3.179   0.650   5.328  0.8674 -0.5840  2.6668
   69MOL   H59944255   3.287   0.630   5.188  1.6767 -0.5538 -0.2801
   69MOL   H60044256   3.474   0.679   5.283 -2.0705  0.4028 -0.2300
   69MOL   H60144257   3.513   0.645   5.574  2.9180 -1.1458  0.4498
   69MOL   H60244258   3.606   0.741   5.460 -0.4441  0.0048 -1.1479
   69MOL   H60344259   3.749   0.555   5.539 -0.6103  2.0432 -1.1140
   69MOL   H60444260   3.631   0.434   5.490 -2.2012 -0.3709 -1.5850
   69MOL   H60544261   3.777   0.641   5.304  1.7997 -0.4294 -1.6728
   69MOL   H60644262   3.689   0.498   5.254 -0.5251  1.2620  0.2917
   69MOL   H60744263   3.858   0.364   5.376 -0.8051 -0.4460 -1.6770
   69MOL   H60844264   3.947   0.516   5.399 -1.4089 -1.1421  1.8603
   69MOL   H60944265   3.884   0.482   5.118 -0.3948 -1.4427  0.2367
   69MOL   C61044266   4.071   0.435   5.166 -0.2444  0.1232 -0.3562
   69MOL   O61144267   4.164   0.410   5.242  0.6750 -0.0900  0.0875
   69MOL   C61244268   4.097   0.425   5.016 -0.3015  0.7316 -0.2204
   69MOL   C61344269   4.221   0.494   4.963  0.9143 -0.2925 -0.6147
   69MOL   C61444270   4.259   0.648   4.997 -0.9100  0.3098 -0.0815
   69MOL   C61544271   4.416   0.663   4.988  0.0628 -0.1551  0.1294
   69MOL   C61644272   4.452   0.813   4.996  0.1783 -0.0059  0.3138
   69MOL   O61744273   4.405   0.889   5.076  0.1140  0.3175  0.8145
   69MOL   N61844274   4.541   0.862   4.903  0.0096  0.4199 -0.8350
   69MOL   C61944275   4.592   1.004   4.905 -0.1679  0.3515 -0.0291
   69MOL   C62044276   4.658   1.047   4.773 -0.3292  0.0606 -0.3047
   69MOL   C62144277   4.747   1.168   4.784 -0.3762  0.1993  0.5436
   69MOL   C62244278   4.658   1.296   4.795 -0.2340  0.1967 -0.6089
   69MOL   N62344279   4.731   1.423   4.807 -0.4811 -0.1836 -0.5531
   69MOL   H62444280   4.086   0.326   4.973 -1.2767  0.7986 -0.1198
   69MOL   H62544281   4.009   0.469   4.968 -1.1050 -0.4789  0.1490
   69MOL   H62644282   4.296   0.439   5.018 -0.1359 -0.7201  0.4227
   69MOL   H62744283   4.228   0.475   4.856  0.2319 -0.6777 -0.5968
   69MOL   H62844284   4.230   0.676   5.098 -1.4025  2.6999 -0.8625
   69MOL   H62944285   4.198   0.714   4.936 -0.6038  0.2454 -0.4589
   69MOL   H63044286   4.453   0.622   4.894  0.1550  0.9590 -0.3288
   69MOL   H63144287   4.471   0.606   5.063  1.3095  0.6347 -0.1647
   69MOL   H63244288   4.584   0.805   4.831  2.0905  1.9259 -0.8079
   69MOL   H63344289   4.668   1.004   4.982 -0.8017  0.0862  0.6007
   69MOL   H63444290   4.513   1.076   4.927  0.4304 -0.0757  3.7973
   69MOL   H63544291   4.728   0.965   4.756  0.8820  1.0439 -0.1547
   69MOL   H63644292   4.583   1.053   4.694  0.4973  2.8456 -0.9441
   69MOL   H63744293   4.809   1.178   4.696  0.1024  1.7678  1.0506
   69MOL   H63844294   4.819   1.167   4.866 -0.4515  0.4284  0.6116
   69MOL   H63944295   4.599   1.283   4.886 -0.0486  0.8721 -0.3847
   69MOL   H64044296   4.585   1.302   4.714  1.0405  0.9920 -1.7181
   69MOL   H64144297   4.681   1.510   4.818 -0.8831 -0.6644  1.5954
   69MOL   H64244298   4.799   1.436   4.733 -0.4679 -0.7959 -0.6551
   70MOL     C144299   1.116   0.418   1.044  0.8051  0.1419  0.2529
   70MOL     O244300   1.171   0.325   0.982  0.0772 -0.0840 -0.1587
   70MOL     C344301   1.091   0.381   1.186 -0.2322 -0.2283 -1.4325
   70MOL     C444302   1.023   0.497   1.268 -0.2317  0.4607 -0.2156
   70MOL     C544303   1.108   0.620   1.304 -1.0486 -0.4047 -0.3152
   70MOL     C644304   1.033   0.721   1.391 -0.3304 -0.2708  0.4201
   70MOL     C744305   0.920   0.793   1.331 -0.4256 -0.3753 -0.4736
   70MOL     O844306   0.829   0.725   1.284  0.3880  0.0708  0.2165
   70MOL     N944307   0.920   0.930   1.328 -0.0759  0.1340 -0.4778
   70MOL    C1044308   0.827   1.013   1.275  0.3589  0.1313 -0.6381
   70MOL    C1144309   0.911   1.134   1.204 -0.0571 -0.0951  0.5681
   70MOL    C1244310   0.830   1.258   1.155  0.3921 -0.3964  0.3802
   70MOL    C1344311   0.914   1.345   1.058 -0.0317  0.3371 -0.5212
   70MOL    N1444312   0.845   1.473   1.031 -0.1999 -0.2415  0.3610
   70MOL    H1544313   1.021   0.297   1.180  0.3914 -0.7831 -1.0242
   70MOL    H1644314   1.185   0.348   1.230 -1.1968  1.5307  2.1442
   70MOL    H1744315   0.943   0.537   1.205 -0.3548  1.4974  0.5808
   70MOL    H1844316   0.981   0.450   1.356  2.0243 -1.0004  0.1002
   70MOL    H1944317   1.135   0.667   1.210 -3.4089  2.8556  0.5238
   70MOL    H2044318   1.196   0.588   1.360 -1.9201  0.1450  1.4204
   70MOL    H2144319   1.107   0.795   1.424 -0.2231  0.2292 -0.9417
   70MOL    H2244320   0.986   0.669   1.475 -3.0132  0.5789 -0.5137
   70MOL    H2344321   1.012   0.967   1.349 -0.1637 -0.0583  0.2697
   70MOL    H2444322   0.760   1.053   1.351  0.9443  0.5260 -0.3240
   70MOL    H2544323   0.765   0.957   1.204  0.5638 -1.3150  0.3049
   70MOL    H2644324   0.970   1.174   1.287  0.1314 -0.1772  0.4742
   70MOL    H2744325   0.972   1.092   1.124  0.0446 -1.2188  1.2072
   70MOL    H2844326   0.784   1.324   1.229 -1.8912 -0.1355 -1.1976
   70MOL    H2944327   0.751   1.214   1.094  0.8182  1.5421 -1.6776
   70MOL    H3044328   0.930   1.298   0.961  1.2932  0.8198 -0.5589
   70MOL    H3144329   1.016   1.360   1.095  0.9183 -3.2702 -1.5026
   70MOL    H3244330   0.865   1.556   1.085 -3.0051  1.6848 -1.4372
   70MOL    H3344331   1.084   0.517   1.014  2.2618  1.2230  2.1653
   70MOL    C3444332   0.752   1.486   0.933  0.0400 -0.0100  0.3826
   70MOL    O3544333   0.718   1.391   0.865  0.5698 -0.0120 -0.1693
   70MOL    C3644334   0.684   1.619   0.923  0.6432 -0.5203 -0.0966
   70MOL    C3744335   0.789   1.736   0.917 -0.0853  0.3108  0.2422
   70MOL    C3844336   0.891   1.740   0.802 -0.0315 -0.1414  0.0008
   70MOL    C3944337   0.962   1.872   0.784  1.1158 -0.6622 -0.2897
   70MOL    C4044338   1.070   1.882   0.676  0.0782 -0.1411 -0.0960
   70MOL    O4144339   1.137   1.781   0.650 -0.2551 -0.1059  0.5515
   70MOL    N4244340   1.082   1.992   0.607 -0.0642 -0.1213  0.1670
   70MOL    C4344341   1.127   2.013   0.476 -0.0592  0.0221  0.0515
   70MOL    C4444342   1.273   2.042   0.453  0.5459  0.4889  0.0839
   70MOL    C4544343   1.317   2.039   0.306 -0.2743 -1.2882 -0.0020
   70MOL    C4644344   1.326   1.904   0.247  0.2817 -0.0050  0.0202
   70MOL    N4744345   1.388   1.917   0.113  0.5726 -0.4457  0.2509
   70MOL    H4844346   0.633   1.618   0.826  1.0493 -2.4749 -0.3272
   70MOL    H4944347   0.611   1.634   1.002  0.7600  1.1995 -0.3032
   70MOL    H5044348   0.732   1.829   0.904  2.4686  1.8262 -0.4593
   70MOL    H5144349   0.838   1.750   1.014 -1.5457 -0.0787  1.0497
   70MOL    H5244350   0.847   1.712   0.706 -1.7781  1.0848  0.4068
   70MOL    H5344351   0.966   1.663   0.816 -1.7916 -1.6455  1.4500
   70MOL    H5444352   1.007   1.903   0.878  0.0899 -0.7474  0.2379
   70MOL    H5544353   0.882   1.941   0.758  1.5274  1.0560  2.7534
   70MOL    H5644354   1.033   2.073   0.643  1.0725  0.4501  0.4572
   70MOL    H5744355   1.053   2.083   0.438  0.3553  0.0602 -0.6913
   70MOL    H5844356   1.118   1.917   0.424  0.3353  0.7786 -1.4273
   70MOL    H5944357   1.290   2.143   0.491 -0.6709  0.4357  0.8179
   70MOL    H6044358   1.330   1.969   0.509  1.0749 -0.8618 -2.1691
   70MOL    H6144359   1.418   2.079   0.293 -1.0895 -0.0868 -2.8611
   70MOL    H6244360   1.239   2.094   0.255 -0.6214 -0.3143  1.5251
   70MOL    H6344361   1.228   1.857   0.238 -0.1001  0.6666  0.6396
   70MOL    H6444362   1.377   1.842   0.321  0.3126  2.6142  2.2464
   70MOL    H6544363   1.346   1.974   0.041  0.7046 -1.4636 -0.6506
   70MOL    C6644364   1.495   1.850   0.073 -0.7560 -0.0897  0.2975
   70MOL    O6744365   1.538   1.760   0.148  0.2252  0.1226  0.2556
   70MOL    C6844366   1.560   1.887   7.634 -0.3133 -0.1446  0.2794
   70MOL    C6944367   1.701   1.823   7.622 -0.0622  0.0523  0.8882
   70MOL    C7044368   1.782   1.873   7.495 -0.6886 -0.1236 -0.2187
   70MOL    C7144369   1.921   1.803   7.488  0.5632 -0.2960  0.1860
   70MOL    C7244370   1.910   1.664   7.439  0.5235  0.2550 -0.5218
   70MOL    O7344371   1.833   1.633   7.348 -0.3108 -0.0989 -0.5620
   70MOL    N7444372   1.994   1.577   7.500  0.3395 -0.2591  0.2712
   70MOL    C7544373   2.002   1.437   7.462 -0.4396 -0.5158 -0.4449
   70MOL    C7644374   1.877   1.351   7.499 -0.6491  0.0349  0.9563
   70MOL    C7744375   1.891   1.199   7.463  0.2365 -0.7985  0.2385
   70MOL    C7844376   1.806   1.106   7.554  0.2574 -0.2520 -0.4294
   70MOL    N7944377   1.795   0.966   7.508 -0.0521  0.1748  0.3531
   70MOL    H8044378   1.502   1.843   7.554  0.2369 -1.3521  0.5348
   70MOL    H8144379   1.563   1.995   7.624 -0.0066  0.2097  3.6519
   70MOL    H8244380   1.753   1.838   0.016 -0.1273  1.2014  0.7506
   70MOL    H8344381   1.693   1.715   7.615 -2.9449  0.3550 -1.1356
   70MOL    H8444382   1.798   1.980   7.506  0.3707 -0.3827  0.8438
   70MOL    H8544383   1.722   1.850   7.406  1.2057  3.2945 -2.4856
   70MOL    H8644384   1.984   1.817   7.576  0.0703  0.5271  0.4109
   70MOL    H8744385   1.977   1.853   7.408  0.7397 -1.4775 -0.4419
   70MOL    H8844386   2.067   1.604   7.565 -1.1963  2.5714  0.8877
   70MOL    H8944387   2.090   1.387   7.504  0.9338  1.1793 -1.2386
   70MOL    H9044388   2.012   1.424   7.354 -0.3852 -3.2593 -0.1447
   70MOL    H9144389   1.856   1.360   7.606 -2.6326  0.3958  0.5420
   70MOL    H9244390   1.790   1.395   7.451  0.2564 -1.2286 -1.9515
   70MOL    H9344391   1.997   1.175   7.472  0.4734 -0.4750 -1.4293
   70MOL    H9444392   1.857   1.188   7.360 -2.0670  0.2976  0.8611
   70MOL    H9544393   1.711   1.159   7.559 -0.4958 -1.5973 -0.1107
   70MOL    H9644394   1.856   1.114   7.650  0.0314 -0.8899 -0.2530
   70MOL    H9744395   1.703   0.925   7.495 -0.7821  1.7909  0.2456
   70MOL    C9844396   1.897   0.886   7.492 -0.2483 -0.1470  0.5693
   70MOL    O9944397   2.018   0.930   7.490 -0.5028 -0.2707  0.2030
   70MOL   C10044398   1.866   0.741   7.454 -0.0073 -0.1930  0.1362
   70MOL   C10144399   1.987   0.651   7.429  0.3249  1.1534  0.6766
   70MOL   C10244400   2.055   0.675   7.300 -0.5753 -0.3726  0.6380
   70MOL   C10344401   2.190   0.599   7.305  0.0790 -0.5396  0.0274
   70MOL   C10444402   2.265   0.598   7.167  0.4155 -0.3517  0.1175
   70MOL   O10544403   2.213   0.637   7.067 -0.2782  0.3129 -0.2106
   70MOL   N10644404   2.383   0.543   7.161 -0.8462  0.1397  0.0177
   70MOL   C10744405   2.456   0.514   7.039 -0.1029 -0.8750 -0.4561
   70MOL   C10844406   2.565   0.629   7.030  0.3836 -0.2868 -0.3044
   70MOL   C10944407   2.668   0.607   6.915 -0.5398  0.7655  0.4407
   70MOL   C11044408   2.792   0.696   6.902  0.0644 -0.1161  0.1228
   70MOL   N11144409   2.892   0.657   6.807  0.8566 -0.1411 -0.3439
   70MOL   H11244410   1.808   0.703   7.538 -0.0684  1.7232  0.9895
   70MOL   H11344411   1.807   0.755   7.363 -0.1448 -0.3065  0.2099
   70MOL   H11444412   2.054   0.661   7.514  0.1317  1.1837  0.8263
   70MOL   H11544413   1.951   0.549   7.443 -1.8452  1.5747 -1.5846
   70MOL   H11644414   2.076   0.781   7.286  2.5220 -1.1310 -0.9266
   70MOL   H11744415   1.991   0.643   7.218  0.4404 -0.6282 -0.0579
   70MOL   H11844416   2.167   0.493   7.315 -2.0407 -0.0762  0.3207
   70MOL   H11944417   2.250   0.643   7.385 -1.1031  1.0478  0.0837
   70MOL   H12044418   2.422   0.508   7.247  0.0711  1.4723  0.1455
   70MOL   H12144419   2.402   0.504   6.945  0.1354  0.8556 -0.8052
   70MOL   H12244420   2.506   0.419   7.054  1.7943  0.0905 -0.4545
   70MOL   H12344421   2.518   0.725   7.009 -0.5854 -0.3651  1.4520
   70MOL   H12444422   2.620   0.651   7.121  1.6731 -0.6824 -0.9750
   70MOL   H12544423   2.616   0.602   6.819 -0.0325 -0.4034  0.2176
   70MOL   H12644424   2.709   0.506   6.922 -1.6197  0.4304  2.1499
   70MOL   H12744425   2.858   0.703   6.988  1.3894 -0.8922 -0.8292
   70MOL   H12844426   2.764   0.800   6.883 -1.4388 -0.3982  0.6912
   70MOL   H12944427   2.954   0.585   6.844 -0.1289 -1.0131 -0.3621
   70MOL   C13044428   2.907   0.709   6.686  0.0540 -0.5229  0.2933
   70MOL   O13144429   2.847   0.808   6.642  0.4807  0.4667 -0.3186
   70MOL   C13244430   3.017   0.653   6.611 -1.0828  0.1963  0.3657
   70MOL   C13344431   3.023   0.660   6.453  0.4370  0.3917  0.5713
   70MOL   C13444432   3.167   0.622   6.407 -0.2872 -0.2815  0.4942
   70MOL   C13544433   3.204   0.656   6.263 -0.1740  0.7660  0.1338
   70MOL   C13644434   3.311   0.765   6.255  0.1004 -0.2671  0.5058
   70MOL   O13744435   3.299   0.863   6.319 -0.1201 -0.4152 -0.1121
   70MOL   N13844436   3.407   0.749   6.162  0.3505 -0.2908  0.5304
   70MOL   C13944437   3.531   0.825   6.161 -0.8984 -0.6602  0.3995
   70MOL   C14044438   3.531   0.941   6.057  0.6111  0.5554 -0.7372
   70MOL   C14144439   3.653   1.038   6.077 -0.4021 -0.5196 -0.4132
   70MOL   C14244440   3.658   1.158   5.983  0.1362 -0.1442 -0.2853
   70MOL   N14344441   3.667   1.116   5.847 -0.7033  0.0665  0.6876
   70MOL   H14444442   3.106   0.696   6.657 -1.2099  0.0387  0.7681
   70MOL   H14544443   3.019   0.547   6.636 -3.1717  0.4466  1.6873
   70MOL   H14644444   2.948   0.603   6.399  0.1341  2.8151 -1.6955
   70MOL   H14744445   2.986   0.752   6.408 -2.7082 -1.0470  0.1048
   70MOL   H14844446   3.184   0.517   6.430  2.1222 -0.1085 -0.4117
   70MOL   H14944447   3.230   0.670   6.481  0.5472 -1.4083  0.5249
   70MOL   H15044448   3.116   0.694   6.209 -0.6368  2.5298  2.0856
   70MOL   H15144449   3.232   0.571   6.201 -0.1876 -0.8550  2.3236
   70MOL   H15244450   3.383   0.672   6.101  0.7348 -0.6814  0.8677
   70MOL   H15344451   3.600   0.751   6.120 -1.0804  0.7478 -2.5624
   70MOL   H15444452   3.565   0.856   6.260  1.4075  3.3121 -1.5165
   70MOL   H15544453   3.526   0.891   5.960  1.6459  0.7319 -0.8844
   70MOL   H15644454   3.435   0.992   6.058 -0.1751 -0.9198 -0.7646
   70MOL   H15744455   3.747   0.982   6.069  0.0955 -0.1670  2.2676
   70MOL   H15844456   3.639   1.080   6.177 -1.4175  0.2101 -0.8530
   70MOL   H15944457   3.730   1.238   6.003  1.6214 -1.9102  1.6494
   70MOL   H16044458   3.558   1.203   5.990 -0.9375 -2.3382 -1.1387
   70MOL   H16144459   3.698   1.021   5.829  0.6441  0.8601 -1.3779
   70MOL   C16244460   3.639   1.204   5.749 -0.2501 -0.3847 -0.2198
   70MOL   O16344461   3.593   1.319   5.770  0.6176 -0.1075  0.4948
   70MOL   C16444462   3.671   1.160   5.606  0.3326 -0.3108  0.7535
   70MOL   C16544463   3.541   1.150   5.520 -0.2251 -0.0845 -0.4787
   70MOL   C16644464   3.564   1.061   5.388 -0.3369  0.1834  0.5548
   70MOL   C16744465   3.449   1.034   5.295  0.3128 -0.8998 -0.1912
   70MOL   C16844466   3.487   0.948   5.179 -0.5638 -0.0750 -0.0071
   70MOL   O16944467   3.512   0.829   5.194  0.0807  0.2583 -0.0284
   70MOL   N17044468   3.481   0.997   5.059  0.0327  0.0387  0.3378
   70MOL   C17144469   3.496   0.921   4.937 -0.4927 -0.0998  0.1218
   70MOL   C17244470   3.406   0.976   4.826  0.4273  0.1693  0.1278
   70MOL   C17344471   3.395   0.878   4.702 -0.4919 -0.5706  0.7947
   70MOL   C17444472   3.306   0.935   4.584  0.2557 -0.7824 -0.3667
   70MOL   N17544473   3.267   0.840   4.482 -0.0775  1.0377 -0.1645
   70MOL   H17644474   3.746   1.218   5.553 -1.8364  1.1339 -0.8369
   70MOL   H17744475   3.715   1.062   5.618  0.4268 -0.2783  0.6726
   70MOL   H17844476   3.462   1.103   5.579 -0.1140  1.9989  1.3926
   70MOL   H17944477   3.508   1.248   5.488 -0.6883 -0.0112  0.1996
   70MOL   H18044478   3.616   0.969   5.416  1.7848  2.0705  3.0741
   70MOL   H18144479   3.630   1.116   5.322 -0.3471  0.9255  1.1489
   70MOL   H18244480   3.419   1.134   5.262  1.1402 -0.3266  0.7652
   70MOL   H18344481   3.360   1.000   5.347 -0.5212 -0.0024 -1.0028
   70MOL   H18444482   3.471   1.097   5.047 -3.4391 -0.0020  2.4860
   70MOL   H18544483   3.461   0.818   4.942  1.7915 -0.8333  2.1882
   70MOL   H18644484   3.599   0.911   4.903 -0.0770 -1.9906  1.8697
   70MOL   H18744485   3.307   1.008   4.859  0.9984  1.7325  0.3644
   70MOL   H18844486   3.436   1.078   4.801  1.9252  0.3255  2.4418
   70MOL   H18944487   3.358   0.781   4.735 -0.6048 -0.5981  0.5868
   70MOL   H19044488   3.497   0.863   4.667 -0.4684  0.7534  0.2802
   70MOL   H19144489   3.348   1.026   4.542  1.3771 -0.8533  0.5759
   70MOL   H19244490   3.210   0.966   4.625  0.2401  2.0591 -2.4237
   70MOL   H19344491   3.179   0.792   4.490  0.5690 -0.0812  0.3843
   70MOL   C19444492   3.346   0.788   4.391  0.0066 -0.4277  0.0758
   70MOL   O19544493   3.453   0.838   4.371 -0.7958 -0.6087  0.3936
   70MOL   C19644494   3.291   0.676   4.299  0.0530 -0.3579  0.1336
   70MOL   C19744495   3.386   0.556   4.314  0.0355  0.1293 -0.4961
   70MOL   C19844496   3.379   0.476   4.448  0.3156 -0.0118  0.0884
   70MOL   C19944497   3.491   0.374   4.472 -0.7015  0.1349 -0.6050
   70MOL   C20044498   3.628   0.434   4.477  0.4759 -1.5939  0.3632
   70MOL   O20144499   3.660   0.540   4.535 -0.0717  0.1016 -0.4327
   70MOL   N20244500   3.718   0.369   4.402 -0.5038  0.0229  0.1822
   70MOL   C20344501   3.862   0.392   4.410  0.5919 -0.0944 -0.5263
   70MOL   C20444502   3.922   0.300   4.514 -0.2085  0.3432  0.7657
   70MOL   C20544503   4.078   0.305   4.496  0.6704  0.7897  1.1082
   70MOL   C20644504   4.145   0.434   4.539 -0.1456  0.4943  0.2557
   70MOL   N20744505   4.287   0.410   4.541 -0.7671  0.0265  0.2647
   70MOL   H20844506   3.188   0.650   4.324 -0.4579 -0.7023 -2.2136
   70MOL   H20944507   3.289   0.713   4.196 -0.5028  1.5345  0.8100
   70MOL   H21044508   3.362   0.494   4.228  1.0057  0.8684 -1.3139
   70MOL   H21144509   3.488   0.595   4.303 -0.8700  2.7116 -0.1795
   70MOL   H21244510   3.288   0.416   4.445  0.7950 -0.9361  2.8298
   70MOL   H21344511   3.379   0.546   4.531  0.9058  0.1096 -0.0141
   70MOL   H21444512   3.490   0.297   4.394 -0.4083 -1.0318  0.5288
   70MOL   H21544513   3.479   0.316   4.563  0.1039 -0.0297 -0.6018
   70MOL   H21644514   3.694   0.288   4.348  0.9085 -0.2300 -0.0904
   70MOL   H21744515   3.896   0.488   4.448  0.0222 -0.2681  0.4422
   70MOL   H21844516   3.914   0.382   4.314  1.7685  2.7401 -0.2231
   70MOL   H21944517   3.889   0.322   4.615 -2.8986 -0.0063 -0.0023
   70MOL   H22044518   3.911   0.192   4.500 -0.5780  0.0763  3.0152
   70MOL   H22144519   4.107   0.274   4.396 -0.6988  0.2577  0.8649
   70MOL   H22244520   4.110   0.216   4.551 -0.9755  0.1329  1.0164
   70MOL   H22344521   4.103   0.460   4.637 -0.5961  1.6161 -0.2325
   70MOL   H22444522   4.125   0.517   4.471 -0.5378 -1.4675 -2.0580
   70MOL   H22544523   4.321   0.317   4.558 -1.9563 -0.5591 -0.4777
   70MOL   C22644524   4.387   0.500   4.539  1.1454  0.4775 -0.8033
   70MOL   O22744525   4.361   0.619   4.548  0.0164  0.2643 -0.0913
   70MOL   C22844526   4.531   0.455   4.504  0.5396 -0.4133 -0.1909
   70MOL   C22944527   4.616   0.555   4.434  0.0026 -0.8573 -0.2390
   70MOL   C23044528   4.683   0.671   4.510  0.3412  0.5560  0.6076
   70MOL   C23144529   4.813   0.633   4.588 -0.4310  0.6115 -0.2728
   70MOL   C23244530   4.796   0.604   4.738 -0.3360 -0.1881 -0.5034
   70MOL   O23344531   4.767   0.696   4.814 -0.0801 -0.0103 -0.6836
   70MOL   N23444532   4.826   0.484   4.786  0.4259  0.3536  0.0534
   70MOL   C23544533   4.816   0.439   4.923  0.0373  0.5719 -0.4223
   70MOL   C23644534   4.727   0.312   4.935 -1.4476  0.2551  0.0343
   70MOL   C23744535   4.575   0.336   4.913 -0.0330  0.1844 -0.1079
   70MOL   C23844536   4.493   0.206   4.922 -0.3189 -0.3248 -0.2493
   70MOL   N23944537   4.532   0.117   4.812  0.5246  0.0587  0.4702
   70MOL   H24044538   4.576   0.413   4.593 -0.2413 -1.1842 -0.1535
   70MOL   H24144539   4.516   0.361   4.452 -0.9776 -1.2343  1.6587
   70MOL   H24244540   4.691   0.508   4.369  1.5659  1.6962 -0.3436
   70MOL   H24344541   4.546   0.599   4.363 -2.6256 -2.2323  1.4645
   70MOL   H24444542   4.606   0.706   4.579 -3.2435 -0.3303 -2.7471
   70MOL   H24544543   4.707   0.757   4.448 -0.7153  0.0281 -0.5489
   70MOL   H24644544   4.883   0.714   4.565 -0.3019  0.7597  0.6230
   70MOL   H24744545   4.858   0.544   4.544  0.3989  0.9255 -0.0789
   70MOL   H24844546   4.846   0.416   4.714  0.0543  1.4129 -1.0619
   70MOL   H24944547   4.774   0.512   4.992  2.8008  1.1498  0.7208
   70MOL   H25044548   4.920   0.420   4.951 -0.3942  0.6162  1.2785
   70MOL   H25144549   4.760   0.239   4.861  0.4867  1.0485  0.0738
   70MOL   H25244550   4.759   0.265   5.028  0.8559 -1.1713 -1.4045
   70MOL   H25344551   4.558   0.392   4.822 -0.2928  0.9098  0.3790
   70MOL   H25444552   4.533   0.397   4.994  4.2141  1.9226  0.9250
   70MOL   H25544553   4.389   0.236   4.906 -0.2838  0.4953  1.0325
   70MOL   H25644554   4.505   0.163   5.021 -1.6990 -1.1646 -0.4320
   70MOL   H25744555   4.596   0.044   4.842  2.3976  0.8496 -1.4485
   70MOL   C25844556   4.475   0.101   4.693 -0.8954  0.3253 -0.2237
   70MOL   O25944557   4.394   0.182   4.645  0.4865  0.3340  0.5242
   70MOL   C26044558   4.527   7.687   4.609  0.0712 -0.3606 -0.1645
   70MOL   C26144559   4.668   0.007   4.552  0.7565  0.2739  0.5164
   70MOL   C26244560   4.708   0.147   4.498  0.0253  0.8195  0.3338
   70MOL   C26344561   4.854   0.159   4.445  0.5775  0.1952 -0.8874
   70MOL   C26444562   4.952   0.187   4.562 -0.6942  0.0478  0.6551
   70MOL   O26544563   4.940   0.290   4.628  0.7053 -0.3888  0.5886
   70MOL   N26644564   5.045   0.098   4.584  0.1243  0.0104 -0.1205
   70MOL   C26744565   5.142   0.110   4.695 -0.1892  0.6603 -0.9162
   70MOL   C26844566   5.224   7.683   4.724 -0.6483 -0.9249  0.0934
   70MOL   C26944567   5.342   0.015   4.825  0.3719  0.0666  0.1852
   70MOL   C27044568   5.415   7.584   4.870 -0.4911 -0.9072  0.3658
   70MOL   N27144569   5.492   7.516   4.765 -0.2102  0.6592 -0.0412
   70MOL   H27244570   4.518   7.598   4.671  0.2142 -0.5898 -0.4673
   70MOL   H27344571   4.463   7.675   4.521  0.4036  0.7891 -0.5747
   70MOL   H27444572   4.737   7.672   4.629  0.9521 -1.4233 -0.4353
   70MOL   H27544573   4.686   7.629   4.480 -0.4317  0.2015  0.2930
   70MOL   H27644574   4.682   0.227   4.567 -3.5448  0.1094 -0.0659
   70MOL   H27744575   4.648   0.165   4.408 -0.3834 -2.4350 -0.1384
   70MOL   H27844576   4.846   0.244   4.376 -1.9059 -1.8348 -3.2110
   70MOL   H27944577   4.883   0.075   4.381 -1.6673 -2.3943  1.3997
   70MOL   H28044578   5.027   0.010   4.539 -0.2141  0.4161 -0.7838
   70MOL   H28144579   5.090   0.149   4.782  1.5166 -2.4748  1.6016
   70MOL   H28244580   5.212   0.187   4.660 -0.7607  2.9714  2.7462
   70MOL   H28344581   5.160   7.606   4.767 -1.9142 -0.9744 -1.8065
   70MOL   H28444582   5.273   7.637   4.638  0.2744 -0.4682  0.3599
   70MOL   H28544583   5.303   0.063   4.915  1.1125  1.2389 -0.1058
   70MOL   H28644584   5.410   0.078   4.768 -2.2903  2.3075 -0.6086
   70MOL   H28744585   5.354   7.510   4.921 -2.2462  1.9782  2.5829
   70MOL   H28844586   5.493   7.612   4.940 -1.7332 -0.3829  1.5610
   70MOL   H28944587   5.446   7.507   4.675  0.4060  0.4212 -0.3326
   70MOL   C29044588   5.619   7.474   4.773 -1.3136  0.4894  0.4570
   70MOL   O29144589   5.685   7.486   4.878 -0.5566 -0.5217  0.1818
   70MOL   C29244590   5.681   7.406   4.649 -0.0953 -0.2836  0.0483
   70MOL   C29344591   5.733   7.268   4.667 -1.1460 -0.1141 -0.1757
   70MOL   C29444592   5.622   7.156   4.665 -0.1903  0.1319 -0.1648
   70MOL   C29544593   5.518   7.156   4.781  0.0519  0.0441 -0.0176
   70MOL   C29644594   5.564   7.109   4.911 -0.5629  0.1552 -0.8763
   70MOL   O29744595   5.561   6.991   4.939  0.4633  0.4779 -0.3470
   70MOL   N29844596   5.589   7.207   4.998 -0.5058 -0.0870  0.0753
   70MOL   C29944597   5.608   7.196   5.143  0.2313  0.1203  0.0850
   70MOL   C30044598   5.486   7.139   5.216 -0.3358 -0.0259 -0.0906
   70MOL   C30144599   5.358   7.217   5.198 -0.2356  0.1695 -0.2372
   70MOL   C30244600   5.363   7.358   5.250  0.7539  0.1740 -0.1815
   70MOL   N30344601   5.225   7.410   5.268 -0.7168 -0.0049 -0.4823
   70MOL   H30444602   5.603   7.416   4.574  0.6332  2.4114 -0.4111
   70MOL   H30544603   5.774   7.454   4.616  0.8525 -1.6256  0.7092
   70MOL   H30644604   5.799   7.242   4.584  0.0556  3.0641 -0.3028
   70MOL   H30744605   5.781   7.259   4.764  1.1086  3.3866 -0.8765
   70MOL   H30844606   5.662   7.055   4.665  0.6069  0.4330  1.4552
   70MOL   H30944607   5.569   7.159   4.569  0.1423 -3.9319 -0.5557
   70MOL   H31044608   5.437   7.095   4.739 -1.0205  2.7048 -1.9585
   70MOL   H31144609   5.468   7.251   4.798 -2.9072 -1.8134  2.1076
   70MOL   H31244610   5.617   7.293   4.953 -1.6997  0.6196  0.6628
   70MOL   H31344611   5.634   7.290   5.191 -1.0953  0.2437  0.5644
   70MOL   H31444612   5.687   7.120   5.146  0.0291 -0.1326 -0.8373
   70MOL   H31544613   5.458   7.038   5.188 -0.2330 -0.1308  0.1743
   70MOL   H31644614   5.509   7.129   5.323 -0.6894  2.6735  0.2672
   70MOL   H31744615   5.275   7.158   5.238 -1.6154  1.7424 -0.7479
   70MOL   H31844616   5.342   7.212   5.090  0.0080 -4.0841 -0.1754
   70MOL   H31944617   5.428   7.429   5.199  0.0662 -0.4216 -1.9360
   70MOL   H32044618   5.400   7.347   5.352 -0.7495 -2.4108  0.1479
   70MOL   H32144619   5.173   7.359   5.338 -0.7263  0.4630 -0.1468
   70MOL   C32244620   5.183   7.526   5.223 -0.4785 -0.2092  0.2463
   70MOL   O32344621   5.251   7.601   5.150 -0.1188  0.0070  0.7589
   70MOL   C32444622   5.052   7.582   5.279  0.0473  0.1157 -0.4108
   70MOL   C32544623   4.982   7.688   5.188  0.1666 -0.3442 -0.3837
   70MOL   C32644624   4.873   7.628   5.096  0.1647  0.2584 -0.1275
   70MOL   C32744625   4.916   7.588   4.957  0.7489  0.2616 -0.4422
   70MOL   C32844626   4.800   7.535   4.869 -0.4945  0.6183  0.1698
   70MOL   O32944627   4.684   7.565   4.890 -0.5515 -0.1804 -0.3143
   70MOL   N33044628   4.837   7.448   4.772 -0.2181 -0.2957 -0.1712
   70MOL   C33144629   4.752   7.363   4.694 -0.9407  0.3648 -0.9340
   70MOL   C33244630   4.810   7.329   4.557  0.4556  0.1950  0.3718
   70MOL   C33344631   4.928   7.412   4.495  0.6517  0.3093  0.2899
   70MOL   C33444632   5.071   7.352   4.523  0.0477 -0.1148  0.1139
   70MOL   N33544633   5.172   7.407   4.427 -0.3262  0.6701  0.0139
   70MOL   H33644634   4.990   7.496   5.306  0.1636 -0.2446 -1.2685
   70MOL   H33744635   5.082   7.626   5.374  3.3172 -0.5971 -1.0466
   70MOL   H33844636   4.941   0.066   5.251 -2.3550 -1.6409 -0.3051
   70MOL   H33944637   5.044   0.052   5.127 -0.7042  0.3458 -0.5409
   70MOL   H34044638   4.796   0.000   5.074  1.1189  1.3960  0.3058
   70MOL   H34144639   4.824   7.545   5.147 -0.1322  0.1830 -0.5393
   70MOL   H34244640   4.994   7.512   4.959  0.7884  0.3122 -0.1123
   70MOL   H34344641   4.958   7.677   4.911 -1.7263  2.0048  0.5127
   70MOL   H34444642   4.933   7.419   4.781  0.0888  0.8112  0.1628
   70MOL   H34544643   4.658   7.416   4.682 -1.7870 -0.7293  0.7424
   70MOL   H34644644   4.718   7.284   4.761  1.8681 -1.4546 -1.5765
   70MOL   H34744645   4.844   7.228   4.579 -1.2972 -0.1224  1.7207
   70MOL   H34844646   4.721   7.328   4.494  1.7785  0.1227 -1.5391
   70MOL   H34944647   4.913   7.518   4.518 -0.9805  0.2708 -0.5474
   70MOL   H35044648   4.913   7.399   4.388  0.8212  0.6376  0.2250
   70MOL   H35144649   5.056   7.245   4.512 -0.3675 -0.0960  0.4789
   70MOL   H35244650   5.114   7.360   4.623  1.0160  0.6828 -0.3575
   70MOL   H35344651   5.141   7.436   4.336 -1.6181 -0.5989  0.0306
   70MOL   C35444652   5.301   7.419   4.455 -0.6114  0.3356  1.0169
   70MOL   O35544653   5.357   7.385   4.560 -0.4009  0.3346  0.5366
   70MOL   C35644654   5.394   7.472   4.346  0.1474 -0.2016  0.0435
   70MOL   C35744655   5.472   7.605   4.375  0.3847 -0.1208 -0.4517
   70MOL   C35844656   5.386   0.024   4.353  0.1272  0.5866 -0.1635
   70MOL   C35944657   5.368   0.081   4.209  0.3155  0.7725  0.1348
   70MOL   C36044658   5.225   0.097   4.171 -0.0240  0.4361  0.0502
   70MOL   O36144659   5.133   0.023   4.203 -0.7525 -0.2606 -0.2911
   70MOL   N36244660   5.198   0.203   4.099 -0.0586  0.0175  0.0334
   70MOL   C36344661   5.073   0.263   4.060 -0.3503 -0.0251 -0.0111
   70MOL   C36444662   5.064   0.392   4.137 -1.3480 -0.4912 -0.1790
   70MOL   C36544663   4.933   0.463   4.115 -0.6011  0.3412 -0.1688
   70MOL   C36644664   4.918   0.596   4.183 -0.2432 -0.3385 -0.2926
   70MOL   N36744665   4.785   0.648   4.142  0.3640 -0.2975  0.8049
   70MOL   H36844666   5.458   7.384   4.331 -0.2076 -0.3721 -0.5025
   70MOL   H36944667   5.337   7.477   4.253 -2.1761  0.4501  1.4761
   70MOL   H37044668   5.510   7.616   4.476  0.1125 -0.7854 -0.2733
   70MOL   H37144669   5.564   7.609   4.317  0.3190  0.3894 -0.5217
   70MOL   H37244670   5.423   0.107   4.413  0.7394  0.3603 -0.2182
   70MOL   H37344671   5.288   0.007   4.397  1.7825 -1.5489  2.9447
   70MOL   H37444672   5.411   0.027   4.125 -0.1868 -2.5394  1.9445
   70MOL   H37544673   5.421   0.176   4.196  1.5867  0.5922  3.4298
   70MOL   H37644674   5.282   0.253   4.072  1.8972 -1.4201  3.1783
   70MOL   H37744675   4.986   0.204   4.088  0.8906 -2.5443 -1.3356
   70MOL   H37844676   5.073   0.273   3.952 -1.0618 -1.5201 -0.1642
   70MOL   H37944677   5.076   0.365   4.242  1.6696 -1.6663 -0.7631
   70MOL   H38044678   5.149   0.459   4.121 -0.9524 -1.2861 -1.5123
   70MOL   H38144679   4.854   0.399   4.155 -1.2059  0.8531 -0.5185
   70MOL   H38244680   4.917   0.463   4.007  0.1240 -1.5826 -0.3011
   70MOL   H38344681   5.003   0.664   4.173  0.7062 -1.5744 -0.7944
   70MOL   H38444682   4.914   0.568   4.289 -2.6577  1.0897  0.0231
   70MOL   H38544683   4.703   0.589   4.143  0.6129 -0.7543 -2.0573
   70MOL   C38644684   4.765   0.773   4.099 -0.0758  0.0595 -0.2637
   70MOL   O38744685   4.854   0.849   4.087  0.9166 -0.2366  0.1023
   70MOL   C38844686   4.616   0.813   4.070 -0.4838  0.0806  0.1034
   70MOL   C38944687   4.548   0.875   4.187  0.1225  0.1604 -0.6641
   70MOL   C39044688   4.595   1.016   4.227  0.3806  0.7944  0.3952
   70MOL   C39144689   4.552   1.043   4.372 -0.3248 -0.2263 -0.5229
   70MOL   C39244690   4.543   1.191   4.420 -0.6080 -0.2093  0.4168
   70MOL   O39344691   4.444   1.229   4.474 -0.7159 -0.5888  0.4050
   70MOL   N39444692   4.657   1.262   4.407 -0.0786 -0.0825 -0.6898
   70MOL   C39544693   4.664   1.400   4.452 -0.3650 -0.1095 -0.2493
   70MOL   C39644694   4.656   1.505   4.339 -0.2976  0.2493  0.7095
   70MOL   C39744695   4.644   1.647   4.387 -0.2978  0.8250 -0.1659
   70MOL   C39844696   4.776   1.729   4.401 -0.0798 -0.3803 -0.5678
   70MOL   N39944697   4.739   1.860   4.465 -0.1816  0.7991  0.3035
   70MOL   H40044698   4.612   0.878   3.982 -1.0277 -0.5996 -0.3789
   70MOL   H40144699   4.565   0.723   4.037 -0.1253  0.0179 -0.2914
   70MOL   H40244700   4.442   0.866   4.164 -0.5404  0.1475  2.2534
   70MOL   H40344701   4.565   0.798   4.261  1.2717 -0.1218 -1.1967
   70MOL   H40444702   4.585   1.096   4.154  0.5976  0.6820  0.2405
   70MOL   H40544703   4.702   1.011   4.249  0.3089 -1.5162  0.3629
   70MOL   H40644704   4.624   0.995   4.439 -1.7341 -1.3275  0.2462
   70MOL   H40744705   4.462   0.990   4.402 -0.9757 -1.6526 -4.7318
   70MOL   H40844706   4.743   1.223   4.370  0.1737 -1.4972  1.3350
   70MOL   H40944707   4.758   1.412   4.505  1.6524 -1.1753 -3.4719
   70MOL   H41044708   4.588   1.430   4.525 -0.9993 -0.9354 -0.5619
   70MOL   H41144709   4.747   1.492   4.280 -0.8818 -2.7765  0.4076
   70MOL   H41244710   4.572   1.488   4.272  1.4156  0.9108 -1.6746
   70MOL   H41344711   4.585   1.669   4.475 -0.4042  0.7858 -0.2271
   70MOL   H41444712   4.595   1.690   4.300  0.2487  1.5797 -0.0987
   70MOL   H41544713   4.835   1.732   4.309 -0.9409 -1.7251 -1.1812
   70MOL   H41644714   4.843   1.685   4.475 -1.3386  2.3643  2.2996
   70MOL   H41744715   4.732   1.863   4.566 -0.1768 -0.2867  0.3412
   70MOL   C41844716   4.721   1.969   4.385  0.6295 -0.6008 -0.0181
   70MOL   O41944717   4.744   1.974   4.264 -0.1133  0.2048  0.0831
   70MOL   C42044718   4.666   2.093   4.458 -0.3693 -0.6541 -0.3175
   70MOL   C42144719   4.704   2.224   4.386  0.3222  0.4663  0.4064
   70MOL   C42244720   4.616   2.268   4.269  0.3879  0.8265 -0.3071
   70MOL   C42344721   4.513   2.381   4.295  0.1660 -0.1252 -0.1558
   70MOL   C42444722   4.573   2.514   4.345 -0.2877 -0.4564  0.7882
   70MOL   O42544723   4.673   2.555   4.290  0.2254  0.7009  0.3463
   70MOL   N42644724   4.507   2.566   4.452  0.2214 -0.8682 -1.0118
   70MOL   C42744725   4.542   2.688   4.532  0.0748  0.2199  0.1703
   70MOL   C42844726   4.531   2.813   4.450 -0.4442 -0.2116  0.4479
   70MOL   C42944727   4.571   2.929   4.536 -0.5782  0.6408  0.2177
   70MOL   C43044728   4.535   3.069   4.476 -0.3624  0.1685  1.1525
   70MOL   N43144729   4.550   3.182   4.570 -0.4729  0.1540 -0.0056
   70MOL   H43244730   4.562   2.083   4.489 -0.1863 -3.0772 -0.4287
   70MOL   H43344731   4.717   2.095   4.553  0.2879  0.3110 -0.6870
   70MOL   H43444732   4.686   2.296   4.466  1.9693  0.0021  1.2180
   70MOL   H43544733   4.809   2.219   4.358  0.3564 -0.0887  0.6360
   70MOL   H43644734   4.571   2.177   4.229 -1.4707  0.5664  2.2169
   70MOL   H43744735   4.687   2.297   4.192  0.5436  1.2104 -0.0218
   70MOL   H43844736   4.449   2.328   4.367  1.2887 -1.3319 -0.0184
   70MOL   H43944737   4.462   2.392   4.199 -1.8912  1.1148  1.0269
   70MOL   H44044738   4.431   2.508   4.484 -0.6707  0.4739 -0.6773
   70MOL   H44144739   4.645   2.659   4.557 -0.7741 -0.7125  2.7560
   70MOL   H44244740   4.497   2.693   4.631  1.1008 -2.4667  0.8186
   70MOL   H44344741   4.588   2.794   4.359 -3.9127 -1.5297 -1.5459
   70MOL   H44444742   4.425   2.815   4.426 -0.4304 -0.1879  0.3883
   70MOL   H44544743   4.676   2.910   4.558 -0.2105  1.8243 -0.4825
   70MOL   H44644744   4.517   2.930   4.631 -1.0107  0.4628 -0.0262
   70MOL   H44744745   4.428   3.074   4.455  0.0879  5.0090 -0.7422
   70MOL   H44844746   4.587   3.078   4.381 -1.2382 -3.7304  0.2140
   70MOL   H44944747   4.473   3.194   4.635 -0.7962  0.4923 -0.4497
   70MOL   C45044748   4.666   3.251   4.578 -0.1643 -0.7560  0.6512
   70MOL   O45144749   4.767   3.231   4.511  0.1261 -0.0350 -0.3966
   70MOL   C45244750   4.650   3.364   4.677 -0.2184  0.3909 -0.5128
   70MOL   C45344751   4.785   3.428   4.700  0.8561 -0.2012 -0.1789
   70MOL   C45444752   4.774   3.548   4.794 -0.3366  0.2275  0.1828
   70MOL   C45544753   4.911   3.605   4.840  0.3322 -0.4894  0.4139
   70MOL   C45644754   4.973   3.697   4.735  0.2628  0.6128  1.5065
   70MOL   O45744755   4.903   3.738   4.647  0.6851  0.1485  0.1281
   70MOL   N45844756   5.105   3.696   4.732  0.6004 -0.4708 -0.5737
   70MOL   C45944757   5.189   3.759   4.627  0.5803 -0.4076  0.1202
   70MOL   C46044758   5.319   3.677   4.602  0.6012 -0.5220  0.1724
   70MOL   C46144759   5.409   3.756   4.500 -0.4126 -0.3993 -0.2838
   70MOL   C46244760   5.364   3.736   4.356 -0.5777  0.1960  0.1033
   70MOL   N46344761   5.431   3.825   4.268 -0.1595 -0.0424 -0.2208
   70MOL   H46444762   4.583   3.441   4.639 -0.3544  0.7413  0.4139
   70MOL   H46544763   4.610   3.325   4.770  2.8683 -0.5771  0.4771
   70MOL   H46644764   4.841   3.344   4.740  0.7217 -0.5544 -0.7254
   70MOL   H46744765   4.824   3.451   4.600 -0.1684  1.4663 -0.2015
   70MOL   H46844766   4.725   3.536   4.891  1.6018 -2.4267  0.9012
   70MOL   H46944767   4.718   3.626   4.744  1.8747  1.2652 -0.7116
   70MOL   H47044768   4.972   3.520   4.868  2.0766  0.8696  0.8195
   70MOL   H47144769   4.888   3.663   4.930 -1.5437 -0.4890 -0.0328
   70MOL   H47244770   5.148   3.653   4.813  1.8712 -0.0997 -1.0385
   70MOL   H47344771   5.206   3.857   4.672 -0.8007 -0.9725  1.9270
   70MOL   H47444772   5.136   3.774   4.533 -0.8279  3.0500  1.3982
   70MOL   H47544773   5.374   3.659   4.694  1.3045  0.6478 -0.0099
   70MOL   H47644774   5.293   3.577   4.568  0.2397 -0.2427 -0.3750
   70MOL   H47744775   5.502   3.701   4.516 -0.2806 -0.2302 -0.4909
   70MOL   H47844776   5.411   3.863   4.518  0.7140 -0.2004 -1.5307
   70MOL   H47944777   5.258   3.762   4.351 -1.1470 -1.8950  0.9761
   70MOL   H48044778   5.361   3.630   4.333 -1.1321  0.6047 -1.8510
   70MOL   H48144779   5.376   3.904   4.239  1.3111  0.3390 -2.0409
   70MOL   C48244780   5.556   3.814   4.219 -0.4642 -0.0562  0.0958
   70MOL   O48344781   5.634   3.718   4.239 -0.2677 -0.1537  0.1350
   70MOL   C48444782   5.607   3.930   4.129 -0.8147 -0.7389  0.7685
   70MOL   C48544783   5.714   3.901   4.022  0.1035  0.0797 -0.3777
   70MOL   C48644784   5.659   3.814   3.901  0.6517  0.2421 -0.5642
   70MOL   C48744785   5.752   3.818   3.777 -0.0185 -0.3561 -0.4718
   70MOL   C48844786   5.870   3.723   3.790  1.2735  0.2186  0.1773
   70MOL   O48944787   5.973   3.757   3.843 -0.5509 -0.1121 -0.3489
   70MOL   N49044788   5.860   3.607   3.732  0.0122 -0.2009 -0.4164
   70MOL   C49144789   5.960   3.514   3.690 -0.6403  0.1914 -0.8171
   70MOL   C49244790   5.969   3.518   3.540 -0.0093  0.1758 -0.4564
   70MOL   C49344791   6.082   3.439   3.476 -0.0590 -0.3492  0.0031
   70MOL   C49444792   6.214   3.502   3.504  0.2965 -0.7318 -0.0101
   70MOL   N49544793   6.321   3.424   3.448  0.1327 -0.0054  0.0481
   70MOL   H49644794   5.526   3.991   4.089  0.5701  0.6966  0.0834
   70MOL   H49744795   5.638   4.010   4.197 -0.6347 -0.3048  0.1884
   70MOL   H49844796   5.745   3.997   3.979 -0.5383  0.4393 -0.0493
   70MOL   H49944797   5.794   3.851   4.075  0.0796  0.1419 -0.2831
   70MOL   H50044798   5.560   3.854   3.879  0.8720 -0.2357 -2.4921
   70MOL   H50144799   5.653   3.711   3.935  3.9675  0.4950  1.0355
   70MOL   H50244800   5.798   3.916   3.760 -0.4558 -0.2572 -1.1169
   70MOL   H50344801   5.696   3.792   3.687  0.5435  2.2343 -1.6157
   70MOL   H50444802   5.774   3.604   3.678 -0.2143  0.2421 -0.0782
   70MOL   H50544803   5.926   3.414   3.718  0.8735  0.0697  0.6834
   70MOL   H50644804   6.053   3.536   3.744 -0.7170 -0.1624 -0.5365
   70MOL   H50744805   5.876   3.477   3.500  0.7683 -1.7935 -0.3200
   70MOL   H50844806   5.978   3.621   3.506  0.0920 -0.1502 -1.4601
   70MOL   H50944807   6.052   3.432   3.372  1.1961 -0.0904 -0.3721
   70MOL   H51044808   6.083   3.333   3.502 -1.4855 -0.3425  0.1268
   70MOL   H51144809   6.223   3.513   3.612  0.9314  0.4770 -0.1713
   70MOL   H51244810   6.217   3.600   3.456  1.2850 -1.5572 -1.6513
   70MOL   H51344811   6.348   3.441   3.352  0.5417  1.5003  0.4250
   70MOL   C51444812   6.390   3.334   3.517  0.2378 -0.5515 -0.4926
   70MOL   O51544813   6.355   3.298   3.629  1.0711  0.5637  0.7989
   70MOL   C51644814   6.507   3.263   3.449 -0.4750 -0.2322 -0.4470
   70MOL   C51744815   6.638   3.254   3.523 -0.4029 -0.1453 -0.2042
   70MOL   C51844816   6.705   3.388   3.572 -0.2938 -0.1283 -0.2085
   70MOL   C51944817   6.803   3.442   3.461 -0.0295  0.1457  0.4681
   70MOL   C52044818   6.936   3.374   3.461 -0.5307  0.7804  0.1915
   70MOL   O52144819   6.961   3.299   3.561 -0.2535  0.0077  0.1506
   70MOL   N52244820   7.022   3.395   3.360  0.5867  0.0578 -0.2874
   70MOL   C52344821   7.153   3.321   3.351 -0.4855 -0.3717  0.0229
   70MOL   C52444822   7.262   3.403   3.286  0.0510 -0.4608  0.2904
   70MOL   C52544823   7.386   3.327   3.249  0.1321  0.2344  0.1288
   70MOL   C52644824   7.480   3.429   3.179  1.3485 -0.3147 -0.0438
   70MOL   N52744825   7.612   3.373   3.157 -0.3300  0.7061 -0.5994
   70MOL   H52844826   6.474   3.160   3.438 -0.5199 -0.2003 -0.6111
   70MOL   H52944827   6.516   3.297   3.346  0.7016 -0.7791 -0.5365
   70MOL   H53044828   6.613   3.196   3.611  2.9774  0.0178  0.9106
   70MOL   H53144829   6.703   3.185   3.471  2.9207  2.5355  0.2288
   70MOL   H53244830   6.773   3.372   3.656  3.0958  1.1085 -2.6022
   70MOL   H53344831   6.620   3.450   3.602 -0.7402 -0.7239 -0.2224
   70MOL   H53444832   6.813   3.550   3.460  0.6695  0.1335  3.0821
   70MOL   H53544833   6.771   3.425   3.358 -0.2930  0.3142  0.5226
   70MOL   H53644834   6.995   3.460   3.288  0.0575 -0.0953 -0.2308
   70MOL   H53744835   7.136   3.233   3.288  0.7293 -1.4313  1.1596
   70MOL   H53844836   7.190   3.303   3.452  0.0480  0.6629  0.0108
   70MOL   H53944837   7.220   3.452   3.198  1.8208 -0.2613 -0.4594
   70MOL   H54044838   7.294   3.487   3.347 -2.5342  0.1886  0.8005
   70MOL   H54144839   7.354   3.247   3.181  2.5952 -1.0386  0.4089
   70MOL   H54244840   7.429   3.282   3.338  0.7252 -0.5814 -0.5573
   70MOL   H54344841   7.487   3.511   3.250 -0.1085  0.5055 -0.8189
   70MOL   H54444842   7.438   3.468   3.086 -1.1539 -1.2284  0.6649
   70MOL   H54544843   7.623   3.274   3.177  0.9357  1.4497  2.7479
   70MOL   C54644844   0.020   3.445   3.142  0.6330  0.3947  0.1277
   70MOL   O54744845   0.014   3.565   3.129  0.0948  1.0137  0.8719
   70MOL   C54844846   0.155   3.372   3.150  0.2723 -0.2535 -0.6934
   70MOL   C54944847   0.258   3.427   3.041  0.2080 -0.1618 -0.3948
   70MOL   C55044848   0.402   3.407   3.088  0.1011 -0.1076 -0.4647
   70MOL   C55144849   0.505   3.476   3.006  0.4494 -0.3261 -0.5612
   70MOL   C55244850   0.505   3.630   3.015  0.0971  0.3123  0.2183
   70MOL   O55344851   0.533   3.684   3.124  0.3698 -0.4704 -0.2917
   70MOL   N55444852   0.480   3.698   2.900 -0.4456  0.0151 -0.1348
   70MOL   C55544853   0.463   3.844   2.882  0.1656 -0.3801 -0.6855
   70MOL   C55644854   0.317   3.884   2.865 -0.1031 -0.0094 -0.1181
   70MOL   C55744855   0.212   3.851   2.973  0.0040  1.3108 -0.8878
   70MOL   C55844856   0.066   3.903   2.959 -0.0217 -0.3711 -0.3017
   70MOL   N55944857   7.690   3.845   3.068 -0.2688  0.7126  0.5808
   70MOL   H56044858   0.193   3.392   3.250  0.7788 -3.1110 -0.2729
   70MOL   H56144859   0.133   3.265   3.146  0.2788 -0.3442  1.0050
   70MOL   H56244860   0.244   3.395   2.938  0.1542 -3.2419  0.5115
   70MOL   H56344861   0.234   3.532   3.028 -0.4368 -0.5003 -1.9585
   70MOL   H56444862   0.428   3.301   3.077 -0.4607 -0.3430  0.3818
   70MOL   H56544863   0.408   3.436   3.193 -0.4882  0.4277 -0.5818
   70MOL   H56644864   0.505   3.430   2.907 -1.3330  0.8773 -1.1517
   70MOL   H56744865   0.594   3.451   3.063  0.4597  0.4646 -0.2201
   70MOL   H56844866   0.469   3.643   2.816 -2.4196  0.5494 -0.2447
   70MOL   H56944867   0.524   3.889   2.804  0.1691  1.5154  0.3634
   70MOL   H57044868   0.492   3.887   2.978  1.1138  1.4726 -1.7675
   70MOL   H57144869   0.313   3.990   2.840  2.0127  0.4179  1.2546
   70MOL   H57244870   0.279   3.836   2.775  1.5990  1.1143 -1.4832
   70MOL   H57344871   0.252   3.880   3.070 -1.2951  1.0483 -0.2699
   70MOL   H57444872   0.196   3.744   2.984  0.2056  1.3186 -0.5089
   70MOL   H57544873   0.029   3.868   2.862  1.3053 -0.3267 -0.8429
   70MOL   H57644874   0.070   4.010   2.977 -1.0734 -0.7831  2.6802
   70MOL   H57744875   0.004   3.750   3.099  3.7686  1.0774 -0.0358
   70MOL   C57844876   7.586   3.904   3.128  0.2354  0.0151 -0.4259
   70MOL   O57944877   7.540   4.014   3.085 -0.6453  0.5474  0.1039
   70MOL   C58044878   7.523   3.845   3.245  0.6411  0.0376  0.7282
   70MOL   C58144879   7.378   3.799   3.224  0.2167 -0.7773  0.0231
   70MOL   C58244880   7.323   3.791   3.365 -0.2934 -0.1400 -0.4434
   70MOL   C58344881   7.173   3.767   3.375 -0.3200  0.1587  1.2368
   70MOL   C58444882   7.081   3.885   3.338 -0.3319  0.0740 -0.1523
   70MOL   O58544883   7.096   3.936   3.228  0.5937  0.1277  1.0208
   70MOL   N58644884   6.995   3.922   3.429 -0.9922 -0.5848  0.3396
   70MOL   C58744885   6.896   4.031   3.419  0.5356  0.5563  0.0534
   70MOL   C58844886   6.749   3.982   3.402 -0.0057  0.5117  0.1363
   70MOL   C58944887   6.656   4.080   3.323 -0.5721  0.5249  0.5428
   70MOL   C59044888   6.680   4.064   3.172  0.3685 -0.4092  0.3076
   70MOL   N59144889   6.583   4.136   3.089  0.1783  1.1575 -0.0978
   70MOL   H59244890   7.572   3.759   3.290 -0.7735 -0.7734  0.7437
   70MOL   H59344891   7.523   3.921   3.322  2.3909 -0.1748  0.9476
   70MOL   H59444892   7.313   3.867   3.170 -1.5562 -2.6844 -0.3143
   70MOL   H59544893   7.355   3.704   3.175  0.0008 -0.2266 -0.9616
   70MOL   H59644894   7.332   3.885   3.418  1.9013 -1.6140  1.9632
   70MOL   H59744895   7.382   3.722   3.425 -0.4031 -0.0004 -0.1796
   70MOL   H59844896   7.160   3.748   3.482 -0.4595  1.0620  1.3867
   70MOL   H59944897   7.151   3.671   3.328  0.3341 -0.0439  1.3353
   70MOL   H60044898   6.977   3.866   3.511  0.0590  1.6565  2.1536
   70MOL   H60144899   6.937   4.096   3.342  0.2851 -0.3828 -0.8833
   70MOL   H60244900   6.920   4.082   3.512  0.0340  1.9918 -0.5972
   70MOL   H60344901   6.758   3.890   3.344 -0.4002 -0.3061  1.3462
   70MOL   H60444902   6.704   3.957   3.498 -1.1871  0.3281 -0.4586
   70MOL   H60544903   6.670   4.183   3.355 -2.5910  0.1158  2.9071
   70MOL   H60644904   6.555   4.047   3.346  0.2363 -2.4732 -0.0557
   70MOL   H60744905   6.678   3.961   3.139  0.9449 -0.7484  1.3106
   70MOL   H60844906   6.780   4.097   3.144  2.4933 -5.4435  1.5722
   70MOL   H60944907   6.616   4.222   3.048  1.7136  0.0948 -1.1737
   70MOL   C61044908   6.457   4.086   3.066 -0.1505 -0.0464 -0.8439
   70MOL   O61144909   6.422   3.973   3.092 -0.2476  0.3651  0.0164
   70MOL   C61244910   6.363   4.186   3.004 -0.0906 -0.1531  0.2180
   70MOL   C61344911   6.274   4.123   2.901  0.3942  0.4408 -0.6293
   70MOL   C61444912   6.178   4.228   2.845 -0.5336  0.2711  0.3568
   70MOL   C61544913   6.077   4.295   2.938 -0.4288  0.4254 -0.0837
   70MOL   C61644914   6.046   4.441   2.904 -0.0289  0.2147  0.9262
   70MOL   O61744915   6.135   4.527   2.888 -0.3292 -0.7651 -0.3601
   70MOL   N61844916   5.918   4.463   2.891 -0.0147 -0.1438  0.3720
   70MOL   C61944917   5.850   4.583   2.852  0.1696 -0.7443  0.4617
   70MOL   C62044918   5.879   4.622   2.705 -0.1200  0.3698  0.0311
   70MOL   C62144919   5.772   4.730   2.661  0.3900  0.1498  0.3177
   70MOL   C62244920   5.785   4.759   2.514 -0.0037  0.5569  0.4673
   70MOL   N62344921   5.668   4.824   2.464 -0.2214 -0.2555 -0.5394
   70MOL   H62444922   6.322   4.232   3.093 -0.5830  1.6034 -0.8789
   70MOL   H62544923   6.422   4.261   2.951  0.2692 -0.6339 -0.0756
   70MOL   H62644924   6.331   4.074   2.822  1.1578  0.5027 -0.1187
   70MOL   H62744925   6.203   4.056   2.949  0.3612  0.4356 -0.6847
   70MOL   H62844926   6.115   4.184   2.768 -1.9682  1.0890  1.0418
   70MOL   H62944927   6.234   4.306   2.793 -1.1754 -0.2953 -1.2100
   70MOL   H63044928   6.105   4.287   3.044 -2.0300 -1.7303  0.2137
   70MOL   H63144929   5.986   4.236   2.928  0.4874 -1.1492  0.5367
   70MOL   H63244930   5.862   4.384   2.920 -2.0053  1.4445  0.9788
   70MOL   H63344931   5.863   4.673   2.911  0.7664 -1.9616  2.2203
   70MOL   H63444932   5.742   4.572   2.859 -0.0053 -1.0548 -2.1168
   70MOL   H63544933   5.980   4.659   2.713 -0.7121  1.4719  2.8533
   70MOL   H63644934   5.869   4.536   2.638 -0.8561  1.1788 -0.9169
   70MOL   H63744935   5.795   4.822   2.714 -0.3185  2.7025 -3.6516
   70MOL   H63844936   5.671   4.693   2.680  1.2350 -1.1477  2.5775
   70MOL   H63944937   5.809   4.665   2.465 -1.6759 -0.8427  2.2692
   70MOL   H64044938   5.871   4.825   2.504 -0.3894  1.0853  0.5935
   70MOL   H64144939   5.625   4.879   2.538  1.0625 -0.0797  0.0979
   70MOL   H64244940   5.688   4.889   2.390 -0.8013 -1.8679 -2.1386
   71MOL     C144941   5.205   6.068   1.241  0.5459  0.6097 -0.5280
   71MOL     O244942   5.296   5.993   1.204 -0.5342  0.2782 -0.5283
   71MOL     C344943   5.105   6.123   1.140 -0.2004  0.1526 -0.6800
   71MOL     C444944   5.161   6.238   1.049 -0.1442  0.2461 -0.3789
   71MOL     C544945   5.101   6.373   1.087 -0.0552 -0.2823  0.3294
   71MOL     C644946   5.102   6.493   0.987 -0.0187  0.6651  0.0085
   71MOL     C744947   5.238   6.536   0.943 -0.0471  0.8487  0.5616
   71MOL     O844948   5.311   6.594   1.019 -0.0263 -0.4476 -0.3015
   71MOL     N944949   5.283   6.493   0.823 -0.2229 -0.6352 -0.5245
   71MOL    C1044950   5.413   6.516   0.765 -0.1978 -0.7421  0.5544
   71MOL    C1144951   5.476   6.389   0.725 -0.7236 -0.0087  0.3922
   71MOL    C1244952   5.623   6.406   0.682  0.3487 -0.4877  0.0844
   71MOL    C1344953   5.703   6.277   0.659 -0.5247 -0.1574 -0.2470
   71MOL    N1444954   5.841   6.303   0.622  0.0322 -0.0844  0.3699
   71MOL    H1544955   5.068   6.041   1.079 -2.4766  2.9473 -3.2166
   71MOL    H1644956   5.022   6.171   1.192  0.1839 -1.4771  1.5192
   71MOL    H1744957   5.269   6.245   1.064 -0.0245  0.3806 -1.2642
   71MOL    H1844958   5.141   6.229   0.942 -0.9805  0.6162 -0.2608
   71MOL    H1944959   5.154   6.413   1.174 -0.7807 -1.0520  1.1311
   71MOL    H2044960   5.001   6.360   1.128  0.6779 -0.7336  2.0476
   71MOL    H2144961   5.042   6.576   1.024 -0.0768  0.5964  0.0729
   71MOL    H2244962   5.052   6.475   0.892  2.4722  1.2235 -1.4391
   71MOL    H2344963   5.236   6.413   0.782  0.1640 -1.2012  0.1143
   71MOL    H2444964   5.468   6.569   0.842 -1.2382 -0.3760  1.0593
   71MOL    H2544965   5.404   6.590   0.685 -0.7891 -1.9710 -0.5411
   71MOL    H2644966   5.471   6.323   0.812 -2.0553  0.1992  0.4841
   71MOL    H2744967   5.439   6.338   0.636  0.4915 -0.4993  0.1544
   71MOL    H2844968   5.685   6.459   0.754 -3.0183 -0.8994  3.4917
   71MOL    H2944969   5.632   6.473   0.597  0.0513 -2.1123 -1.2460
   71MOL    H3044970   5.650   6.226   0.579  1.5461 -0.0563 -1.7133
   71MOL    H3144971   5.691   6.222   0.753  1.1073 -1.3388 -0.7178
   71MOL    H3244972   5.912   6.344   0.681 -0.6239  1.0573  0.3621
   71MOL    H3344973   5.195   6.088   1.348  2.5421 -2.2087  0.2361
   71MOL    C3444974   5.876   6.322   0.495 -0.0298 -0.8330  0.0635
   71MOL    O3544975   5.791   6.352   0.410  0.0674  0.1018  0.2808
   71MOL    C3644976   6.026   6.336   0.455 -0.5042  0.0069 -0.4476
   71MOL    C3744977   6.080   6.478   0.402  0.4384 -0.5986 -0.5616
   71MOL    C3844978   6.059   6.594   0.504  0.4122  0.1764 -0.4908
   71MOL    C3944979   6.162   6.590   0.626  0.2612 -0.2447  0.4707
   71MOL    C4044980   6.103   6.545   0.752  0.3590  0.3635  0.2803
   71MOL    O4144981   6.058   6.430   0.765 -0.4502 -0.5435 -0.1055
   71MOL    N4244982   6.088   6.640   0.845  0.2784 -0.1088 -0.3276
   71MOL    C4344983   6.027   6.628   0.976  0.1940  0.8523  0.4278
   71MOL    C4444984   5.876   6.656   0.969 -0.4175 -0.4280  0.0920
   71MOL    C4544985   5.794   6.596   1.084 -0.4504  0.2215 -0.6704
   71MOL    C4644986   5.645   6.611   1.083  0.4169 -0.1308  0.6156
   71MOL    N4744987   5.602   6.748   1.068  0.5597  0.1141  0.0688
   71MOL    H4844988   6.089   6.299   0.535  1.0323  2.2254 -0.5709
   71MOL    H4944989   6.043   6.262   0.376  0.9649  1.0733 -1.1616
   71MOL    H5044990   6.186   6.468   0.382  1.2006 -0.2885  3.0411
   71MOL    H5144991   6.038   6.503   0.304  1.0262  0.2997 -0.5892
   71MOL    H5244992   5.955   6.603   0.534  0.7572  1.0800  0.4630
   71MOL    H5344993   6.075   6.687   0.451  0.5468 -0.0007 -0.7611
   71MOL    H5444994   6.203   6.689   0.642  1.4159 -0.5229 -0.6261
   71MOL    H5544995   6.249   6.526   0.611  1.2426  0.8848  1.2776
   71MOL    H5644996   6.123   6.733   0.825 -1.2375  0.6673  0.5797
   71MOL    H5744997   6.084   6.698   1.037  1.1675 -0.4633  1.0804
   71MOL    H5844998   6.048   6.526   1.011 -1.0337 -0.5081 -2.6279
   71MOL    H5944999   5.864   6.764   0.974 -0.0692 -0.3342 -0.8395
   71MOL    H6045000   5.840   6.623   0.871  1.2156  0.4418 -0.8315
   71MOL    H6145001   5.834   6.650   1.169  0.8099 -0.0931 -1.0501
   71MOL    H6245002   5.813   6.488   1.086 -0.2288  0.2657 -0.3589
   71MOL    H6345003   5.610   6.571   1.178  0.3761 -2.5816 -0.3909
   71MOL    H6445004   5.596   6.534   1.023  1.1571 -0.3486  0.2785
   71MOL    H6545005   5.610   6.784   0.973 -2.5901  0.3553 -0.1497
   71MOL    C6645006   5.547   6.828   1.158  0.2154  0.3508  0.1088
   71MOL    O6745007   5.535   6.796   1.276 -0.2001 -0.1130 -0.3541
   71MOL    C6845008   5.515   6.971   1.122 -0.3569  0.1913 -0.4881
   71MOL    C6945009   5.605   7.074   1.192  0.6822 -0.0054 -0.6440
   71MOL    C7045010   5.762   7.055   1.172  0.2562 -0.4562 -0.0146
   71MOL    C7145011   5.803   7.087   1.027 -0.0087  0.5094 -0.5439
   71MOL    C7245012   5.939   7.148   1.005  0.2669 -0.7463 -0.0047
   71MOL    O7345013   6.042   7.098   1.065 -0.0890 -0.1995 -0.0073
   71MOL    N7445014   5.946   7.261   0.938  0.0790 -0.1312 -0.4042
   71MOL    C7545015   6.069   7.341   0.931  0.3286  0.4409 -0.4185
   71MOL    C7645016   6.075   7.413   0.787  0.4138 -0.5010  0.1248
   71MOL    C7745017   6.202   7.489   0.776  0.3773 -0.5108 -0.8803
   71MOL    C7845018   6.214   7.580   0.654 -0.1513  0.2457  0.1218
   71MOL    N7945019   6.334   7.660   0.645  0.0800 -0.9329 -0.2228
   71MOL    H8045020   5.520   6.985   1.014  1.8083 -1.7118 -0.6675
   71MOL    H8145021   5.408   6.978   1.142 -0.4928  0.8812 -1.4131
   71MOL    H8245022   5.589   7.178   1.164  0.8467 -0.2489 -1.6768
   71MOL    H8345023   5.578   7.081   1.297 -0.5748  1.9528 -1.0728
   71MOL    H8445024   5.796   6.953   1.193 -0.6469 -0.5958  0.8206
   71MOL    H8545025   5.811   7.117   1.246 -0.6380 -0.4208  0.5589
   71MOL    H8645026   5.722   7.147   0.984 -0.6642 -0.7327 -1.0590
   71MOL    H8745027   5.800   6.995   0.968  0.9802 -0.2236  0.5352
   71MOL    H8845028   5.869   7.306   0.891 -0.9159 -2.2994 -0.9406
   71MOL    H8945029   6.157   7.281   0.954  0.3743  0.4995 -0.4420
   71MOL    H9045030   6.061   7.418   1.007  1.3030 -0.0045  0.1397
   71MOL    H9145031   6.066   7.330   0.716  0.3252  1.6453 -2.4715
   71MOL    H9245032   5.983   7.469   0.767 -0.8846 -1.8137  2.1858
   71MOL    H9345033   6.292   7.427   0.778  0.1151 -0.8782  1.0988
   71MOL    H9445034   6.207   7.554   0.864  3.3795  0.0203 -1.3774
   71MOL    H9545035   6.128   7.646   0.651  0.5090  1.0691 -0.9900
   71MOL    H9645036   6.209   7.518   0.565  2.3747  0.6766 -0.3386
   71MOL    H9745037   6.410   7.643   0.709 -0.5189 -1.1271  0.4490
   71MOL    C9845038   6.377   0.016   0.536  0.3526 -0.0116 -0.6110
   71MOL    O9945039   6.311   0.052   0.437  0.1104 -0.1093 -0.5908
   71MOL   C10045040   6.522   0.053   0.554 -0.4959 -0.3647 -0.3246
   71MOL   C10145041   6.615   0.001   0.442  0.1553 -0.3577 -0.0018
   71MOL   C10245042   6.763   0.036   0.456 -0.3707  0.8926 -0.4524
   71MOL   C10345043   6.859   0.014   0.334  0.4815 -0.1013  0.7829
   71MOL   C10445044   6.901   7.563   0.319 -0.5066 -0.2629  0.7020
   71MOL   O10545045   6.911   7.486   0.410 -0.3081  0.1954  0.1110
   71MOL   N10645046   6.906   7.521   0.192 -0.1880  0.1494 -0.5101
   71MOL   C10745047   6.916   7.377   0.159 -0.2363  0.1327  0.7822
   71MOL   C10845048   6.794   7.285   0.196 -0.4192 -0.7065  0.0444
   71MOL   C10945049   6.807   7.145   0.138  0.2361  0.2724 -0.2601
   71MOL   C11045050   6.683   7.059   0.167 -0.0629  0.1138 -0.3924
   71MOL   N11145051   6.695   6.933   0.111 -0.2191  0.2363 -0.1076
   71MOL   H11245052   6.537   0.160   0.540  0.9668 -0.5643 -0.3768
   71MOL   H11345053   6.561   0.044   0.655 -1.5998 -0.4082  0.1043
   71MOL   H11445054   6.612   7.594   0.441 -1.4039 -0.3322 -2.6201
   71MOL   H11545055   6.571   0.025   0.345  0.8018  0.2115 -0.1590
   71MOL   H11645056   6.798   7.675   0.538 -1.0655  0.3844 -0.5397
   71MOL   H11745057   6.767   0.141   0.484  0.3803  0.9661 -0.8053
   71MOL   H11845058   6.944   0.081   0.341  0.9092 -0.5463 -0.0567
   71MOL   H11945059   6.792   0.040   0.252 -3.8562  2.5575  4.8998
   71MOL   H12045060   6.881   7.579   0.113  0.4590  2.0173  0.6264
   71MOL   H12145061   7.010   7.339   0.198 -1.4227  0.4237  4.0215
   71MOL   H12245062   6.915   7.370   0.050 -3.2486  0.7201  0.7101
   71MOL   H12345063   6.781   7.289   0.304 -1.5183  2.6375 -0.1506
   71MOL   H12445064   6.697   7.326   0.165 -0.0350  0.1818  0.0253
   71MOL   H12545065   6.893   7.097   0.184  0.3116  0.4167 -0.2494
   71MOL   H12645066   6.831   7.152   0.032 -1.1973  4.8528 -0.4186
   71MOL   H12745067   6.606   7.117   0.118  2.9063  2.0325 -2.9370
   71MOL   H12845068   6.653   7.062   0.272  1.4000 -1.4115  0.0855
   71MOL   H12945069   6.776   6.876   0.129 -0.6524 -0.5776 -0.7092
   71MOL   C13045070   6.607   6.876   0.029 -0.3364  0.0274  0.7054
   71MOL   O13145071   6.500   6.927   7.690  1.1893  0.3032  0.0164
   71MOL   C13245072   6.651   6.740   7.681 -0.7588 -0.5059 -0.1201
   71MOL   C13345073   6.618   6.625   0.074  0.4159  0.2970  0.0543
   71MOL   C13445074   6.462   6.613   0.112  0.0252 -0.8102 -0.7530
   71MOL   C13545075   6.431   6.509   0.219  0.3006 -0.2811  0.2476
   71MOL   C13645076   6.419   6.369   0.167  0.7355  0.1247 -0.1331
   71MOL   O13745077   6.318   6.343   0.103 -0.4163  0.0778  0.0696
   71MOL   N13845078   6.503   6.282   0.216  0.6208  0.3038  0.1770
   71MOL   C13945079   6.512   6.143   0.168 -0.7282 -0.1299  0.2015
   71MOL   C14045080   6.436   6.049   0.267  0.5328 -1.0031  0.1100
   71MOL   C14145081   6.464   5.900   0.240 -0.0355  0.1047  0.6434
   71MOL   C14245082   6.395   5.846   0.123  0.0963  0.0451  0.4144
   71MOL   N14345083   6.432   5.701   0.099  0.4315  0.1341  0.3332
   71MOL   H14445084   6.615   6.722   7.580 -0.0902 -1.1530 -0.2505
   71MOL   H14545085   6.760   6.750   7.679 -0.8308  0.2515 -0.6260
   71MOL   H14645086   6.654   6.530   0.037  0.9896  0.3277  0.5133
   71MOL   H14745087   6.672   6.640   0.167 -0.8558  0.1077  0.8394
   71MOL   H14845088   6.405   6.596   0.020 -3.1383 -0.7512  1.0938
   71MOL   H14945089   6.425   6.710   0.144  0.5342 -0.8801  0.0456
   71MOL   H15045090   6.335   6.527   0.268  0.3804  1.5280 -0.2068
   71MOL   H15145091   6.508   6.506   0.297 -0.8545 -1.6281  1.3526
   71MOL   H15245092   6.589   6.319   0.254  1.3116 -2.8069  1.8131
   71MOL   H15345093   6.615   6.109   0.160 -0.7757 -0.0553 -0.7219
   71MOL   H15445094   6.476   6.127   0.067 -1.4443 -0.1600  0.4560
   71MOL   H15545095   6.467   6.070   0.369  1.8703  0.2177 -0.5295
   71MOL   H15645096   6.330   6.075   0.270  1.1822  1.7350  0.7437
   71MOL   H15745097   6.435   5.843   0.328 -0.2590 -1.1640 -0.2236
   71MOL   H15845098   6.570   5.875   0.238  0.1321  0.8551  0.1935
   71MOL   H15945099   6.417   5.908   0.037 -1.8552  0.6251  0.2995
   71MOL   H16045100   6.288   5.849   0.144 -0.2952 -0.1774 -1.4778
   71MOL   H16145101   6.495   5.661   0.167  0.9767  0.6820  0.1457
   71MOL   C16245102   6.411   5.624   7.689 -0.3091  0.6906 -0.1292
   71MOL   O16345103   6.351   5.663   7.589 -0.0265  0.5514 -0.1355
   71MOL   C16445104   6.471   5.490   7.692  0.1388  0.3642  0.2300
   71MOL   C16545105   6.592   5.476   7.603 -0.2689 -0.0715  0.4564
   71MOL   C16645106   6.635   5.330   7.580  0.2016 -0.3839 -0.4230
   71MOL   C16745107   6.767   5.320   7.505  0.5647 -0.0332  0.4816
   71MOL   C16845108   6.894   5.335   7.585  0.5723  0.7080 -0.1028
   71MOL   O16945109   6.995   5.396   7.538  0.2958  0.3254 -0.1629
   71MOL   N17045110   6.906   5.291   0.007 -0.9980 -0.1672 -0.3151
   71MOL   C17145111   7.014   5.334   0.096 -0.0258 -0.1152  0.4430
   71MOL   C17245112   7.005   5.474   0.159 -0.1914  0.2532  0.4372
   71MOL   C17345113   6.871   5.510   0.223 -0.3281  0.1794  0.2017
   71MOL   C17445114   6.878   5.650   0.294  0.1539 -0.2354 -0.2023
   71MOL   N17545115   6.798   5.644   0.418  1.0786 -0.0737  0.1821
   71MOL   H17645116   6.493   5.457   0.092 -1.3777  0.2771  0.5388
   71MOL   H17745117   6.393   5.424   7.655 -0.8639  1.1780  0.8789
   71MOL   H17845118   6.569   5.516   7.504  1.0256 -0.6972 -0.1063
   71MOL   H17945119   6.672   5.539   7.642  1.9791 -1.3870 -1.8563
   71MOL   H18045120   6.553   5.280   7.529  0.1108  0.0887 -0.7421
   71MOL   H18145121   6.634   5.293   7.683  0.3691 -1.2811 -0.7397
   71MOL   H18245122   6.776   5.401   7.433  0.5720 -0.8210 -0.4263
   71MOL   H18345123   6.770   5.232   7.440 -0.2476  2.3996 -2.9736
   71MOL   H18445124   6.829   5.239   0.046 -1.1143 -0.1038 -0.4587
   71MOL   H18545125   7.108   5.308   0.047 -0.2265  1.6073 -0.9073
   71MOL   H18645126   6.991   5.264   0.177 -1.3480  0.3442  0.4684
   71MOL   H18745127   7.087   5.481   0.231  0.1012  2.1815 -0.0480
   71MOL   H18845128   7.032   5.553   0.088  0.5953  0.5647  1.0757
   71MOL   H18945129   6.851   5.425   0.288 -1.0891 -0.4543 -0.8399
   71MOL   H19045130   6.783   5.507   0.158  1.4557 -1.6441 -2.2169
   71MOL   H19145131   6.844   5.727   0.225  0.2622 -0.6383 -0.7129
   71MOL   H19245132   6.978   5.684   0.318  0.7051 -0.2775 -2.3116
   71MOL   H19345133   6.851   5.630   0.503  0.2802 -1.3534  0.4870
   71MOL   C19445134   6.660   5.636   0.430 -0.1757  0.2288  0.7185
   71MOL   O19545135   6.592   5.633   0.328 -0.1874 -0.5198 -0.1638
   71MOL   C19645136   6.590   5.642   0.567  0.4831  0.5788 -0.1698
   71MOL   C19745137   6.574   5.503   0.626 -0.7144 -0.1147  0.4625
   71MOL   C19845138   6.694   5.430   0.688  0.3936 -0.3747 -0.9238
   71MOL   C19945139   6.757   5.511   0.804  0.6384 -0.1098  0.0169
   71MOL   C20045140   6.867   5.605   0.757 -0.0749 -0.0236 -0.5909
   71MOL   O20145141   6.926   5.582   0.653 -0.0498  0.0327  0.5095
   71MOL   N20245142   6.877   5.724   0.821 -0.2025  0.1534 -0.2692
   71MOL   C20345143   6.945   5.840   0.763  0.1622 -0.2663 -0.8523
   71MOL   C20445144   6.891   5.962   0.828  0.1644  0.2873 -0.3564
   71MOL   C20545145   6.735   5.977   0.818  0.5471 -0.0065  0.5038
   71MOL   C20645146   6.665   6.087   0.898 -0.3642 -0.3664  0.5478
   71MOL   N20745147   6.536   6.135   0.837  0.0073 -0.0331 -0.4061
   71MOL   H20845148   6.621   5.716   0.641  0.3402  0.9743 -0.5058
   71MOL   H20945149   6.488   5.676   0.550  0.0537 -0.6358 -0.0667
   71MOL   H21045150   6.489   5.494   0.693 -1.2777  0.3805 -0.1940
   71MOL   H21145151   6.547   5.444   0.539  0.0227 -0.4537  0.4588
   71MOL   H21245152   6.762   5.417   0.604 -1.2300  2.3842 -2.7215
   71MOL   H21345153   6.663   5.331   0.723  1.0118  0.0608  0.9123
   71MOL   H21445154   6.815   5.438   0.861 -1.3368 -0.8026  1.2035
   71MOL   H21545155   6.690   5.564   0.871 -0.7776 -0.0855 -1.4090
   71MOL   H21645156   6.824   5.728   0.907 -2.4225 -2.4027 -1.4564
   71MOL   H21745157   6.930   5.843   0.655  1.8821 -0.8313 -1.1264
   71MOL   H21845158   7.051   5.840   0.786 -0.4370 -0.1901  2.1302
   71MOL   H21945159   6.921   5.950   0.932  0.3866 -2.5499 -0.7051
   71MOL   H22045160   6.942   6.049   0.786 -1.5527  0.6028 -1.8453
   71MOL   H22145161   6.681   5.882   0.823  0.6083 -0.2525 -2.3434
   71MOL   H22245162   6.733   6.004   0.712 -0.3386 -0.3474  0.4301
   71MOL   H22345163   6.730   6.175   0.903 -0.2011 -0.1187 -3.6197
   71MOL   H22445164   6.643   6.052   0.998 -2.1723  0.0502  0.3057
   71MOL   H22545165   6.513   6.233   0.852  0.9072  0.0439  0.5330
   71MOL   C22645166   6.443   6.064   0.777 -0.2427  0.3239  0.1869
   71MOL   O22745167   6.447   5.942   0.772 -0.2304  0.5300  0.1366
   71MOL   C22845168   6.324   6.141   0.715 -0.3845  0.5444 -0.2486
   71MOL   C22945169   6.247   6.056   0.603  0.5138 -0.1967  0.2654
   71MOL   C23045170   6.114   6.009   0.644  0.2182 -0.3695  0.2965
   71MOL   C23145171   6.058   5.909   0.544 -0.1074 -0.4150  0.2413
   71MOL   C23245172   5.969   5.966   0.437 -0.0293 -0.2272  0.3727
   71MOL   O23345173   5.861   6.008   0.471 -0.0790  0.2632  0.0363
   71MOL   N23445174   6.017   5.971   0.314  0.3711 -0.1426 -0.1747
   71MOL   C23545175   5.954   6.027   0.191 -0.4667 -0.3478 -0.5034
   71MOL   C23645176   6.048   6.116   0.109 -0.4883 -0.3655  0.1914
   71MOL   C23745177   5.973   6.185   7.694 -0.0017  0.3036  0.4284
   71MOL   C23845178   5.908   6.319   0.027 -0.2211  1.1177  0.0032
   71MOL   N23945179   6.009   6.425   0.038  0.2036  0.2492  0.1313
   71MOL   H24045180   6.263   6.159   0.804 -1.9591  1.0856 -1.4159
   71MOL   H24145181   6.354   6.241   0.684  0.0924  0.7708  0.9112
   71MOL   H24245182   6.246   6.109   0.508 -0.3772 -0.0784  0.3361
   71MOL   H24345183   6.310   5.979   0.559 -0.6981 -1.1306  0.1642
   71MOL   H24445184   6.046   6.093   0.660  0.9645  0.3774 -0.3812
   71MOL   H24545185   6.130   5.967   0.744 -2.9622 -0.4359  0.8338
   71MOL   H24645186   5.996   5.836   0.597  0.4582 -0.5940  0.6635
   71MOL   H24745187   6.138   5.855   0.493  0.6577  2.1059 -1.2713
   71MOL   H24845188   6.117   5.952   0.310 -0.2571 -3.9130 -0.2257
   71MOL   H24945189   5.873   6.091   0.227  2.0777  1.0069  3.0822
   71MOL   H25045190   5.918   5.950   0.123  1.3851  0.3868 -2.3377
   71MOL   H25145191   6.093   6.200   0.163 -0.9379 -0.1424  0.2192
   71MOL   H25245192   6.132   6.055   0.077  0.1925  1.0692 -0.8439
   71MOL   H25345193   5.896   6.116   7.660 -1.4639  2.6610 -1.1871
   71MOL   H25445194   6.046   6.196   7.614  0.6137  1.8535  1.1842
   71MOL   H25545195   5.846   6.319   0.117  2.3648  1.7396  1.8519
   71MOL   H25645196   5.840   6.343   7.647  1.6620 -0.6695 -2.1597
   71MOL   H25745197   6.103   6.399   0.067  0.1470 -1.1099 -0.8600
   71MOL   C25845198   6.002   6.552   7.695 -0.5154  0.8631 -0.1710
   71MOL   O25945199   5.905   6.602   7.645  0.0219 -0.5051  0.2695
   71MOL   C26045200   6.134   6.624   7.688 -0.1616  0.4720  0.3632
   71MOL   C26145201   6.129   6.756   7.625 -0.0443  0.0644 -0.6166
   71MOL   C26245202   6.146   6.753   7.468 -0.3229 -0.4318 -0.5813
   71MOL   C26345203   6.095   6.876   7.402 -1.2130 -0.1189 -0.1198
   71MOL   C26445204   6.199   6.991   7.401  0.3662  0.0046 -0.2041
   71MOL   O26545205   6.320   6.975   7.409 -0.0482  0.2109 -0.3176
   71MOL   N26645206   6.142   7.108   7.370  0.4589 -0.3013 -1.0200
   71MOL   C26745207   6.215   7.236   7.348 -0.7173 -0.1800  0.1293
   71MOL   C26845208   6.198   7.296   7.201 -0.5201 -0.6516  0.4406
   71MOL   C26945209   6.252   7.442   7.177 -0.2083 -0.0108  0.0444
   71MOL   C27045210   6.206   7.503   7.044 -0.0807 -0.0326 -0.0025
   71MOL   N27145211   6.252   7.639   7.036 -0.0008  0.0913 -0.2933
   71MOL   H27245212   6.171   6.651   0.086 -0.9362  3.6074 -0.1410
   71MOL   H27345213   6.213   6.567   7.640 -1.1597  0.4107 -1.2186
   71MOL   H27445214   6.047   6.820   7.656 -0.1870 -1.0431  1.3731
   71MOL   H27545215   6.225   6.795   7.659  0.2307 -1.3188  0.2661
   71MOL   H27645216   6.092   6.668   7.428 -0.2291 -0.0227 -1.6129
   71MOL   H27745217   6.253   6.753   7.447 -0.0423  1.0528  0.7483
   71MOL   H27845218   5.992   6.894   7.433 -0.9370  0.9398  0.2091
   71MOL   H27945219   6.079   6.850   7.297 -2.1922 -3.3153  0.7810
   71MOL   H28045220   6.044   7.110   7.345  0.3853 -0.3493 -0.7434
   71MOL   H28145221   6.320   7.228   7.376 -0.5362  0.2754 -0.4426
   71MOL   H28245222   6.176   7.301   7.426  1.2120 -0.3547  1.2740
   71MOL   H28345223   6.234   7.225   7.126  1.6191  1.5822 -0.7314
   71MOL   H28445224   6.093   7.307   7.174 -0.1833 -0.0913 -0.6934
   71MOL   H28545225   6.361   7.444   7.177 -0.1820 -1.0170 -0.3022
   71MOL   H28645226   6.228   7.508   7.261 -0.2740 -1.3288  1.0850
   71MOL   H28745227   6.099   7.488   7.027  0.4217  1.0032 -4.5650
   71MOL   H28845228   6.263   7.446   6.971  1.4784  2.0194 -0.4027
   71MOL   H28945229   6.351   7.656   7.040 -0.1488  1.8271 -2.6776
   71MOL   C29045230   6.172   0.051   7.034  0.3439 -0.9840  0.1985
   71MOL   O29145231   6.050   0.045   7.044  0.0029  0.2287  0.2956
   71MOL   C29245232   6.240   0.193   7.036 -0.3945 -0.1524  0.6712
   71MOL   C29345233   6.272   0.243   7.174  0.0191  0.0408 -0.4486
   71MOL   C29445234   6.400   0.184   7.235 -0.1289  1.0357 -0.3352
   71MOL   C29545235   6.424   0.234   7.383 -0.1764 -0.7417  0.2611
   71MOL   C29645236   6.330   0.165   7.481  0.5395  0.1405  0.0098
   71MOL   O29745237   6.314   0.047   7.478 -0.1110 -0.4427  0.0881
   71MOL   N29845238   6.273   0.239   7.581  0.3188 -0.0662  0.3677
   71MOL   C29945239   6.174   0.185   7.673 -0.2599 -0.4442  0.2269
   71MOL   C30045240   6.144   0.291   0.080  0.1719  0.1822 -0.0927
   71MOL   C30145241   6.014   0.264   0.158  0.0520 -0.7041  0.1736
   71MOL   C30245242   6.032   0.154   0.263  0.7996 -0.0418  0.2990
   71MOL   N30345243   5.910   0.084   0.304 -0.3420 -0.0897  0.4683
   71MOL   H30445244   6.321   0.199   6.963  0.1890  0.1876  1.3440
   71MOL   H30545245   6.169   0.259   6.986  1.8244  1.0791 -0.9644
   71MOL   H30645246   6.288   0.350   7.169 -0.0537  0.0227 -1.1248
   71MOL   H30745247   6.186   0.225   7.238 -0.0468  1.5293 -0.0986
   71MOL   H30845248   6.488   0.203   7.174 -0.0439 -0.9696 -0.8472
   71MOL   H30945249   6.396   0.076   7.243 -1.5241  1.0712 -0.3827
   71MOL   H31045250   6.400   0.339   7.398  0.5023 -0.2149 -2.0972
   71MOL   H31145251   6.528   0.218   7.412  0.3544  0.0728 -1.1016
   71MOL   H31245252   6.299   0.336   7.588  2.0711 -0.2910 -2.2021
   71MOL   H31345253   6.213   0.101   0.029  3.2064  0.9669  0.0581
   71MOL   H31445254   6.096   0.151   7.606 -0.0610 -0.7452  0.1428
   71MOL   H31545255   6.235   0.289   0.140  0.6668 -2.7271 -0.8247
   71MOL   H31645256   6.131   0.389   0.035 -2.4155  0.0333  0.2074
   71MOL   H31745257   5.930   0.256   0.090  1.4362  3.7947 -2.2319
   71MOL   H31845258   6.008   0.349   0.226 -0.1641 -1.0019  0.5339
   71MOL   H31945259   6.088   0.187   0.350  0.3658 -0.0018  0.5635
   71MOL   H32045260   6.091   0.067   0.231  0.4168 -0.2326  0.1029
   71MOL   H32145261   5.873   0.020   0.236 -1.2130 -0.6053  1.4148
   71MOL   C32245262   5.886   0.054   0.434  0.0952 -0.6123  0.1506
   71MOL   O32345263   5.933   0.124   0.525 -0.2002  0.4802  0.6078
   71MOL   C32445264   5.784   7.645   0.449  0.5842  0.0149 -0.6604
   71MOL   C32545265   5.843   7.524   0.518 -0.2931  1.0617 -0.1660
   71MOL   C32645266   5.758   7.392   0.509 -0.7440  0.3964  0.2702
   71MOL   C32745267   5.618   7.401   0.581 -0.0280  0.7474 -0.4713
   71MOL   C32845268   5.627   7.395   0.735 -0.0525  0.0853 -0.0986
   71MOL   O32945269   5.734   7.372   0.793  0.0600  0.0269  0.4381
   71MOL   N33045270   5.516   7.400   0.806  0.4381  0.4287 -0.4246
   71MOL   C33145271   5.502   7.390   0.955  0.0745 -0.5305  0.6241
   71MOL   C33245272   5.455   7.527   1.009  0.4218 -0.1683  0.4984
   71MOL   C33345273   5.398   7.516   1.153 -0.4113  0.3021  0.0312
   71MOL   C33445274   5.362   7.659   1.210  0.1399  0.0845  0.3333
   71MOL   N33545275   5.490   0.031   1.236  0.3247  0.6250 -0.4938
   71MOL   H33645276   5.695   7.681   0.500  0.0962 -1.7079 -0.2734
   71MOL   H33745277   5.742   7.608   0.355  0.1287  0.4022 -0.6100
   71MOL   H33845278   5.938   7.505   0.467  0.8260  0.2318  2.1692
   71MOL   H33945279   5.876   7.555   0.617  1.3441 -1.6033  0.1580
   71MOL   H34045280   5.812   7.304   0.541 -1.9137 -0.9018 -1.2243
   71MOL   H34145281   5.738   7.373   0.403 -2.6893  1.3717  0.4219
   71MOL   H34245282   5.564   7.314   0.543  0.3241  1.2240 -2.1065
   71MOL   H34345283   5.565   7.494   0.562 -0.5839  0.3840 -0.7036
   71MOL   H34445284   5.426   7.394   0.761 -0.4797 -0.5826  1.4745
   71MOL   H34545285   5.603   7.380   0.996  0.4725 -0.9233 -0.4323
   71MOL   H34645286   5.425   7.315   0.973  1.0470 -1.5288  0.7611
   71MOL   H34745287   5.530   7.606   1.006  1.1487 -0.8847 -0.3487
   71MOL   H34845288   5.378   7.566   0.941  2.4601  0.4622 -1.5186
   71MOL   H34945289   5.465   7.452   1.211 -1.0785  0.7101  1.2765
   71MOL   H35045290   5.306   7.459   1.166 -1.3699  2.4688  3.1267
   71MOL   H35145291   5.303   7.661   1.302  0.1090  0.6828  0.3053
   71MOL   H35245292   5.321   0.022   1.132  0.5244  2.4617  2.0343
   71MOL   H35345293   5.572   7.691   1.195  0.7878  1.6102 -0.5760
   71MOL   C35445294   5.514   0.150   1.288  0.5955 -0.1079  0.5074
   71MOL   O35545295   5.423   0.226   1.307 -0.2233 -0.4325 -0.5216
   71MOL   C35645296   5.659   0.186   1.328 -0.1695  0.1051 -0.1504
   71MOL   C35745297   5.678   0.266   1.462  0.5637  0.1453 -0.1655
   71MOL   C35845298   5.639   0.417   1.448  0.0052  0.0117 -0.1488
   71MOL   C35945299   5.629   0.483   1.587 -0.6111  0.0300  0.7600
   71MOL   C36045300   5.627   0.638   1.575 -0.5917  0.6668 -0.9019
   71MOL   O36145301   5.568   0.697   1.482 -0.2289  0.0087 -0.8795
   71MOL   N36245302   5.696   0.699   1.666 -0.2172 -0.0454 -0.3737
   71MOL   C36345303   5.704   0.843   1.679 -0.1848  0.6797 -0.1134
   71MOL   C36445304   5.844   0.890   1.654 -0.7132 -0.1445  0.0887
   71MOL   C36545305   5.868   1.042   1.695 -0.3427 -0.2502  0.7435
   71MOL   C36645306   6.003   1.095   1.628  0.0048 -0.4208 -0.3154
   71MOL   N36745307   6.040   1.226   1.681  1.1404 -0.7187  0.6666
   71MOL   H36845308   5.729   0.102   1.332 -1.2511 -0.7280  1.8688
   71MOL   H36945309   5.687   0.243   1.239 -0.2259 -3.4232 -2.5209
   71MOL   H37045310   5.620   0.212   1.538  1.0721  0.8792  0.7528
   71MOL   H37145311   5.786   0.261   1.475  0.6246 -0.5733 -0.8760
   71MOL   H37245312   5.545   0.422   1.393 -0.3425 -0.8698  0.3615
   71MOL   H37345313   5.717   0.474   1.398  1.3957 -2.3340 -0.7094
   71MOL   H37445314   5.703   0.449   1.660 -0.0892  0.4440  0.4278
   71MOL   H37545315   5.532   0.452   1.626 -0.8413 -0.7139 -0.3811
   71MOL   H37645316   5.728   0.653   1.750 -0.9896 -0.2680 -0.1984
   71MOL   H37745317   5.674   0.868   1.781 -2.7365  0.1389 -0.6964
   71MOL   H37845318   5.632   0.889   1.611 -0.9728  0.4984  0.5834
   71MOL   H37945319   5.914   0.823   1.704 -0.6752  0.7012  1.1802
   71MOL   H38045320   5.873   0.881   1.550 -1.7754  0.0264 -0.2266
   71MOL   H38145321   5.877   1.041   1.804 -1.7536 -0.9268  0.8622
   71MOL   H38245322   5.786   1.103   1.658 -1.3061 -0.5479  2.3237
   71MOL   H38345323   6.004   1.095   1.519 -2.9224  0.7720 -0.3956
   71MOL   H38445324   6.073   1.015   1.649 -1.9597 -2.1447 -0.1500
   71MOL   H38545325   6.096   1.233   1.765 -0.1729 -0.7478  1.5609
   71MOL   C38645326   5.993   1.337   1.627 -0.3336 -0.0402  0.5032
   71MOL   O38745327   5.924   1.332   1.520 -0.2001 -0.2060  0.4206
   71MOL   C38845328   6.020   1.468   1.697 -0.3253  0.0930 -0.1592
   71MOL   C38945329   5.894   1.563   1.706  0.6022  0.3941  0.6174
   71MOL   C39045330   5.776   1.502   1.781 -0.1117  0.3145  0.0294
   71MOL   C39145331   5.787   1.432   1.923  0.5159  0.0864 -0.6478
   71MOL   C39245332   5.812   1.521   2.047 -0.3711 -0.7901  0.0250
   71MOL   O39345333   5.905   1.598   2.056 -0.1309 -0.3649  0.7440
   71MOL   N39445334   5.724   1.511   2.146  0.4695 -0.5644 -0.0351
   71MOL   C39545335   5.739   1.587   2.268 -0.1214 -0.1782 -0.1948
   71MOL   C39645336   5.670   1.517   2.383  0.3782  0.3297  0.4163
   71MOL   C39745337   5.666   1.619   2.501  0.0114  0.6574 -0.3591
   71MOL   C39845338   5.625   1.558   2.635  0.4609 -0.0621  0.1219
   71MOL   N39945339   5.615   1.667   2.733 -0.0358  0.0345 -0.6965
   71MOL   H40045340   6.064   1.447   1.794 -0.6025 -0.1614 -0.0875
   71MOL   H40145341   6.096   1.518   1.636  0.9504 -0.9938  0.5192
   71MOL   H40245342   5.924   1.645   1.771  0.7348  0.6384  0.2504
   71MOL   H40345343   5.866   1.601   1.608 -1.2316  2.1589  1.7838
   71MOL   H40445344   5.728   1.426   1.719  1.9553 -0.7414 -0.3282
   71MOL   H40545345   5.702   1.581   1.789 -0.4250  0.0814 -0.4919
   71MOL   H40645346   5.873   1.366   1.918  1.1739  0.9136 -0.2105
   71MOL   H40745347   5.702   1.363   1.928  0.8642 -0.3024 -0.0587
   71MOL   H40845348   5.645   1.450   2.129 -0.6238  0.9004 -0.2650
   71MOL   H40945349   5.694   1.683   2.239  0.2975 -0.0241 -0.3347
   71MOL   H41045350   5.843   1.607   2.293 -1.1464  1.1266  3.3076
   71MOL   H41145351   5.570   1.482   2.357  0.9139 -1.2210  0.3672
   71MOL   H41245352   5.724   1.430   2.419 -1.1631 -0.5747  0.5699
   71MOL   H41345353   5.602   1.703   2.474  1.0162  1.4357 -0.3385
   71MOL   H41445354   5.768   1.653   2.516  0.2459  1.0583 -2.6360
   71MOL   H41545355   5.711   1.497   2.661 -0.5712 -0.9816  1.4247
   71MOL   H41645356   5.534   1.498   2.622  0.9626 -0.4330 -1.9314
   71MOL   H41745357   5.699   1.703   2.776 -1.4099  0.7784  1.4705
   71MOL   C41845358   5.505   1.693   2.801 -0.2138  0.5200  0.4226
   71MOL   O41945359   5.401   1.627   2.791  0.1264 -0.2101  0.0009
   71MOL   C42045360   5.518   1.812   2.904 -0.0658 -0.3145 -0.1256
   71MOL   C42145361   5.433   1.928   2.844  0.1858 -0.7031  0.2715
   71MOL   C42245362   5.474   1.981   2.704 -0.0196  0.2916 -0.2768
   71MOL   C42345363   5.432   2.127   2.674  0.1879 -0.0591 -0.9045
   71MOL   C42445364   5.287   2.132   2.633 -0.7092  0.3825 -0.0204
   71MOL   O42545365   5.209   2.044   2.655 -0.4515 -0.3814  0.1528
   71MOL   N42645366   5.246   2.253   2.595 -0.6187  0.0400 -0.0888
   71MOL   C42745367   5.113   2.295   2.601  0.1074  0.0887 -0.6802
   71MOL   C42845368   5.075   2.413   2.503  0.4153 -0.1472  1.0778
   71MOL   C42945369   4.923   2.440   2.484 -0.2089  0.2159 -0.4640
   71MOL   C43045370   4.856   2.505   2.607  0.0388  0.2976  0.7233
   71MOL   N43145371   4.916   2.625   2.662 -0.3209  0.0084  0.6985
   71MOL   H43245372   5.496   1.781   3.006 -0.7823 -0.6172 -0.3659
   71MOL   H43345373   5.621   1.847   2.906 -0.9044  2.1666  0.4830
   71MOL   H43445374   5.331   1.890   2.841  1.3248 -4.0088  0.6475
   71MOL   H43545375   5.442   2.015   2.910  2.8084 -0.3091 -0.5473
   71MOL   H43645376   5.443   1.917   2.621  3.7216 -0.6531 -1.0327
   71MOL   H43745377   5.580   1.964   2.691  0.1080  1.1229 -0.3471
   71MOL   H43845378   5.488   2.175   2.594  0.6446  1.1869  0.1346
   71MOL   H43945379   5.437   2.190   2.763 -1.2501 -1.0350 -0.1042
   71MOL   H44045380   5.310   2.327   2.569 -0.5652  0.6819  1.7568
   71MOL   H44145381   5.094   2.338   2.700 -2.5670  1.9866 -1.9655
   71MOL   H44245382   5.045   2.213   2.582  0.1232 -0.3653  1.1169
   71MOL   H44345383   5.130   2.505   2.524  0.1263  0.3923 -0.4601
   71MOL   H44445384   5.110   2.387   2.403 -0.3469 -1.1951  1.0867
   71MOL   H44545385   4.861   2.354   2.457  0.9543 -0.3626 -1.3591
   71MOL   H44645386   4.917   2.511   2.402 -1.6653  0.9942  0.3010
   71MOL   H44745387   4.847   2.423   2.678  4.0896 -0.4287  0.4686
   71MOL   H44845388   4.757   2.540   2.577 -0.6079  0.8432  3.3155
   71MOL   H44945389   4.995   2.664   2.612  0.1245  3.3421  3.7604
   71MOL   C45045390   4.854   2.704   2.756 -0.2490 -0.1007  0.4738
   71MOL   O45145391   4.753   2.664   2.813 -0.2663 -0.3968  0.2257
   71MOL   C45245392   4.904   2.849   2.785  0.5766 -0.6803 -0.3676
   71MOL   C45345393   4.901   2.884   2.934 -0.3139  0.1882 -0.2258
   71MOL   C45445394   4.955   3.028   2.972  0.0353  0.7909  0.2164
   71MOL   C45545395   4.984   3.050   3.118  1.1129  0.2668 -0.7023
   71MOL   C45645396   5.129   3.025   3.148  0.0013 -0.3560  0.4189
   71MOL   O45745397   5.208   3.108   3.114 -0.4254 -0.1847 -0.6594
   71MOL   N45845398   5.166   2.912   3.205 -0.0294 -0.7864 -0.3360
   71MOL   C45945399   5.305   2.863   3.215  0.4120  1.2846 -0.1051
   71MOL   C46045400   5.350   2.849   3.363 -0.0700  0.3612  0.4183
   71MOL   C46145401   5.457   2.747   3.381 -0.9502  0.2235 -0.1315
   71MOL   C46245402   5.458   2.688   3.527  0.7750 -0.5776  0.1814
   71MOL   N46345403   5.325   2.651   3.573 -0.5084  0.5195  0.3726
   71MOL   H46445404   5.000   2.855   2.733  0.1880 -2.0139 -1.2516
   71MOL   H46545405   4.848   2.925   2.731  0.1720 -1.4213 -0.9891
   71MOL   H46645406   4.797   2.888   2.965 -1.1779 -0.7274 -2.8645
   71MOL   H46745407   4.957   2.804   2.983 -0.5568 -0.8682 -1.6552
   71MOL   H46845408   4.889   3.110   2.947  0.6963  1.0411 -0.7326
   71MOL   H46945409   5.041   3.049   2.909 -0.2660 -0.1192 -0.5039
   71MOL   H47045410   4.924   2.986   3.182  1.8654  1.3415  1.1117
   71MOL   H47145411   4.975   3.157   3.136 -0.2928 -0.1708  1.3382
   71MOL   H47245412   5.094   2.848   3.236 -0.5618  0.5867  1.3878
   71MOL   H47345413   5.372   2.919   3.149  1.0194  0.4378 -0.2114
   71MOL   H47445414   5.303   2.770   3.159 -1.8384  0.5890  1.0867
   71MOL   H47545415   5.380   2.948   3.397 -1.6083  0.0155  2.9264
   71MOL   H47645416   5.253   2.829   3.408  0.9156 -1.1221  1.9273
   71MOL   H47745417   5.556   2.790   3.362 -0.2282 -1.0045  0.7280
   71MOL   H47845418   5.442   2.650   3.332  0.9105 -0.4899  0.6460
   71MOL   H47945419   5.507   2.757   3.595  0.8332 -0.8787  0.4486
   71MOL   H48045420   5.516   2.595   3.520 -0.8778 -1.6357  0.2981
   71MOL   H48145421   5.262   2.631   3.496  0.3937  1.1980 -0.5573
   71MOL   C48245422   5.291   2.633   3.695 -0.0380  0.0692  0.1673
   71MOL   O48345423   5.379   2.647   3.778 -0.4429  0.0481 -0.0553
   71MOL   C48445424   5.143   2.602   3.727 -0.1150 -0.0651  0.2307
   71MOL   C48545425   5.138   2.502   3.852  1.3904 -0.5688  0.6360
   71MOL   C48645426   5.012   2.535   3.925  0.1624 -0.5418 -0.6851
   71MOL   C48745427   4.974   2.438   4.032  0.0464  0.0391 -0.4754
   71MOL   C48845428   4.929   2.306   3.979 -0.2644 -0.1673  0.4330
   71MOL   O48945429   4.840   2.302   3.891  0.1757 -0.0305  0.2226
   71MOL   N49045430   4.998   2.193   4.013  0.0360 -0.0399  0.7041
   71MOL   C49145431   4.965   2.058   3.966  0.0748 -0.7117  0.6965
   71MOL   C49245432   5.082   1.964   3.985 -0.2953 -0.0629  0.5503
   71MOL   C49345433   5.196   1.999   3.885  0.2206  0.1066  0.3589
   71MOL   C49445434   5.343   1.956   3.920 -0.6929  0.0089  0.3779
   71MOL   N49545435   5.435   2.015   3.817 -0.0076 -0.0915 -0.3128
   71MOL   H49645436   5.090   2.697   3.741 -0.1788  0.0343 -0.6482
   71MOL   H49745437   5.100   2.557   3.637  2.3064  1.3808 -1.7301
   71MOL   H49845438   5.144   2.397   3.825  0.6416 -0.3663 -0.3589
   71MOL   H49945439   5.222   2.511   3.920 -1.3734  1.4855  3.9592
   71MOL   H50045440   4.938   2.547   3.846  0.1435  1.3532 -0.4106
   71MOL   H50145441   5.026   2.632   3.974 -1.6276 -0.3167 -0.5828
   71MOL   H50245442   4.895   2.486   4.090  1.1517 -0.9054  1.8526
   71MOL   H50345443   5.062   2.423   4.094 -0.4830 -1.6627 -0.1144
   71MOL   H50445444   5.060   2.200   4.092 -0.3191 -1.5292  1.1284
   71MOL   H50545445   4.933   2.047   3.862  0.0677 -0.1056  0.6377
   71MOL   H50645446   4.877   2.037   4.027  0.6352 -1.4703  1.2526
   71MOL   H50745447   5.123   1.975   4.085  1.6028  0.1747 -0.2220
   71MOL   H50845448   5.027   1.869   3.983  0.2768 -0.3851 -0.7641
   71MOL   H50945449   5.198   2.108   3.883  0.9682  0.0735 -2.9124
   71MOL   H51045450   5.169   1.967   3.784  1.3513  1.5958 -0.4387
   71MOL   H51145451   5.346   1.847   3.925  3.1391  0.0263 -0.0432
   71MOL   H51245452   5.382   1.995   4.014  0.8858  0.9135 -0.6405
   71MOL   H51345453   5.389   2.081   3.756 -3.0341  1.0136  2.9834
   71MOL   C51445454   5.553   1.959   3.785  0.4648  0.0903 -0.6147
   71MOL   O51545455   5.596   1.859   3.844 -0.4914 -0.1396  0.2409
   71MOL   C51645456   5.636   2.023   3.678  0.1525  0.4667 -0.3903
   71MOL   C51745457   5.777   2.049   3.743 -0.2636  0.2643 -0.0644
   71MOL   C51845458   5.873   2.123   3.643 -0.1606  0.0465 -0.0611
   71MOL   C51945459   6.003   2.169   3.702 -0.5359 -0.6508 -0.2369
   71MOL   C52045460   6.104   2.072   3.766 -0.0638 -0.0262 -0.3124
   71MOL   O52145461   6.091   1.948   3.752 -0.5577  0.1503 -0.4284
   71MOL   N52245462   6.196   2.139   3.837  0.0798 -0.5134 -0.1139
   71MOL   C52345463   6.309   2.074   3.903 -0.0507  0.2147 -0.2168
   71MOL   C52445464   6.323   2.106   4.048 -0.1683  0.2048 -0.3437
   71MOL   C52545465   6.467   2.081   4.102  0.3547  0.0905  0.4921
   71MOL   C52645466   6.471   2.113   4.254  0.9361 -1.0585 -0.6693
   71MOL   N52745467   6.602   2.080   4.299  0.2771 -0.5233 -0.6049
   71MOL   H52845468   5.639   1.961   3.588 -0.8795  1.6134 -1.2252
   71MOL   H52945469   5.586   2.115   3.648  0.3328  0.1881 -1.6076
   71MOL   H53045470   5.753   2.115   3.827 -0.2022 -0.2907  0.3962
   71MOL   H53145471   5.828   1.961   3.780 -0.0743 -0.0785 -1.1287
   71MOL   H53245472   5.818   2.210   3.608  0.0020 -1.1002 -3.3516
   71MOL   H53345473   5.891   2.059   3.557  0.3637 -0.4155  0.3869
   71MOL   H53445474   5.978   2.242   3.779  1.6842  0.8295 -0.8596
   71MOL   H53545475   6.059   2.221   3.623 -0.0036 -0.0250  0.5397
   71MOL   H53645476   6.200   2.240   3.842 -1.5735 -0.4483  0.3731
   71MOL   H53745477   6.400   2.100   3.850  0.7237 -1.1091  0.4478
   71MOL   H53845478   6.306   1.966   3.885 -0.3922  0.5551 -2.3272
   71MOL   H53945479   6.285   2.207   4.065  0.2362  0.0110  1.8137
   71MOL   H54045480   6.261   2.044   4.113  0.0069 -0.2782 -0.6392
   71MOL   H54145481   6.530   2.152   4.048  0.0675 -3.0664 -4.2182
   71MOL   H54245482   6.509   1.984   4.074 -2.4003 -1.0112  0.1060
   71MOL   H54345483   6.404   2.040   4.300  1.0911  0.0171  1.3178
   71MOL   H54445484   6.435   2.216   4.265  1.1415 -0.6299 -3.5427
   71MOL   H54545485   6.629   1.983   4.307 -1.0521 -0.8468  0.0825
   71MOL   C54645486   6.701   2.171   4.312  0.2495  0.0819 -0.5377
   71MOL   O54745487   6.682   2.292   4.310  0.0021  0.2578  0.3040
   71MOL   C54845488   6.833   2.124   4.348 -0.3308  0.2745 -0.0744
   71MOL   C54945489   6.936   2.174   4.245 -0.2494 -0.0424 -0.1975
   71MOL   C55045490   6.936   2.067   4.131  0.2342  0.0905  0.9510
   71MOL   C55145491   7.010   2.118   4.014 -0.1153 -0.2557 -0.1983
   71MOL   C55245492   6.935   2.211   3.919 -1.1240 -0.7928  0.6751
   71MOL   O55345493   6.940   2.334   3.942  0.0403  0.1444  0.0956
   71MOL   N55445494   6.841   2.157   3.841 -0.0429 -0.2062 -0.1688
   71MOL   C55545495   6.747   2.230   3.763 -0.1219 -0.6994 -0.4211
   71MOL   C55645496   6.646   2.144   3.679  0.0328  0.1973  0.0469
   71MOL   C55745497   6.547   2.226   3.607 -0.5041  0.5986 -0.2986
   71MOL   C55845498   6.478   2.143   3.501  0.1892 -0.2267  0.3778
   71MOL   N55945499   6.411   2.236   3.407 -0.2462 -0.0188  0.0306
   71MOL   H56045500   6.871   2.169   4.440 -0.6896  2.2258 -0.8540
   71MOL   H56145501   6.836   2.016   4.364 -1.2159  0.5831  2.4711
   71MOL   H56245502   6.907   2.274   4.215  0.4026  0.5608  1.1707
   71MOL   H56345503   7.037   2.187   4.285 -1.2076  0.1332  2.1975
   71MOL   H56445504   6.832   2.041   4.112  0.0456  0.7255  1.0987
   71MOL   H56545505   6.980   1.978   4.178  3.2552  0.8728 -0.2834
   71MOL   H56645506   7.046   2.031   3.958 -0.1280 -1.6066  1.8543
   71MOL   H56745507   7.096   2.178   4.045  0.3522 -0.0652 -1.8155
   71MOL   H56845508   6.847   2.056   3.849 -0.5850 -0.1291  1.3839
   71MOL   H56945509   6.795   2.312   3.710  1.5413 -1.3692  0.0292
   71MOL   H57045510   6.682   2.289   3.829 -2.5950 -1.5639 -2.0032
   71MOL   H57145511   6.704   2.077   3.616 -0.6469 -1.2660  0.9512
   71MOL   H57245512   6.601   2.075   3.751 -0.7120  0.0180 -0.5969
   71MOL   H57345513   6.599   2.309   3.559 -0.7922  0.9949  0.0743
   71MOL   H57445514   6.474   2.272   3.673 -0.1096  0.8223 -0.0169
   71MOL   H57545515   6.407   2.075   3.546  0.3417 -0.1370  0.7541
   71MOL   H57645516   6.542   2.078   3.441  0.0319 -0.8602  0.8972
   71MOL   H57745517   6.467   2.294   3.346  0.0356  0.2872  0.5669
   71MOL   C57845518   6.279   2.230   3.376  0.9879  0.5295  0.4164
   71MOL   O57945519   6.207   2.144   3.419 -0.0103  0.2821 -0.3054
   71MOL   C58045520   6.224   2.320   3.271 -0.1330 -0.2606  0.0600
   71MOL   C58145521   6.093   2.388   3.313 -1.1063  0.3440  0.3028
   71MOL   C58245522   6.026   2.475   3.214 -0.2547  0.1785 -0.2486
   71MOL   C58345523   5.887   2.529   3.260 -0.3349  1.0188  0.0981
   71MOL   C58445524   5.807   2.601   3.148 -0.3152  0.1238  0.4145
   71MOL   O58545525   5.737   2.540   3.068  0.1977 -0.1922  0.0009
   71MOL   N58645526   5.821   2.734   3.134  0.3290  0.2352  0.7728
   71MOL   C58745527   5.733   2.817   3.052 -0.1104 -0.2877 -0.1161
   71MOL   C58845528   5.694   2.942   3.126  0.4784  0.5036  0.2552
   71MOL   C58945529   5.622   3.045   3.037  0.8745 -0.6336 -0.7586
   71MOL   C59045530   5.589   3.169   3.123  0.7785  0.5235 -0.0371
   71MOL   N59145531   5.529   3.275   3.045  0.5264  0.9751  0.1753
   71MOL   H59245532   6.287   2.400   3.233 -0.4100  1.1403  2.4676
   71MOL   H59345533   6.195   2.258   3.186 -0.9663  0.6103 -0.3083
   71MOL   H59445534   6.026   2.315   3.358 -0.8159 -0.5278 -0.6858
   71MOL   H59545535   6.115   2.453   3.398  0.6275 -0.1855  0.2875
   71MOL   H59645536   6.023   2.422   3.119 -0.1043 -1.4952  0.6466
   71MOL   H59745537   6.095   2.554   3.185  0.3605 -0.5397 -0.7646
   71MOL   H59845538   5.881   2.598   3.344  0.8653  1.2019  0.0317
   71MOL   H59945539   5.825   2.443   3.284  0.1415  0.4873 -0.5526
   71MOL   H60045540   5.890   2.780   3.193 -0.5415  1.3030  0.9708
   71MOL   H60145541   5.644   2.765   3.018 -1.2979  0.1006  2.2399
   71MOL   H60245542   5.793   2.846   2.966 -0.1361 -1.6433 -0.6082
   71MOL   H60345543   5.642   2.915   3.217  1.0983 -0.6278  0.2936
   71MOL   H60445544   5.783   2.978   3.178 -0.2445  1.2373  0.9906
   71MOL   H60545545   5.527   3.010   2.996  0.0614  0.2281  0.3416
   71MOL   H60645546   5.690   3.072   2.956 -0.5484  0.8929 -1.4929
   71MOL   H60745547   5.673   3.216   3.173 -0.6117  2.4591  0.5354
   71MOL   H60845548   5.524   3.129   3.200  0.1741  0.7653 -0.4166
   71MOL   H60945549   5.573   3.307   2.959  2.0370 -0.9404  0.2030
   71MOL   C61045550   5.428   3.346   3.076 -0.0463 -1.2775 -0.4716
   71MOL   O61145551   5.390   3.353   3.192  0.2044 -0.1102 -0.2684
   71MOL   C61245552   5.381   3.443   2.965  0.0597 -0.0461  0.0259
   71MOL   C61345553   5.253   3.390   2.884  0.2187 -0.0725 -0.5851
   71MOL   C61445554   5.284   3.272   2.796 -0.0035  0.9817 -0.2630
   71MOL   C61545555   5.374   3.291   2.672  0.0355  0.0104 -0.1815
   71MOL   C61645556   5.450   3.161   2.635  0.6188 -0.1479 -0.6381
   71MOL   O61745557   5.389   3.058   2.627 -0.3379  0.0935 -0.6412
   71MOL   N61845558   5.574   3.168   2.592 -0.1290  0.1675  0.1680
   71MOL   C61945559   5.651   3.066   2.536  0.6632 -0.1240  0.0212
   71MOL   C62045560   5.719   2.988   2.652  0.3040 -0.7351  0.1942
   71MOL   C62145561   5.823   2.904   2.581 -0.4290 -0.2299 -0.7908
   71MOL   C62245562   5.762   2.777   2.525 -0.0637  0.2665  0.1560
   71MOL   N62345563   5.859   2.686   2.486  0.1235  0.9145  0.4528
   71MOL   H62445564   5.352   3.540   3.008  1.5446  1.3136 -1.9507
   71MOL   H62545565   5.466   3.463   2.900  0.5107 -0.8583  0.3597
   71MOL   H62645566   5.188   3.339   2.955  2.0649 -0.8351  0.6240
   71MOL   H62745567   5.189   3.462   2.834 -1.5693 -1.1747  0.0760
   71MOL   H62845568   5.190   3.237   2.752  0.7756 -0.8397 -0.5509
   71MOL   H62945569   5.311   3.185   2.856 -1.0271  0.9601  0.1761
   71MOL   H63045570   5.441   3.374   2.694 -2.0351  0.9197  3.1297
   71MOL   H63145571   5.317   3.340   2.593 -0.5795 -1.2561 -0.5326
   71MOL   H63245572   5.630   3.251   2.604  0.4257 -0.0488 -0.8564
   71MOL   H63345573   5.713   3.099   2.453 -1.2634 -1.9215 -2.2078
   71MOL   H63445574   5.583   2.997   2.486  1.9772 -1.2566 -0.2166
   71MOL   H63545575   5.771   3.049   2.725 -0.9012 -0.3374  0.7366
   71MOL   H63645576   5.641   2.934   2.705  0.2374 -2.0127 -1.1734
   71MOL   H63745577   5.898   2.885   2.658 -1.3190  1.2255  0.4655
   71MOL   H63845578   5.877   2.959   2.505 -0.0474 -0.3115 -0.5765
   71MOL   H63945579   5.718   2.794   2.427  1.1750  3.0734  0.0522
   71MOL   H64045580   5.689   2.725   2.587  0.2138 -0.4271 -0.0978
   71MOL   H64145581   5.897   2.736   2.407  0.1389 -0.4508 -0.4234
   71MOL   H64245582   5.922   2.661   2.561  0.4878 -0.2901 -0.2415
   72MOL     C145583   4.892   0.347   3.178  0.2933 -0.4360 -0.5786
   72MOL     O245584   4.846   0.393   3.284 -0.1348  0.1594  0.2393
   72MOL     C345585   4.839   0.371   3.035  0.4535  0.0301 -0.0995
   72MOL     C445586   4.943   0.442   2.945  0.0109  0.0768 -0.2943
   72MOL     C545587   5.084   0.379   2.938  0.2672  0.7670 -0.4714
   72MOL     C645588   5.082   0.254   2.840 -0.1797 -0.4918 -0.1206
   72MOL     C745589   5.062   0.137   2.927 -0.2514  0.3356 -0.2282
   72MOL     O845590   4.949   0.090   2.947 -0.0429  0.0910 -0.0907
   72MOL     N945591   5.170   0.080   2.978 -0.5158  0.2154  0.5296
   72MOL    C1045592   5.186   7.655   3.048 -0.1157  0.6222  0.9764
   72MOL    C1145593   5.319   7.640   3.117 -0.3621 -0.6204 -0.0297
   72MOL    C1245594   5.319   7.525   3.218 -0.3879  0.0232 -0.1972
   72MOL    C1345595   5.283   7.574   3.361 -0.8240 -0.6107 -0.1595
   72MOL    N1445596   5.153   7.634   3.367 -0.1467  0.3818 -0.0486
   72MOL    H1545597   4.806   0.272   3.003  1.1673 -0.1418 -0.3194
   72MOL    H1645598   4.747   0.428   3.046  0.4507  0.2592 -1.2149
   72MOL    H1745599   4.901   0.446   2.844 -1.8692  0.6069  0.4923
   72MOL    H1845600   4.949   0.547   2.974 -0.3105 -0.6172  2.4339
   72MOL    H1945601   5.120   0.359   3.039  0.6559  3.3113 -0.0801
   72MOL    H2045602   5.144   0.451   2.884  1.9978 -0.5048 -0.2682
   72MOL    H2145603   5.167   0.245   2.772 -1.8587  1.7440 -2.6154
   72MOL    H2245604   4.997   0.264   2.772 -1.2633  0.1508  1.3017
   72MOL    H2345605   5.254   0.137   2.976 -1.4622  1.8610  4.2141
   72MOL    H2445606   5.168   7.572   2.980 -0.9727  3.2221 -2.1052
   72MOL    H2545607   5.103   7.647   3.118 -1.5068  0.3855 -0.6730
   72MOL    H2645608   5.393   7.623   3.039  0.7689 -1.6648  1.2473
   72MOL    H2745609   5.350   0.030   3.167  0.7725 -1.0471  0.0479
   72MOL    H2845610   5.422   7.489   3.224 -0.6635 -0.7675 -0.2692
   72MOL    H2945611   5.253   7.452   3.172 -0.8671 -0.3821  1.1183
   72MOL    H3045612   5.362   7.648   3.373 -0.5412 -0.8332 -0.6050
   72MOL    H3145613   5.304   7.504   3.442 -2.0359  0.5324  1.1643
   72MOL    H3245614   5.147   0.030   3.342 -0.9901  0.4021  0.2264
   72MOL    H3345615   4.980   0.284   3.166  0.6540 -0.4295  1.9279
   72MOL    C3445616   5.039   7.568   3.381 -0.4885 -0.3872 -0.5875
   72MOL    O3545617   5.032   7.450   3.402  0.1079  0.1413 -0.5160
   72MOL    C3645618   4.911   7.653   3.351 -0.4472 -0.0854 -0.2948
   72MOL    C3745619   4.818   7.576   3.264 -0.2195 -0.3815 -0.2628
   72MOL    C3845620   4.700   7.648   3.217 -0.5141  0.6276 -0.2548
   72MOL    C3945621   4.594   7.555   3.161 -0.5134 -0.2047 -0.1688
   72MOL    C4045622   4.497   7.632   3.070 -0.1706  0.2009 -0.1012
   72MOL    O4145623   4.473   0.057   3.084 -0.5838  0.2372  0.8396
   72MOL    N4245624   4.452   7.555   2.968  0.1932 -0.0223  0.0800
   72MOL    C4345625   4.357   7.602   2.870 -0.2251 -0.3440  0.1988
   72MOL    C4445626   4.334   7.492   2.768 -0.5923 -0.0669 -0.3281
   72MOL    C4545627   4.468   7.471   2.689  0.2646  0.4531  0.3338
   72MOL    C4645628   4.467   7.353   2.590 -0.1103  0.5752  0.7167
   72MOL    N4745629   4.592   7.349   2.516  0.5209 -0.4054  0.4604
   72MOL    H4845630   4.865   7.670   3.449  0.1392 -0.3933  0.0384
   72MOL    H4945631   4.934   0.046   3.303  3.5107 -0.8603 -0.0899
   72MOL    H5045632   4.876   7.541   3.178  0.1532 -0.6606  0.1026
   72MOL    H5145633   4.781   7.490   3.319  0.4544 -0.5861 -0.1269
   72MOL    H5245634   4.729   0.031   3.155  0.1802  1.8109  1.6544
   72MOL    H5345635   4.656   7.700   3.302 -1.2719  2.0305 -1.4950
   72MOL    H5445636   4.542   7.483   3.224  0.0460 -2.2315 -1.9860
   72MOL    H5545637   4.651   7.493   3.092  0.6193 -0.2536  0.7839
   72MOL    H5645638   4.467   7.456   2.969 -0.4305 -0.1245  2.3872
   72MOL    H5745639   4.384   7.698   2.826  2.1520 -0.6225  0.9495
   72MOL    H5845640   4.264   7.624   2.923  1.0685  2.5022  1.4194
   72MOL    H5945641   4.310   7.397   2.817 -0.2386  0.1016  0.1735
   72MOL    H6045642   4.250   7.526   2.709 -1.0851  0.2167  0.5332
   72MOL    H6145643   4.551   7.441   2.752 -1.5786  0.0955  2.6546
   72MOL    H6245644   4.484   7.563   2.632 -0.2363 -0.1988 -0.8748
   72MOL    H6345645   4.388   7.381   2.520  0.5847  0.8417  0.0284
   72MOL    H6445646   4.457   7.259   2.645  2.5988 -1.0166 -1.3707
   72MOL    H6545647   4.666   7.406   2.555  1.0766 -0.0689 -1.0128
   72MOL    C6645648   4.619   7.273   2.408 -0.6634  0.3307  0.2849
   72MOL    O6745649   4.538   7.190   2.365 -0.1021  0.0150  0.4381
   72MOL    C6845650   4.761   7.297   2.355 -0.0842  0.0568 -0.1789
   72MOL    C6945651   4.830   7.166   2.303 -0.8659  0.4467 -0.0783
   72MOL    C7045652   4.889   7.076   2.416  0.0257 -0.2593 -0.1482
   72MOL    C7145653   4.993   6.969   2.365 -0.0497 -0.7497 -0.1595
   72MOL    C7245654   5.001   6.852   2.453 -0.1706 -0.4769  0.3530
   72MOL    O7345655   4.900   6.821   2.516 -0.2524 -0.3333  0.3934
   72MOL    N7445656   5.105   6.775   2.435  0.2348 -0.5983 -0.4314
   72MOL    C7545657   5.103   6.642   2.493 -0.8561  0.0592 -0.3058
   72MOL    C7645658   5.259   6.600   2.483 -0.3835  0.6302  0.0233
   72MOL    C7745659   5.261   6.461   2.548  0.7519  0.3737  0.0229
   72MOL    C7845660   5.395   6.401   2.574 -0.5736 -0.1985  0.1000
   72MOL    N7945661   5.364   6.277   2.639 -0.7264  0.3191 -1.0784
   72MOL    H8045662   4.751   7.367   2.272  2.0671 -1.2838 -1.6251
   72MOL    H8145663   4.819   7.342   2.435 -1.5068  1.6133  0.0206
   72MOL    H8245664   4.757   7.123   2.235 -1.6129  0.0526  0.9729
   72MOL    H8345665   4.916   7.185   2.238  0.0259  1.4914  1.3808
   72MOL    H8445666   4.805   7.041   2.476 -0.0853  1.0871  0.5256
   72MOL    H8545667   4.948   7.128   2.492 -1.8060 -0.4464  1.4427
   72MOL    H8645668   5.088   7.021   2.350  0.3514 -0.7269  2.3329
   72MOL    H8745669   4.959   6.934   2.267  1.1960  1.5552 -1.4715
   72MOL    H8845670   5.186   6.817   2.391 -0.2791  0.3397 -0.4974
   72MOL    H8945671   5.028   6.579   2.446  1.5704 -2.4306 -0.9023
   72MOL    H9045672   5.071   6.643   2.598  0.5607 -1.4966  0.1614
   72MOL    H9145673   5.296   6.596   2.381 -0.4608  0.3629  0.0029
   72MOL    H9245674   5.308   6.675   2.544 -1.5085  1.1315  0.3274
   72MOL    H9345675   5.218   6.395   2.473 -0.0888  0.9356  0.0077
   72MOL    H9445676   5.206   6.468   2.641  0.1516 -2.2353 -0.0758
   72MOL    H9545677   5.448   6.469   2.641  0.0321 -0.3527 -0.2175
   72MOL    H9645678   5.451   6.377   2.483 -0.3501  1.2123 -0.1539
   72MOL    H9745679   5.290   6.285   2.708 -0.6247  2.0971 -1.1432
   72MOL    C9845680   5.402   6.155   2.602 -0.0800  0.7672 -0.3724
   72MOL    O9945681   5.497   6.141   2.523  0.5891 -0.2679  0.4409
   72MOL   C10045682   5.351   6.036   2.677  0.1872 -0.6961 -0.8120
   72MOL   C10145683   5.268   5.954   2.576  0.2901  0.0269 -0.6129
   72MOL   C10245684   5.254   5.810   2.639 -0.4621 -0.4730  0.3039
   72MOL   C10345685   5.228   5.707   2.534 -0.4287 -0.0917 -1.2096
   72MOL   C10445686   5.196   5.565   2.590  0.3865  0.7317  0.6566
   72MOL   O10545687   5.100   5.558   2.672  0.7572  0.0263 -0.7292
   72MOL   N10645688   5.269   5.457   2.554  0.2065 -0.0759  0.0310
   72MOL   C10745689   5.264   5.319   2.595 -0.7259 -0.2729 -0.2706
   72MOL   C10845690   5.318   5.226   2.481 -0.0105 -0.8103  0.4413
   72MOL   C10945691   5.476   5.218   2.457  0.2694  0.1761 -0.3721
   72MOL   C11045692   5.508   5.117   2.344  0.5368  0.3655 -0.4594
   72MOL   N11145693   5.495   5.189   2.220  0.3766 -0.1710  0.4148
   72MOL   H11245694   5.440   5.991   2.721  0.1570  0.4986  0.5393
   72MOL   H11345695   5.281   6.064   2.756 -0.4729 -0.9621 -1.3011
   72MOL   H11445696   5.174   6.001   2.544  0.4821  2.4423  2.2137
   72MOL   H11545697   5.317   5.936   2.480 -0.9122  1.9965 -1.6272
   72MOL   H11645698   5.171   5.805   2.710  0.7222 -0.2789  1.7176
   72MOL   H11745699   5.340   5.777   2.696 -0.2413 -2.0191 -0.9130
   72MOL   H11845700   5.318   5.707   2.472 -0.2226  0.6624 -0.9195
   72MOL   H11945701   5.147   5.739   2.468 -1.0029  1.0375  0.0324
   72MOL   H12045702   5.342   5.465   2.485  0.3370 -0.1417  0.1610
   72MOL   H12145703   5.162   5.295   2.626 -0.4643 -0.5457  0.4089
   72MOL   H12245704   5.324   5.299   2.684  0.6324 -0.3376 -1.1771
   72MOL   H12345705   5.286   5.125   2.509 -0.9888 -1.0382 -1.3942
   72MOL   H12445706   5.266   5.240   2.387 -1.1138  0.0932  1.1755
   72MOL   H12545707   5.524   5.197   2.553  0.2447  0.4409 -0.3000
   72MOL   H12645708   5.515   5.319   2.443  0.4453  0.3741  1.4755
   72MOL   H12745709   5.446   5.028   2.355  0.0121  1.0239  2.3721
   72MOL   H12845710   5.612   5.083   2.351  0.6396  0.8002  0.2039
   72MOL   H12945711   5.430   5.266   2.220 -1.2659 -1.5219  1.0773
   72MOL   C13045712   5.563   5.161   2.105 -0.2436  0.3374 -1.1739
   72MOL   O13145713   5.634   5.063   2.093  0.7569 -0.1984 -0.2003
   72MOL   C13245714   5.529   5.245   1.985  0.8580 -0.0878  0.3589
   72MOL   C13345715   5.476   5.157   1.871 -0.3535  0.4961  0.2785
   72MOL   C13445716   5.328   5.111   1.903  0.1348 -0.0009  0.0076
   72MOL   C13545717   5.221   5.207   1.830  0.8133  0.3617  0.2260
   72MOL   C13645718   5.074   5.170   1.865  0.7041  0.0580  0.4953
   72MOL   O13745719   5.048   5.111   1.969 -0.1938 -0.7791 -0.1687
   72MOL   N13845720   4.984   5.217   1.777 -0.0264 -0.0111  0.2418
   72MOL   C13945721   4.842   5.222   1.798  0.0889  0.0566 -0.3128
   72MOL   C14045722   4.786   5.084   1.778 -0.0754 -0.3056 -0.8779
   72MOL   C14145723   4.629   5.089   1.802 -0.5558 -0.2070  0.0475
   72MOL   C14245724   4.547   4.957   1.797  0.0076  0.1756  0.1866
   72MOL   N14345725   4.407   4.984   1.767  0.3557  0.9434  0.3665
   72MOL   H14445726   5.463   5.329   2.007 -0.3051 -0.7600 -0.5110
   72MOL   H14545727   5.624   5.288   1.953  0.5772 -0.2913 -0.7516
   72MOL   H14645728   5.483   5.210   1.776  2.7984 -3.1861 -1.7046
   72MOL   H14745729   5.534   5.066   1.858 -2.0082 -1.0692  3.3979
   72MOL   H14845730   5.303   5.113   2.009 -0.2501 -0.5481 -0.0698
   72MOL   H14945731   5.320   5.010   1.863  0.2467 -0.4662  1.1279
   72MOL   H15045732   5.236   5.203   1.722  2.1960  1.7534  0.3511
   72MOL   H15145733   5.234   5.313   1.855 -1.8510  1.1495 -1.4501
   72MOL   H15245734   5.008   5.240   1.681 -2.3438  0.8383 -0.1713
   72MOL   H15345735   4.804   5.294   1.726  1.3272  2.1046  1.0453
   72MOL   H15445736   4.821   5.261   1.897 -0.0432  1.6582 -0.9672
   72MOL   H15545737   4.811   5.046   1.679  0.4112  2.8344 -2.0255
   72MOL   H15645738   4.820   5.010   1.849  0.2198 -1.6670 -2.3981
   72MOL   H15745739   4.596   5.162   1.728  0.6782 -1.9596 -2.3093
   72MOL   H15845740   4.603   5.144   1.893 -2.7544  0.1427 -0.7648
   72MOL   H15945741   4.551   4.908   1.894  2.1581 -0.4029 -0.1642
   72MOL   H16045742   4.584   4.891   1.719 -0.3295 -0.2270  0.3688
   72MOL   H16145743   4.361   5.048   1.831 -1.7661  0.7308 -0.8708
   72MOL   C16245744   4.336   4.943   1.660  0.7839 -0.4468 -0.4071
   72MOL   O16345745   4.371   4.847   1.583 -0.0186 -0.6741  0.8954
   72MOL   C16445746   4.202   5.018   1.636 -0.1951 -0.4737  0.5576
   72MOL   C16545747   4.195   5.109   1.516 -0.2375 -0.2213  0.1523
   72MOL   C16645748   4.293   5.233   1.526 -0.5206  0.7679  0.3274
   72MOL   C16745749   4.268   5.329   1.414  0.0246 -0.3410  0.0244
   72MOL   C16845750   4.341   5.299   1.280  0.6411 -0.0063 -0.6654
   72MOL   O16945751   4.390   5.190   1.260 -0.4850  0.0457 -0.5592
   72MOL   N17045752   4.357   5.402   1.196  0.2190 -0.1983 -0.4685
   72MOL   C17145753   4.442   5.415   1.078 -0.5818  0.5555  0.2448
   72MOL   C17245754   4.437   5.555   1.019 -0.0257 -0.3386  0.0937
   72MOL   C17345755   4.526   5.563   0.889 -0.0685 -0.1848  0.4598
   72MOL   C17445756   4.465   5.640   0.769 -0.1579  0.2119 -0.0215
   72MOL   N17545757   4.561   5.626   0.664 -0.3949 -0.0700 -0.2888
   72MOL   H17645758   4.121   4.946   1.624 -1.5557  1.3554 -1.7695
   72MOL   H17745759   4.176   5.078   1.723  0.7947  0.1502  0.4226
   72MOL   H17845760   4.215   5.049   1.426  0.5270  0.8350 -0.3969
   72MOL   H17945761   4.092   5.142   1.509  0.1799  1.1826  0.4072
   72MOL   H18045762   4.393   5.191   1.519 -1.6782 -1.7676 -1.5413
   72MOL   H18145763   4.287   5.279   1.625  0.4177 -1.6183  1.5167
   72MOL   H18245764   4.287   5.433   1.440  0.5838 -0.1637 -1.0543
   72MOL   H18345765   4.165   5.346   1.382  0.0324  0.3023  0.3502
   72MOL   H18445766   4.299   5.483   1.209  0.0697 -0.3203 -0.3680
   72MOL   H18545767   4.406   5.341   1.006  1.9603 -0.6008  0.1006
   72MOL   H18645768   4.545   5.384   1.095 -0.5650  0.5529  0.1348
   72MOL   H18745769   4.332   5.577   1.001 -0.5856 -1.7415  1.5388
   72MOL   H18845770   4.469   5.629   1.093 -0.1428  0.3410 -0.5314
   72MOL   H18945771   4.561   5.463   0.861 -0.3004 -0.2542  0.4146
   72MOL   H19045772   4.625   5.600   0.914 -0.0990 -0.9537  1.7505
   72MOL   H19145773   4.443   5.742   0.799  2.2846  0.4822  1.0331
   72MOL   H19245774   4.376   5.591   0.730  0.6598  0.1190 -1.8242
   72MOL   H19345775   4.623   5.702   0.639  0.5303 -1.0282 -0.9457
   72MOL   C19445776   4.569   5.511   0.600 -0.1937  0.0523 -0.5736
   72MOL   O19545777   4.488   5.421   0.618 -0.0973 -0.2696 -0.6153
   72MOL   C19645778   4.685   5.489   0.505  0.2805  0.0237 -0.0362
   72MOL   C19745779   4.819   5.454   0.570 -0.2828  0.0417  0.1097
   72MOL   C19845780   4.816   5.299   0.578 -0.3820  0.2664  0.2403
   72MOL   C19945781   4.932   5.247   0.666 -0.2324 -0.1566  0.4977
   72MOL   C20045782   4.889   5.208   0.805 -0.3948  0.4887  0.0700
   72MOL   O20145783   4.823   5.279   0.872 -0.8388 -0.1256 -0.0117
   72MOL   N20245784   4.922   5.089   0.848  0.8462 -0.3979 -0.0196
   72MOL   C20345785   4.866   5.024   0.970  0.3514 -0.1923  0.0813
   72MOL   C20445786   4.738   4.948   0.939 -0.4385  0.3039  0.7465
   72MOL   C20545787   4.617   5.042   0.938  0.2713 -0.2848 -0.9033
   72MOL   C20645788   4.476   4.981   0.960  0.3200  0.6909  0.0646
   72MOL   N20745789   4.378   5.084   0.960  0.1743 -0.0301  0.3886
   72MOL   H20845790   4.653   5.415   0.431 -0.0018  1.4138 -1.3200
   72MOL   H20945791   4.688   5.589   0.462 -2.2188 -1.3764 -3.8173
   72MOL   H21045792   4.904   5.497   0.516 -1.5200 -0.8065 -2.6013
   72MOL   H21145793   4.824   5.503   0.668 -1.5851  0.4017  0.0025
   72MOL   H21245794   4.824   5.246   0.483 -1.9075 -0.5472  0.5369
   72MOL   H21345795   4.719   5.255   0.601 -0.0787 -1.7223 -2.0246
   72MOL   H21445796   5.006   5.326   0.678  0.4203 -0.7796  0.6753
   72MOL   H21545797   4.977   5.159   0.620 -1.8188 -0.9961  0.5186
   72MOL   H21645798   4.977   5.040   0.779  3.7249  1.3302  0.9911
   72MOL   H21745799   4.838   5.100   1.043  1.4521  0.6918 -0.3903
   72MOL   H21845800   4.947   4.975   1.025  1.1856  0.2923 -0.6866
   72MOL   H21945801   4.753   4.891   0.847  0.1803  2.2065 -0.3752
   72MOL   H22045802   4.739   4.883   1.026  1.0568  0.4478  0.8509
   72MOL   H22145803   4.610   5.093   0.842 -0.0945  1.8166  0.2105
   72MOL   H22245804   4.623   5.120   1.013 -1.4537 -1.0919  0.0895
   72MOL   H22345805   4.460   4.925   1.052  2.6113  1.2240  0.8253
   72MOL   H22445806   4.441   4.918   0.878  2.0587  0.4520 -0.5141
   72MOL   H22545807   4.391   5.160   1.025  0.2149 -1.6269  2.3091
   72MOL   C22645808   4.257   5.082   0.905  0.1769  0.2518  0.1546
   72MOL   O22745809   4.214   5.004   0.825 -0.5729  0.5528 -0.3340
   72MOL   C22845810   4.183   5.216   0.929 -0.0843  0.0753 -0.4902
   72MOL   C22945811   4.198   5.312   0.808  0.2691 -0.0596  0.3670
   72MOL   C23045812   4.060   5.365   0.760  0.1500 -0.6135  0.0231
   72MOL   C23145813   3.987   5.275   0.667 -0.8223  0.0148  0.2447
   72MOL   C23245814   3.878   5.339   0.579  0.3380  0.4443  0.2736
   72MOL   O23345815   3.813   5.438   0.613 -0.0584  0.0061  0.7241
   72MOL   N23445816   3.849   5.277   0.459 -0.8673  0.2026  0.1596
   72MOL   C23545817   3.782   5.341   0.352  0.0779  0.4346 -0.1381
   72MOL   C23645818   3.646   5.272   0.336 -0.1679 -0.6134 -0.1637
   72MOL   C23745819   3.654   5.123   0.302 -0.5057  1.1302  0.1330
   72MOL   C23845820   3.531   5.052   0.258  0.4790 -0.1855 -0.0617
   72MOL   N23945821   3.549   4.907   0.249  0.1976 -0.4294  0.0535
   72MOL   H24045822   4.078   5.186   0.934  0.2418 -0.8824  0.8637
   72MOL   H24145823   4.204   5.261   1.026  0.8504 -0.4075 -0.4618
   72MOL   H24245824   4.266   5.389   0.844  0.8519 -0.6186  0.4668
   72MOL   H24345825   4.252   5.266   0.726 -2.2183 -1.3092 -0.6106
   72MOL   H24445826   4.085   5.456   0.705 -0.0616 -1.1896 -1.0386
   72MOL   H24545827   4.005   5.382   0.853 -1.5350  0.4604 -1.1309
   72MOL   H24645828   3.947   5.187   0.719 -2.6738  2.6928  3.6052
   72MOL   H24745829   4.060   5.222   0.605  0.2237  2.0115 -0.2629
   72MOL   H24845830   3.904   5.198   0.428 -2.4332 -0.5435 -0.7576
   72MOL   H24945831   3.844   5.333   0.262  1.9254 -0.0567  1.1637
   72MOL   H25045832   3.767   5.447   0.372  0.2430  0.8100 -1.8901
   72MOL   H25145833   3.587   5.281   0.427 -1.4179  0.7473 -1.0908
   72MOL   H25245834   3.588   5.320   0.257  0.4501 -0.9704 -0.8395
   72MOL   H25345835   3.694   5.085   0.396  0.1522 -0.9061 -0.9360
   72MOL   H25445836   3.726   5.122   0.220 -0.1486  1.0907  0.4474
   72MOL   H25545837   3.485   5.091   0.166  2.2933  0.3204 -0.7761
   72MOL   H25645838   3.452   5.066   0.331  0.9453 -1.6842  0.7277
   72MOL   H25745839   3.646   4.879   0.237 -0.2500 -3.8353  3.4942
   72MOL   C25845840   3.457   4.814   0.270  0.1465  0.0809 -0.1609
   72MOL   O25945841   3.337   4.836   0.282 -0.1910 -0.0612  0.6595
   72MOL   C26045842   3.511   4.671   0.264  0.2102  0.0209 -0.4266
   72MOL   C26145843   3.412   4.571   0.198  0.1678  0.5786 -0.1582
   72MOL   C26245844   3.388   4.594   0.044  0.2317  0.2322  0.1834
   72MOL   C26345845   3.277   4.508   7.695 -0.1685 -0.2978  0.0130
   72MOL   C26445846   3.248   4.528   7.551  0.4423 -0.5154 -0.3721
   72MOL   O26545847   3.300   4.621   7.490 -0.3444 -0.3238  0.3231
   72MOL   N26645848   3.157   4.448   7.500 -0.3806  0.4644  0.5877
   72MOL   C26745849   3.119   4.445   7.363 -0.8064 -0.2160  0.0046
   72MOL   C26845850   3.220   4.368   7.270 -0.1589 -0.1321  0.5406
   72MOL   C26945851   3.180   4.298   7.133  0.6675 -0.1436 -0.5543
   72MOL   C27045852   3.082   4.385   7.054 -0.9611  0.2550 -0.2440
   72MOL   N27145853   3.149   4.494   6.996 -0.5155  0.4373 -0.2761
   72MOL   H27245854   3.605   4.672   0.209  0.2660  2.0726 -0.3357
   72MOL   H27345855   3.536   4.652   0.368 -0.6936  1.6199  0.0983
   72MOL   H27445856   3.439   4.468   0.221 -1.7714  0.0037 -0.4093
   72MOL   H27545857   3.314   4.585   0.243  0.8817 -1.1645  1.9652
   72MOL   H27645858   3.478   4.561   7.693 -1.3828 -2.7871 -0.7907
   72MOL   H27745859   3.371   4.701   0.031  0.0624  0.2071  0.1938
   72MOL   H27845860   3.192   4.531   0.058  2.0483  0.8950  2.6176
   72MOL   H27945861   3.306   4.404   0.010 -1.5996 -0.8703 -0.9902
   72MOL   H28045862   3.102   4.384   7.557 -3.8867  0.8141 -2.2385
   72MOL   H28145863   3.106   4.545   7.322  2.5519  0.2095 -0.1575
   72MOL   H28245864   3.021   4.398   7.359 -2.0146  2.1545  0.9982
   72MOL   H28345865   3.290   4.445   7.238  0.6761 -0.3851  1.7298
   72MOL   H28445866   3.272   4.293   7.328 -0.3097 -2.0842 -1.7993
   72MOL   H28545867   3.141   4.200   7.158  2.2630 -0.5708  0.3357
   72MOL   H28645868   3.270   4.275   7.077  2.4142 -0.4921  2.3345
   72MOL   H28745869   3.010   4.425   7.125 -1.2650  0.0506 -0.4353
   72MOL   H28845870   3.032   4.323   6.980 -2.7451 -0.9863  1.9110
   72MOL   H28945871   3.243   4.480   6.963 -0.0186  3.5406 -0.3410
   72MOL   C29045872   3.096   4.620   6.980 -0.0121  0.4971  0.3169
   72MOL   O29145873   2.978   4.647   6.995 -0.3521  0.0398  0.3332
   72MOL   C29245874   3.194   4.734   6.938 -0.0745  0.2556 -0.6627
   72MOL   C29345875   3.224   4.846   7.047 -0.1369 -0.6283 -0.0930
   72MOL   C29445876   3.310   4.805   7.167 -0.1492 -0.0825 -0.5100
   72MOL   C29545877   3.348   4.924   7.264 -0.0385 -0.1295  0.3398
   72MOL   C29645878   3.234   4.982   7.351 -0.4318  0.3910  0.4096
   72MOL   O29745879   3.181   5.088   7.321 -0.2639  0.4568  0.0079
   72MOL   N29845880   3.200   4.912   7.457  0.1774 -0.3957 -0.1790
   72MOL   C29945881   3.094   4.959   7.547  0.2614  0.1043  0.1035
   72MOL   C30045882   2.943   4.952   7.490  0.1442  0.1507 -0.1689
   72MOL   C30145883   2.890   4.816   7.452 -0.1324  0.2132 -0.1126
   72MOL   C30245884   2.847   4.733   7.574 -0.3048  0.0436  1.0176
   72MOL   N30345885   2.801   4.608   7.529 -0.1591  0.1480  0.2083
   72MOL   H30445886   3.291   4.701   6.901  0.4996  1.9624 -0.7202
   72MOL   H30545887   3.143   4.779   6.853  0.9738  3.4738  0.3293
   72MOL   H30645888   3.272   4.937   7.012 -0.9295 -0.0404  0.3410
   72MOL   H30745889   3.128   4.885   7.083  0.2621  0.2999 -0.0154
   72MOL   H30845890   3.396   4.748   7.132 -1.4650 -3.1943  1.0562
   72MOL   H30945891   3.255   4.735   7.230  2.0301 -2.1156 -0.7916
   72MOL   H31045892   3.404   5.003   7.216  2.6525 -2.1740  0.0220
   72MOL   H31145893   3.410   4.872   7.338  0.5031 -0.3395 -0.2643
   72MOL   H31245894   3.242   4.821   7.471  1.4465  0.2682  0.4279
   72MOL   H31345895   3.117   5.061   7.576 -0.7825  1.6647 -4.2448
   72MOL   H31445896   3.114   4.913   7.644 -2.4142 -0.5022  0.4001
   72MOL   H31545897   2.872   5.001   7.556  0.6355 -2.3038  2.2995
   72MOL   H31645898   2.955   5.005   7.396  0.8418  1.0868  0.4430
   72MOL   H31745899   2.955   4.750   7.394 -1.5877 -1.3662  0.0099
   72MOL   H31845900   2.802   4.833   7.390 -1.7053  1.5319  2.4245
   72MOL   H31945901   2.767   4.784   7.628 -0.4958  1.7994 -0.8740
   72MOL   H32045902   2.920   4.706   7.650  0.4899  0.4082  0.3939
   72MOL   H32145903   2.876   4.542   7.516  1.0358  1.2302  1.5249
   72MOL   C32245904   2.678   4.582   7.478 -0.3918  0.5887  0.2159
   72MOL   O32345905   2.585   4.667   7.476 -0.3652  0.2389  0.1927
   72MOL   C32445906   2.649   4.453   7.412  0.0513 -1.0126  0.5115
   72MOL   C32545907   2.705   4.448   7.264 -0.2197 -0.0611  0.5396
   72MOL   C32645908   2.681   4.310   7.190  0.1086 -0.1288 -0.1194
   72MOL   C32745909   2.702   4.311   7.039 -0.4753  0.3021 -0.1370
   72MOL   C32845910   2.575   4.294   6.954 -0.3231 -0.0308  0.7638
   72MOL   O32945911   2.573   4.210   6.863 -0.1829  0.4661 -0.0014
   72MOL   N33045912   2.461   4.365   6.996 -0.7238  0.7343 -0.4513
   72MOL   C33145913   2.331   4.325   6.950 -0.4721 -0.6058 -0.0196
   72MOL   C33245914   2.216   4.395   7.019  0.1077  0.8095  0.4897
   72MOL   C33345915   2.078   4.329   6.990 -0.4724  0.5552 -0.2676
   72MOL   C33445916   1.964   4.432   7.011  0.0736  0.2160 -0.4854
   72MOL   N33545917   1.829   4.384   6.992  0.6129  0.4014 -0.2270
   72MOL   H33645918   2.653   4.357   7.464  0.2220 -1.2024  0.1502
   72MOL   H33745919   2.542   4.434   7.407  0.1624 -1.1216 -2.8931
   72MOL   H33845920   2.642   4.512   7.204 -0.4269 -0.1887  0.6197
   72MOL   H33945921   2.809   4.475   7.247  0.4541 -1.4031  2.2951
   72MOL   H34045922   2.583   4.270   7.218  0.5713  0.7724  2.8691
   72MOL   H34145923   2.750   4.239   7.235  3.0701 -0.0993 -4.2683
   72MOL   H34245924   2.771   4.231   7.012  0.4003  0.9921  0.0115
   72MOL   H34345925   2.747   4.404   7.006 -1.6246  0.2562 -1.8643
   72MOL   H34445926   2.466   4.415   7.083 -0.9646 -0.6049  0.3407
   72MOL   H34545927   2.325   4.217   6.951 -2.8734 -0.5368 -2.1379
   72MOL   H34645928   2.319   4.349   6.844 -1.8127  0.8420  0.4316
   72MOL   H34745929   2.238   4.410   7.124  1.4981 -0.8520  0.4589
   72MOL   H34845930   2.218   4.493   6.971  1.0827  0.3678 -0.3960
   72MOL   H34945931   2.068   4.238   7.049 -1.7762  1.1773  0.5125
   72MOL   H35045932   2.094   4.298   6.887 -0.5150 -1.7199  0.3994
   72MOL   H35145933   1.980   4.523   6.954  1.7517  2.2391  3.0253
   72MOL   H35245934   1.963   4.465   7.115 -1.7866  0.3746 -0.5469
   72MOL   H35345935   1.813   4.292   6.953  0.2520  0.9145 -1.3320
   72MOL   C35445936   1.724   4.473   6.997  0.1492 -0.1560 -0.0565
   72MOL   O35545937   1.727   4.594   7.031  0.2711  1.0051  0.1521
   72MOL   C35645938   1.587   4.418   6.965  0.2610 -0.3020  0.4847
   72MOL   C35745939   1.518   4.364   7.091  0.2816  0.2619  0.6407
   72MOL   C35845940   1.564   4.220   7.136  0.0947 -0.1472  0.4093
   72MOL   C35945941   1.564   4.119   7.015  0.2566 -1.0831  0.2996
   72MOL   C36045942   1.685   4.038   6.976  0.0254 -0.3187  0.1962
   72MOL   O36145943   1.794   4.046   7.034  0.7998 -0.7225 -0.5110
   72MOL   N36245944   1.676   3.954   6.874  0.5506  0.2458 -0.0177
   72MOL   C36345945   1.790   3.891   6.813 -0.5148 -0.1203 -0.0826
   72MOL   C36445946   1.790   3.734   6.819 -0.3075 -0.9416  0.1703
   72MOL   C36545947   1.925   3.666   6.812 -0.1264 -0.4095  0.5039
   72MOL   C36645948   1.918   3.515   6.855  0.0727 -0.2239  0.3680
   72MOL   N36745949   2.049   3.449   6.854  0.3045 -0.2737  0.4203
   72MOL   H36845950   1.530   4.505   6.932  1.3575  0.7777  1.3869
   72MOL   H36945951   1.587   4.349   6.881 -0.6633 -1.1351  1.1617
   72MOL   H37045952   1.524   4.440   7.169 -1.9880 -0.2882  1.3833
   72MOL   H37145953   1.416   4.344   7.057  0.8447 -0.2051 -0.8102
   72MOL   H37245954   1.498   4.183   7.215 -0.7003  0.2023 -0.0888
   72MOL   H37345955   1.666   4.225   7.175  0.5653  2.1822 -1.0461
   72MOL   H37445956   1.524   4.158   6.921  0.8278  2.0168  1.2721
   72MOL   H37545957   1.489   4.050   7.053 -0.2514 -0.3677  0.5909
   72MOL   H37645958   1.592   3.945   6.819  0.6794 -0.0677 -0.1664
   72MOL   H37745959   1.877   3.930   6.867 -0.1112  0.3108 -1.0402
   72MOL   H37845960   1.808   3.930   6.713 -1.9826  0.3429 -0.1779
   72MOL   H37945961   1.750   3.711   6.918  1.6501 -0.5907  1.0636
   72MOL   H38045962   1.729   3.684   6.743  0.3997 -0.8662 -0.4506
   72MOL   H38145963   2.000   3.707   6.880 -0.3202 -0.7965  0.9549
   72MOL   H38245964   1.964   3.669   6.710  1.0362 -0.0073  0.9566
   72MOL   H38345965   1.844   3.457   6.799 -0.5326  0.6816  0.2217
   72MOL   H38445966   1.882   3.520   6.958  1.0444  0.9472  0.6575
   72MOL   H38545967   2.058   3.363   6.803 -0.5399  1.2671 -2.4079
   72MOL   C38645968   2.142   3.480   6.951 -0.3074 -0.2066 -0.2362
   72MOL   O38745969   2.134   3.566   7.038  0.3134  0.1090 -0.3461
   72MOL   C38845970   2.266   3.399   6.961  0.0592  0.5394  0.0871
   72MOL   C38945971   2.291   3.310   7.084  0.4825 -0.2477 -0.2432
   72MOL   C39045972   2.383   3.194   7.043  0.2094 -0.1900 -0.2412
   72MOL   C39145973   2.317   3.089   6.956 -0.4734  0.0655  0.6665
   72MOL   C39245974   2.191   3.032   7.015 -0.0898  0.7754  0.7797
   72MOL   O39345975   2.197   2.978   7.123  0.5943  0.8140  0.3104
   72MOL   N39445976   2.077   3.061   6.955  0.5042  0.1597  0.5934
   72MOL   C39545977   1.948   3.037   7.013  0.0481 -0.5243  0.3051
   72MOL   C39645978   1.911   3.131   7.128  0.7076  0.7155 -0.1696
   72MOL   C39745979   1.761   3.124   7.165  0.2722 -0.3811  0.6540
   72MOL   C39845980   1.674   3.222   7.088 -0.2415 -0.2347  0.1735
   72MOL   N39945981   1.529   3.192   7.091 -0.1188  0.3488 -0.9207
   72MOL   H40045982   2.273   3.332   6.875 -0.4702  1.1652 -0.4531
   72MOL   H40145983   2.351   3.466   6.945  0.6960 -0.6795 -1.8043
   72MOL   H40245984   2.341   3.373   7.157  0.1740  1.5142 -1.5259
   72MOL   H40345985   2.192   3.280   7.120  1.6000 -2.1743  1.3204
   72MOL   H40445986   2.429   3.151   7.132 -2.8085 -3.2611 -0.0523
   72MOL   H40545987   2.470   3.234   6.991  0.4512 -1.0926 -0.5429
   72MOL   H40645988   2.384   3.005   6.939  2.1379  2.2047 -0.1190
   72MOL   H40745989   2.300   3.131   6.857  0.6607 -2.0925 -0.4635
   72MOL   H40845990   2.080   3.101   6.862 -1.3163  1.2470  0.9707
   72MOL   H40945991   1.937   2.933   7.041 -0.0995 -0.2138  1.4675
   72MOL   H41045992   1.872   3.049   6.936  1.3717 -0.0289 -0.9336
   72MOL   H41145993   1.960   3.112   7.223 -1.4263 -0.0489  0.8065
   72MOL   H41245994   1.929   3.230   7.086 -1.4907 -0.2463 -3.6354
   72MOL   H41345995   1.745   3.138   7.272 -0.7048  2.1472  0.2291
   72MOL   H41445996   1.717   3.029   7.135 -0.2656  0.4519 -1.2746
   72MOL   H41545997   1.703   3.233   6.984  0.3784 -0.6786  0.2978
   72MOL   H41645998   1.693   3.319   7.135  1.6315  0.1891 -1.4187
   72MOL   H41745999   1.499   3.101   7.122 -0.1320  1.2310  1.8584
   72MOL   C41846000   1.429   3.277   7.073  0.4650 -0.0702  0.8776
   72MOL   O41946001   1.316   3.231   7.067 -0.4331  0.5555 -0.3998
   72MOL   C42046002   1.458   3.428   7.059 -0.7860  0.7079 -0.5490
   72MOL   C42146003   1.347   3.510   6.988  0.4519 -0.2385 -0.6737
   72MOL   C42246004   1.389   3.643   6.930 -0.0940 -0.2094  0.0064
   72MOL   C42346005   1.284   3.708   6.835 -0.0500 -0.6629 -0.0773
   72MOL   C42446006   1.317   3.847   6.784  1.1283  0.2299  0.4202
   72MOL   O42546007   1.421   3.903   6.813  0.0632 -0.9801 -0.0728
   72MOL   N42646008   1.226   3.919   6.712 -0.2283  1.1890  0.3859
   72MOL   C42746009   1.100   3.867   6.658 -0.1470 -0.2274  0.8837
   72MOL   C42846010   0.981   3.949   6.706 -0.1083 -0.2137 -0.1760
   72MOL   C42946011   0.984   4.099   6.677  0.3864 -0.0965 -0.0470
   72MOL   C43046012   0.854   4.172   6.715 -0.1351 -0.0794 -0.4879
   72MOL   N43146013   0.855   4.309   6.676  0.1886  0.6609  0.0870
   72MOL   H43246014   1.478   3.462   7.160 -2.5957 -2.6862  1.0422
   72MOL   H43346015   1.550   3.440   7.001 -0.5016  0.9444 -0.0444
   72MOL   H43446016   1.320   3.441   6.908 -0.8865 -1.6902  1.0010
   72MOL   H43546017   1.257   3.523   7.048  1.1593  1.4299  0.0634
   72MOL   H43646018   1.482   3.642   6.874 -0.9614  1.6722 -1.5279
   72MOL   H43746019   1.411   3.708   7.016 -0.8591  0.2749 -0.1492
   72MOL   H43846020   1.183   3.706   6.875 -0.3559 -1.0112 -0.8658
   72MOL   H43946021   1.280   3.640   6.749 -0.3039  1.2569 -1.6058
   72MOL   H44046022   1.266   4.003   6.672  0.5882  0.7113  0.2085
   72MOL   H44146023   1.082   3.763   6.685  1.1545 -0.7024 -0.0122
   72MOL   H44246024   1.100   3.862   6.549  2.2141  0.7635  0.8202
   72MOL   H44346025   0.891   3.904   6.665  0.9374 -0.6867 -1.9948
   72MOL   H44446026   0.957   3.937   6.812  2.6719  0.4868  0.5770
   72MOL   H44546027   1.008   4.124   6.574 -0.8768 -0.3309 -0.4047
   72MOL   H44646028   1.069   4.146   6.727  1.5199 -1.8067 -0.3189
   72MOL   H44746029   0.837   4.164   6.823  1.1087  1.0112 -0.2009
   72MOL   H44846030   0.773   4.118   6.667  1.7887 -1.2516 -2.4978
   72MOL   H44946031   0.877   4.375   6.749 -0.2939  0.7743  0.1286
   72MOL   C45046032   0.812   4.351   6.552 -0.7664  0.4118 -0.4693
   72MOL   O45146033   0.778   4.272   6.460  0.0687 -0.0517 -0.4010
   72MOL   C45246034   0.817   4.495   6.527 -1.1829  0.0801 -0.4424
   72MOL   C45346035   0.685   4.570   6.500  0.4626 -0.1789 -0.1361
   72MOL   C45446036   0.593   4.599   6.613 -0.2348  0.0083 -0.5029
   72MOL   C45546037   0.647   4.697   6.719  0.4828 -0.3345 -0.4952
   72MOL   C45646038   0.577   4.668   6.857 -0.0877 -0.0725  0.4324
   72MOL   O45746039   0.465   4.618   6.854 -0.3559 -0.4161  0.3055
   72MOL   N45846040   0.643   4.713   6.962  0.5138  0.8800  0.1319
   72MOL   C45946041   0.596   4.700   7.105  0.3404  0.4598 -0.1257
   72MOL   C46046042   0.700   4.620   7.191  0.0439  1.2346  0.7509
   72MOL   C46146043   0.673   4.469   7.211 -0.1406  0.1604  0.0074
   72MOL   C46246044   0.758   4.415   7.326 -0.1008 -0.1375  0.1829
   72MOL   N46346045   0.769   4.272   7.306 -0.1459  0.0113  0.1026
   72MOL   H46446046   0.860   4.553   6.609  0.3908  1.4889 -2.2186
   72MOL   H46546047   0.883   4.502   6.441 -0.4864  1.6608  0.2032
   72MOL   H46646048   0.706   4.666   6.452 -0.1695 -0.2024 -0.4678
   72MOL   H46746049   0.636   4.507   6.426  0.0754 -2.4407  1.9954
   72MOL   H46846050   0.549   4.503   6.639 -0.8773 -0.3945 -2.9810
   72MOL   H46946051   0.516   4.652   6.558  1.5877  0.9206 -2.2789
   72MOL   H47046052   0.650   4.802   6.692 -0.3719 -0.3737 -0.7414
   72MOL   H47146053   0.750   4.663   6.732 -0.3478 -1.6552  3.2958
   72MOL   H47246054   0.725   4.765   6.937  1.1709  0.0627  0.5594
   72MOL   H47346055   0.495   4.663   7.124 -0.4762  2.1431 -0.9956
   72MOL   H47446056   0.591   4.803   7.142  0.6882 -0.3367  2.2187
   72MOL   H47546057   0.800   4.637   7.152  0.6883  1.8141  2.6329
   72MOL   H47646058   0.725   4.673   7.282  0.2344  2.5108 -0.0328
   72MOL   H47746059   0.689   4.427   7.112 -0.7950 -1.6662  0.6714
   72MOL   H47846060   0.567   4.457   7.233 -0.3070 -2.1752 -1.9072
   72MOL   H47946061   0.724   4.441   7.427 -1.2388 -0.6858 -0.0619
   72MOL   H48046062   0.862   4.448   7.321 -0.6740  1.9347  1.3605
   72MOL   H48146063   0.715   4.219   7.240  0.4810  0.3991 -0.7302
   72MOL   C48246064   0.826   4.192   7.398 -0.9963 -0.7128 -0.7138
   72MOL   O48346065   0.863   4.229   7.506  0.1124  0.1713  0.3054
   72MOL   C48446066   0.825   4.040   7.379  1.1176 -0.4379  0.6132
   72MOL   C48546067   0.820   3.964   7.507 -0.4668  0.1265 -0.0227
   72MOL   C48646068   0.811   3.809   7.494  0.2233 -0.4181 -0.1360
   72MOL   C48746069   0.762   3.748   7.625  0.4603 -0.3833 -0.3224
   72MOL   C48846070   0.847   3.744   0.049  0.1359 -0.4379  0.0101
   72MOL   O48946071   0.961   3.695   0.050  0.5254 -0.5516 -0.0399
   72MOL   N49046072   0.796   3.814   0.150 -0.3188  0.4794 -0.2471
   72MOL   C49146073   0.837   3.808   0.289 -0.2042  0.1945  0.1336
   72MOL   C49246074   0.745   3.750   0.404 -0.2050  0.5203  0.1207
   72MOL   C49346075   0.811   3.791   0.543 -0.2908 -0.4118  0.0033
   72MOL   C49446076   0.743   3.711   0.660 -1.6034  0.8519  0.1904
   72MOL   N49546077   0.601   3.735   0.655  0.3377  0.2208  0.0997
   72MOL   H49646078   0.743   4.008   7.314  0.8445 -2.1692  1.8004
   72MOL   H49746079   0.924   4.017   7.340  2.1621  2.3006  1.5394
   72MOL   H49846080   0.912   3.981   7.562 -1.3871 -2.4119  2.4061
   72MOL   H49946081   0.738   4.001   7.568  1.3654  2.7312  0.9154
   72MOL   H50046082   0.901   3.763   7.452 -0.9469 -0.4812 -2.6978
   72MOL   H50146083   0.736   3.777   7.422 -0.5375  0.3185  0.3339
   72MOL   H50246084   0.739   3.645   7.598 -0.4984 -0.6209  1.3541
   72MOL   H50346085   0.675   3.808   7.648 -0.2107 -1.2477 -0.5886
   72MOL   H50446086   0.716   3.874   0.133 -0.1674  0.2030 -2.0533
   72MOL   H50546087   0.858   3.913   0.306 -0.4256  0.3689 -0.6657
   72MOL   H50646088   0.929   3.750   0.297  0.8646  2.2726  3.7456
   72MOL   H50746089   0.644   3.788   0.396 -0.2197  0.5156  0.2671
   72MOL   H50846090   0.750   3.641   0.403  0.0074  0.5245  0.4877
   72MOL   H50946091   0.798   3.898   0.553  1.2483 -0.1835 -0.3000
   72MOL   H51046092   0.916   3.763   0.543 -0.7473 -2.2145  0.9239
   72MOL   H51146093   0.786   3.752   0.752  1.4329  0.6951 -1.0941
   72MOL   H51246094   0.764   3.604   0.660 -2.4478  0.6744  0.8889
   72MOL   H51346095   0.564   3.779   0.571  0.7659 -0.2079 -0.3163
   72MOL   C51446096   0.511   3.693   0.746 -0.6197 -0.3194  0.1407
   72MOL   O51546097   0.536   3.632   0.853  0.4318 -0.0691  0.2194
   72MOL   C51646098   0.369   3.712   0.704  0.2405 -0.3237  0.2645
   72MOL   C51746099   0.304   3.575   0.675  0.4708  0.0994  0.5204
   72MOL   C51846100   0.349   3.507   0.540 -0.0364 -0.1217  0.1169
   72MOL   C51946101   0.296   3.366   0.520 -0.4534 -0.9340  0.0873
   72MOL   C52046102   0.330   3.302   0.386  0.4121 -0.0467  0.7697
   72MOL   O52146103   0.372   3.367   0.294  0.4286  0.0768  0.0790
   72MOL   N52246104   0.314   3.168   0.373  0.6123  0.7021 -0.3230
   72MOL   C52346105   0.369   3.085   0.267 -0.2045  0.3539  1.0316
   72MOL   C52446106   0.272   3.070   0.150  0.2205  1.0119  0.1981
   72MOL   C52546107   0.130   3.014   0.173 -0.4678 -1.0720 -0.6152
   72MOL   C52646108   0.052   2.989   0.046  0.5495  0.6323  0.4621
   72MOL   N52746109   7.652   2.883   0.059  0.6418 -0.0695  0.4352
   72MOL   H52846110   0.319   3.764   0.786 -1.1568 -2.4142  0.7847
   72MOL   H52946111   0.358   3.767   0.611 -1.3502 -1.7819 -0.4378
   72MOL   H53046112   0.319   3.504   0.757 -0.7544 -1.2227 -0.3725
   72MOL   H53146113   0.198   3.598   0.676  0.7037  1.1730  1.1401
   72MOL   H53246114   0.457   3.506   0.524  0.0749 -1.5652  0.8972
   72MOL   H53346115   0.303   3.568   0.463  0.9124  1.7288  0.9768
   72MOL   H53446116   0.191   3.358   0.547  0.5417 -1.3096  4.1959
   72MOL   H53546117   0.353   3.308   0.592  2.0001 -0.6601 -1.5818
   72MOL   H53646118   0.300   3.119   0.460  0.2604 -1.0206 -1.3243
   72MOL   H53746119   0.389   2.992   0.320  2.3577  1.2044  1.6135
   72MOL   H53846120   0.467   3.106   0.225  0.5255 -2.8886  0.9388
   72MOL   H53946121   0.257   3.173   0.118 -0.3941  0.1950 -2.2869
   72MOL   H54046122   0.326   3.018   0.071 -2.3957 -0.1328 -0.8965
   72MOL   H54146123   0.076   3.072   0.247  0.2888 -1.0536 -0.0686
   72MOL   H54246124   0.140   2.917   0.222 -1.9394 -1.2696 -0.6774
   72MOL   H54346125   0.106   2.974   7.654  0.8195  2.0298  0.3813
   72MOL   H54446126   7.695   3.080   0.029  1.1428  1.1134  0.9808
   72MOL   H54546127   7.557   2.917   0.048  0.9337  0.0085 -2.1201
   72MOL   C54646128   7.688   2.754   0.060 -0.0436 -0.4178 -0.2028
   72MOL   O54746129   0.097   2.714   0.019  0.3461  0.2341 -0.5546
   72MOL   C54846130   7.592   2.641   0.111 -0.2257  0.1469  0.4706
   72MOL   C54946131   7.671   2.547   0.207 -0.7641 -0.3133 -0.9059
   72MOL   C55046132   7.589   2.461   0.300  0.0778  0.5666 -0.0364
   72MOL   C55146133   7.668   2.392   0.409  0.4667  0.4202 -0.2439
   72MOL   C55246134   7.691   2.464   0.545 -0.2270  0.0713  0.3857
   72MOL   O55346135   7.674   2.588   0.538  0.1387  0.1113 -0.1708
   72MOL   N55446136   0.015   2.394   0.653 -0.5138 -0.1280  0.3872
   72MOL   C55546137   0.015   2.437   0.793 -0.0417 -0.1578 -0.0031
   72MOL   C55646138   0.014   2.309   0.881  0.2440  0.1793  0.3549
   72MOL   C55746139   0.018   2.338   1.028 -1.0364  0.8212  0.6261
   72MOL   C55846140   0.149   2.426   1.067  0.6167  0.0083  0.0386
   72MOL   N55946141   0.122   2.564   1.048  0.2206  0.5189 -0.4591
   72MOL   H56046142   7.497   2.683   0.143 -1.7467 -0.9573 -2.4105
   72MOL   H56146143   7.561   2.583   0.024 -2.0871  3.6637 -1.3140
   72MOL   H56246144   0.033   2.486   0.142  0.2176 -1.2794  0.9341
   72MOL   H56346145   0.034   2.615   0.262  0.4519 -1.0769 -1.3518
   72MOL   H56446146   7.535   2.381   0.249  0.7381 -0.3546  0.6873
   72MOL   H56546147   7.511   2.521   0.348  0.3664  2.3815 -1.7480
   72MOL   H56646148   0.055   2.347   0.366 -0.6087  0.1873 -2.2646
   72MOL   H56746149   7.594   2.317   0.438  1.2358 -0.4644 -0.5715
   72MOL   H56846150   0.029   2.294   0.644 -0.7553 -0.5105  3.5109
   72MOL   H56946151   7.625   2.493   0.812  0.3715  0.1864  0.9474
   72MOL   H57046152   0.105   2.497   0.799 -0.5431  0.6859 -0.8205
   72MOL   H57146153   7.631   2.246   0.854  1.3946 -1.2825  0.0816
   72MOL   H57246154   0.099   2.246   0.855 -2.9796 -3.1500 -2.7096
   72MOL   H57346155   0.028   2.243   1.080  0.5165 -0.6527 -2.2655
   72MOL   H57446156   7.632   2.397   1.058 -0.5013  1.0992  1.6751
   72MOL   H57546157   0.226   2.406   0.993  0.3096 -0.3019 -0.2040
   72MOL   H57646158   0.183   2.398   1.167 -1.2348 -2.7971 -0.0587
   72MOL   H57746159   0.031   2.597   1.018  0.1910 -1.3440 -2.5978
   72MOL   C57846160   0.219   2.658   1.058  0.1227  0.1702  0.5697
   72MOL   O57946161   0.339   2.629   1.075  0.0582 -0.5339 -0.1269
   72MOL   C58046162   0.166   2.797   1.031 -0.4394  0.0305 -0.2088
   72MOL   C58146163   0.221   2.857   0.896 -0.4086 -0.1175  0.1830
   72MOL   C58246164   0.204   2.757   0.773 -0.0421  0.5855 -0.3165
   72MOL   C58346165   0.209   2.826   0.635  0.2708  0.2607 -0.2458
   72MOL   C58446166   0.103   2.927   0.590 -0.0166  0.5818 -0.1024
   72MOL   O58546167   0.117   3.052   0.607 -0.1703  0.2436 -0.2074
   72MOL   N58646168   7.694   2.872   0.538  0.4483 -0.4212  1.0275
   72MOL   C58746169   7.582   2.940   0.483  0.3303  0.1578 -0.2951
   72MOL   C58846170   7.461   2.843   0.479 -0.0953  0.3854 -0.0968
   72MOL   C58946171   7.404   2.813   0.618 -0.2552  0.2346  0.0959
   72MOL   C59046172   7.301   2.701   0.602  0.6865 -0.4502 -0.4169
   72MOL   N59146173   7.357   2.570   0.630 -0.5408 -0.0094 -0.4185
   72MOL   H59246174   0.058   2.805   1.031 -0.3821  1.2213  1.4234
   72MOL   H59346175   0.179   2.869   1.113  1.3838  0.7033 -1.0561
   72MOL   H59446176   0.159   2.946   0.881 -4.0373 -2.4759  0.4442
   72MOL   H59546177   0.324   2.890   0.904  0.3652 -2.2014 -0.8091
   72MOL   H59646178   0.113   2.699   0.790  1.3549 -1.0639  1.8178
   72MOL   H59746179   0.275   2.675   0.781  0.6840  0.9154 -3.0258
   72MOL   H59846180   0.215   2.734   0.578 -0.8508 -0.5641  0.9318
   72MOL   H59946181   0.307   2.872   0.626 -0.2172  1.3485 -0.1547
   72MOL   H60046182   7.695   2.772   0.524 -1.4823 -0.2624 -0.2935
   72MOL   H60146183   7.610   2.967   0.381  2.3161  1.4709  0.5555
   72MOL   H60246184   7.572   3.035   0.535  0.0527 -1.2582  2.3143
   72MOL   H60346185   7.386   2.883   0.412 -1.1170  0.3341  0.9970
   72MOL   H60446186   7.489   2.746   0.439 -0.1753  0.2378  0.2005
   72MOL   H60546187   7.368   2.906   0.663  0.6463  0.2462  0.8119
   72MOL   H60646188   7.484   2.769   0.678  0.6421 -1.4138 -2.2846
   72MOL   H60746189   7.269   2.700   0.498 -0.4539 -0.9938 -0.0690
   72MOL   H60846190   7.224   2.720   0.677  0.4695 -2.1145 -0.2066
   72MOL   H60946191   7.450   2.555   0.595 -0.6805 -1.7527 -0.1105
   72MOL   C61046192   7.302   2.469   0.707  0.0346  0.0623  0.9729
   72MOL   O61146193   7.188   2.487   0.755  0.3445 -0.2915 -0.5072
   72MOL   C61246194   7.383   2.346   0.746  0.6184 -0.2264 -0.2896
   72MOL   C61346195   7.292   2.226   0.785 -0.0150 -0.6213  0.2555
   72MOL   C61446196   7.232   2.158   0.667 -0.7290  0.1532  0.0160
   72MOL   C61546197   7.144   2.046   0.713  0.0075 -0.8060  0.8812
   72MOL   C61646198   7.024   2.105   0.793  0.1404  0.6332  0.2497
   72MOL   O61746199   6.947   2.187   0.739  0.0616 -0.3341  0.0197
   72MOL   N61846200   7.014   2.064   0.925  0.0088 -0.2040  0.0738
   72MOL   C61946201   6.915   2.112   1.014  0.8120 -0.0362 -0.1859
   72MOL   C62046202   6.791   2.031   1.013  1.0473 -0.3255 -0.5508
   72MOL   C62146203   6.671   2.092   1.091  0.5620  0.1194 -0.2981
   72MOL   C62246204   6.537   2.022   1.079 -0.2682  0.7175  0.5155
   72MOL   N62346205   6.441   2.074   1.165 -0.1227  1.2005 -0.3901
   72MOL   H62446206   7.464   2.335   0.673  1.1313  0.1391  0.2218
   72MOL   H62546207   7.433   2.382   0.836 -2.4528 -0.8695  1.7374
   72MOL   H62646208   7.335   2.171   0.869 -0.9886 -0.5386  0.8121
   72MOL   H62746209   7.205   2.268   0.836 -0.8386 -3.2956  1.1603
   72MOL   H62846210   7.319   2.122   0.613  0.5151  1.0528  1.3761
   72MOL   H62946211   7.176   2.237   0.617 -2.7720 -1.0089  0.4226
   72MOL   H63046212   7.206   1.987   0.781  0.1846 -1.5585  0.0705
   72MOL   H63146213   7.110   1.990   0.626  1.4187  1.6797 -1.3717
   72MOL   H63246214   7.093   2.014   0.965  0.8990  3.1782  2.7194
   72MOL   H63346215   6.898   2.218   0.995  0.8950  0.1021  0.4766
   72MOL   H63446216   6.974   2.105   1.106  0.8507 -1.2668 -0.2918
   72MOL   H63546217   6.745   2.030   0.914 -4.0559 -0.5582  1.6856
   72MOL   H63646218   6.801   1.930   1.052 -0.1704  1.0470  3.4793
   72MOL   H63746219   6.661   2.198   1.068  0.7547  0.4975  1.3116
   72MOL   H63846220   6.700   2.090   1.196  1.9183  0.5923 -0.6518
   72MOL   H63946221   6.561   1.921   1.113  1.7670  0.3348 -1.8979
   72MOL   H64046222   6.505   2.015   0.975  0.7071  2.9048  0.0289
   72MOL   H64146223   6.355   2.025   1.147  0.5136 -0.2083  0.3300
   72MOL   H64246224   6.450   2.061   1.265  0.8967  1.1808 -0.4863
   73MOL     C146225   5.238   2.259   3.593 -0.5020  0.2908  0.9474
   73MOL     O246226   5.345   2.219   3.636 -0.0157  0.1373 -0.7832
   73MOL     C346227   5.223   2.336   3.459  0.1824  0.2326  0.1240
   73MOL     C446228   5.335   2.344   3.350  0.3574 -0.3847 -0.1647
   73MOL     C546229   5.371   2.215   3.270  0.1500  0.3920  0.3302
   73MOL     C646230   5.474   2.245   3.153 -0.1246  0.3138 -0.3061
   73MOL     C746231   5.418   2.325   3.036  0.7126  0.0996  0.5297
   73MOL     O846232   5.307   2.301   2.994  0.0806  0.3592  0.3195
   73MOL     N946233   5.498   2.413   2.981 -0.2865  0.7872  0.2876
   73MOL    C1046234   5.475   2.511   2.870 -0.4509 -0.1784 -0.5954
   73MOL    C1146235   5.383   2.625   2.919 -0.6207 -0.3153 -0.0690
   73MOL    C1246236   5.370   2.736   2.815  0.2025  0.1959  0.4947
   73MOL    C1346237   5.294   2.700   2.690  0.5076 -0.6375  0.2900
   73MOL    N1446238   5.263   2.820   2.607  0.0492  0.9048 -0.0406
   73MOL    H1546239   5.138   2.284   3.414  0.3612 -0.5672  0.7138
   73MOL    H1646240   5.182   2.435   3.480 -0.4027  0.1808 -0.7160
   73MOL    H1746241   5.303   2.414   3.272  0.4386  0.5821  0.6557
   73MOL    H1846242   5.435   2.365   3.388  0.2982 -2.5804  1.2362
   73MOL    H1946243   5.279   2.172   3.231  0.4502 -1.0246  1.1725
   73MOL    H2046244   5.415   2.141   3.337  3.2884  0.8930 -1.1002
   73MOL    H2146245   5.521   2.152   3.120 -1.0137  0.1378 -1.1118
   73MOL    H2246246   5.562   2.294   3.193  0.0281 -2.1666  2.6009
   73MOL    H2346247   5.593   2.420   3.014 -0.5368  0.5268  1.0755
   73MOL    H2446248   5.433   2.457   2.786 -0.0525 -0.8880 -0.3376
   73MOL    H2546249   5.574   2.546   2.841  0.1787 -0.9164  0.6333
   73MOL    H2646250   5.283   2.601   2.955 -0.1077 -0.0695  1.5676
   73MOL    H2746251   5.428   2.678   3.003 -2.7720 -0.7518  1.4021
   73MOL    H2846252   5.465   2.782   2.788  1.0466 -1.3267  0.8247
   73MOL    H2946253   5.323   2.813   2.876 -0.2105 -1.1821  1.9437
   73MOL    H3046254   5.196   2.663   2.719 -0.5386  2.6127  1.0608
   73MOL    H3146255   5.353   2.621   2.644 -1.3952 -0.8533 -1.8283
   73MOL    H3246256   5.333   2.892   2.611  1.2660  0.0891 -4.3423
   73MOL    H3346257   5.152   2.246   3.659 -1.4584 -0.3717 -0.4070
   73MOL    C3446258   5.172   2.832   2.508  0.1100  0.2821 -0.5229
   73MOL    O3546259   5.086   2.753   2.484 -0.4367  0.0030 -0.0128
   73MOL    C3646260   5.187   2.948   2.402  0.3675  0.4182  0.2404
   73MOL    C3746261   5.060   3.037   2.409  0.1879 -0.3403  0.2483
   73MOL    C3846262   5.072   3.167   2.333  0.3846  0.2462  0.1290
   73MOL    C3946263   4.956   3.269   2.339  0.1603 -0.2172  0.4867
   73MOL    C4046264   4.956   3.351   2.463  0.7240 -0.2134  0.5124
   73MOL    O4146265   5.021   3.456   2.470 -0.0244  0.8239  0.2824
   73MOL    N4246266   4.870   3.305   2.554  0.6601  0.0044 -0.2631
   73MOL    C4346267   4.828   3.346   2.687  0.0355  0.1859  0.3844
   73MOL    C4446268   4.684   3.410   2.683 -0.1128 -0.3498 -0.2665
   73MOL    C4546269   4.651   3.445   2.829 -0.2949 -0.3733 -0.2586
   73MOL    C4646270   4.528   3.531   2.846 -0.4581  0.1439  0.0553
   73MOL    N4746271   4.493   3.534   2.987 -0.9972  0.0231 -0.3133
   73MOL    H4846272   5.285   2.994   2.410  0.2687  1.3215 -2.9909
   73MOL    H4946273   5.176   2.897   2.306  1.8350 -1.4121  1.0392
   73MOL    H5046274   4.973   2.983   2.373  1.7958 -2.2445 -0.8722
   73MOL    H5146275   5.037   3.062   2.513 -0.4380 -1.1139  0.3012
   73MOL    H5246276   5.072   3.142   2.227 -0.7363  0.2282  0.1273
   73MOL    H5346277   5.166   3.217   2.358 -0.4477  1.2619  1.3258
   73MOL    H5446278   4.855   3.230   2.328  0.1693  0.4295 -2.3381
   73MOL    H5546279   4.966   3.332   2.251 -1.7575 -0.3857  0.1152
   73MOL    H5646280   4.825   3.222   2.518 -1.6678  0.6359  1.0822
   73MOL    H5746281   4.892   3.422   2.733  0.9918  0.5210 -1.4701
   73MOL    H5846282   4.826   3.258   2.751 -0.8919 -0.6940 -0.8210
   73MOL    H5946283   4.675   3.500   2.623 -1.1377 -1.1618 -1.3388
   73MOL    H6046284   4.612   3.341   2.640 -0.7067  1.4594 -2.2349
   73MOL    H6146285   4.729   3.507   2.873 -0.9807  0.8827 -0.7769
   73MOL    H6246286   4.638   3.357   2.892  1.0970  0.0742  0.6840
   73MOL    H6346287   4.441   3.489   2.796 -1.6441  3.0156 -0.3728
   73MOL    H6446288   4.551   3.628   2.802  1.0635 -0.5223 -0.6890
   73MOL    H6546289   4.419   3.468   3.007 -0.5791 -1.3307 -3.0281
   73MOL    C6646290   4.547   3.612   3.084 -0.6007  0.5440 -0.0401
   73MOL    O6746291   4.629   3.700   3.071  0.2791 -0.0893 -0.8381
   73MOL    C6846292   4.507   3.581   3.228  0.0307  0.4765 -0.4316
   73MOL    C6946293   4.602   3.484   3.298  0.0375 -0.4225 -0.2548
   73MOL    C7046294   4.549   3.438   3.431 -0.0002  0.1633  0.6760
   73MOL    C7146295   4.639   3.327   3.498  0.0429 -0.0761 -0.5403
   73MOL    C7246296   4.603   3.185   3.450 -0.6554 -0.0803 -0.7347
   73MOL    O7346297   4.491   3.171   3.404 -0.6845 -0.1360  0.0865
   73MOL    N7446298   4.699   3.090   3.450  0.3890 -0.3575  0.4282
   73MOL    C7546299   4.667   2.955   3.415 -0.3888 -0.5440 -0.6708
   73MOL    C7646300   4.685   2.862   3.539  0.3444 -0.2670 -0.0432
   73MOL    C7746301   4.827   2.859   3.594 -0.4186 -0.3240  0.0773
   73MOL    C7846302   4.938   2.822   3.491  0.7959 -0.1138 -0.5196
   73MOL    N7946303   4.912   2.691   3.430 -0.3897  0.3470  0.0313
   73MOL    H8046304   4.485   3.669   3.288 -2.9132 -1.4577  1.5047
   73MOL    H8146305   4.410   3.532   3.211  1.5160 -2.6632 -0.2539
   73MOL    H8246306   4.632   3.399   3.236 -0.5850 -1.1918  0.5037
   73MOL    H8346307   4.700   3.530   3.311 -0.0792  0.2149 -1.5001
   73MOL    H8446308   4.442   3.424   3.438 -0.2586  1.1343 -1.0183
   73MOL    H8546309   4.570   3.520   3.500 -1.8791 -0.3641  1.8900
   73MOL    H8646310   4.627   3.331   3.606 -0.4310  2.2307 -0.6479
   73MOL    H8746311   4.742   3.340   3.466  0.7025 -1.6631  0.8762
   73MOL    H8846312   4.791   3.110   3.487 -0.0299  0.7425  0.9111
   73MOL    H8946313   4.723   2.917   3.330  0.1934 -0.2799 -0.4065
   73MOL    H9046314   4.564   2.936   3.384 -0.7778 -0.7596  0.7189
   73MOL    H9146315   4.612   2.896   3.612 -0.2701  0.4705 -0.9780
   73MOL    H9246316   4.655   2.761   3.513  0.6306 -0.4080  0.1828
   73MOL    H9346317   4.827   2.793   3.680 -0.0036 -0.2461  0.1390
   73MOL    H9446318   4.867   2.955   3.628 -0.8367  0.1549 -0.7696
   73MOL    H9546319   5.036   2.832   3.538  0.9379  0.7744 -0.9869
   73MOL    H9646320   4.939   2.903   3.419  0.2439 -2.2242 -2.9489
   73MOL    H9746321   4.829   2.647   3.465 -0.7800  1.0025 -0.0542
   73MOL    C9846322   4.992   2.619   3.352 -0.3167  0.0735  0.2032
   73MOL    O9946323   5.109   2.656   3.338 -0.3014  0.2050 -0.3237
   73MOL   C10046324   4.942   2.501   3.271  0.3074  0.1971  0.7744
   73MOL   C10146325   4.935   2.534   3.119  0.2475  0.2828  0.9566
   73MOL   C10246326   4.960   2.411   3.036  0.3745 -0.6430 -0.0788
   73MOL   C10346327   4.838   2.322   3.035 -0.1522 -0.4879  0.3225
   73MOL   C10446328   4.855   2.189   2.968  0.4845 -0.2164 -0.5686
   73MOL   O10546329   4.818   2.171   2.848  0.0583 -0.5132  0.3271
   73MOL   N10646330   4.919   2.093   3.036 -0.2710 -0.3688 -0.0224
   73MOL   C10746331   4.974   1.978   2.972 -0.4092  0.6306  0.2685
   73MOL   C10846332   5.005   1.862   3.068  0.1399  0.6858 -0.4104
   73MOL   C10946333   5.054   1.742   2.983 -0.0269  0.1503 -0.2379
   73MOL   C11046334   5.046   1.605   3.059  0.2475 -0.3251  0.3833
   73MOL   N11146335   5.115   1.503   2.979  0.1419 -0.2399  0.2447
   73MOL   H11246336   5.017   2.426   3.295  2.9564  2.4043 -0.2647
   73MOL   H11346337   4.844   2.471   3.309 -0.3475  1.2833 -0.0138
   73MOL   H11446338   4.840   2.573   3.085  1.3920  2.4133  0.0635
   73MOL   H11546339   5.003   2.615   3.091 -0.1805  0.6914  1.1038
   73MOL   H11646340   5.048   2.363   3.078 -0.0356 -1.0228  0.3482
   73MOL   H11746341   4.975   2.429   2.930 -0.9733  0.1379 -0.1590
   73MOL   H11846342   4.767   2.376   2.972  1.4712  0.8578 -0.3852
   73MOL   H11946343   4.791   2.307   3.132 -0.5671 -0.8413  0.0678
   73MOL   H12046344   4.962   2.120   3.123 -1.7170  4.4858 -0.6402
   73MOL   H12146345   5.065   2.004   2.918  0.2259 -1.1183  0.4756
   73MOL   H12246346   4.908   1.945   2.891  1.6069 -0.1594 -1.0760
   73MOL   H12346347   5.086   1.892   3.134  0.4814  0.6428 -0.8045
   73MOL   H12446348   4.912   1.843   3.121 -0.8486 -0.2280 -2.4079
   73MOL   H12546349   5.151   1.773   2.944 -0.0294 -1.4381 -1.5710
   73MOL   H12646350   4.990   1.729   2.895  0.4065  1.2720 -0.7315
   73MOL   H12746351   4.942   1.575   3.074  0.3011 -0.7120  0.0137
   73MOL   H12846352   5.080   1.622   3.161 -0.3538  1.2419  0.3329
   73MOL   H12946353   5.162   1.531   2.895  1.7924  2.3223  1.9512
   73MOL   C13046354   5.128   1.382   3.020 -0.5614  0.6809 -0.2645
   73MOL   O13146355   5.096   1.342   3.131 -0.1637  0.3248  0.1790
   73MOL   C13246356   5.186   1.287   2.912 -0.2080 -0.2245 -0.1910
   73MOL   C13346357   5.299   1.200   2.974  0.5377 -0.3512  0.0061
   73MOL   C13446358   5.426   1.269   3.009  0.4878 -0.0833 -0.6463
   73MOL   C13546359   5.517   1.300   2.896  0.1174  0.1498  0.0022
   73MOL   C13646360   5.595   1.171   2.850 -0.2755 -0.6206  0.0168
   73MOL   O13746361   5.693   1.125   2.915  0.1676 -0.5313 -0.2944
   73MOL   N13846362   5.559   1.127   2.729  0.1140  0.3064  0.2517
   73MOL   C13946363   5.613   1.002   2.673 -0.6558  0.4400  0.3515
   73MOL   C14046364   5.611   1.005   2.518 -0.3222  0.0448  0.1896
   73MOL   C14146365   5.647   1.139   2.457 -0.3661 -0.4358 -0.3530
   73MOL   C14246366   5.674   1.152   2.312  0.1079  0.2365 -0.1917
   73MOL   N14346367   5.585   1.081   2.225  0.4039 -0.0904  0.0529
   73MOL   H14446368   5.112   1.221   2.868 -0.7796  0.4735 -0.2781
   73MOL   H14546369   5.219   1.356   2.835  1.2670 -3.0793 -2.2096
   73MOL   H14646370   5.262   1.132   3.052 -1.4125  0.8514  0.1720
   73MOL   H14746371   5.318   1.121   2.901  2.7598 -1.6318  1.8689
   73MOL   H14846372   5.481   1.201   3.074 -0.0246 -2.0133 -2.1916
   73MOL   H14946373   5.407   1.358   3.069  1.9110 -1.2349  1.5772
   73MOL   H15046374   5.593   1.370   2.932  1.2190  1.0932 -3.8932
   73MOL   H15146375   5.469   1.337   2.805 -0.6490  0.8396  0.6817
   73MOL   H15246376   5.471   1.154   2.686 -0.1880 -2.2146 -0.8049
   73MOL   H15346377   5.552   0.924   2.718 -1.3977  0.5682 -0.4088
   73MOL   H15446378   5.716   0.979   2.699 -0.5149 -1.2080 -1.5790
   73MOL   H15546379   5.677   0.927   2.482  2.9342  2.5837  0.3922
   73MOL   H15646380   5.505   0.985   2.499 -0.2153 -0.2232 -0.1125
   73MOL   H15746381   5.739   1.172   2.504  0.2430 -2.1823 -0.3020
   73MOL   H15846382   5.576   1.218   2.483  0.4541 -0.1053  0.9285
   73MOL   H15946383   5.764   1.095   2.287 -0.3540 -0.0596 -1.2070
   73MOL   H16046384   5.682   1.255   2.278 -1.3514  0.7413  0.9560
   73MOL   H16146385   5.576   0.986   2.257  2.1498 -0.2446  0.1588
   73MOL   C16246386   5.498   1.134   2.140  0.5903 -0.6717  0.3446
   73MOL   O16346387   5.512   1.251   2.103 -0.0538 -0.4795 -0.1170
   73MOL   C16446388   5.385   1.052   2.080  0.5945 -0.0835  0.3846
   73MOL   C16546389   5.256   1.141   2.057  0.2092 -0.0606  0.1726
   73MOL   C16646390   5.131   1.054   2.073 -0.5556  0.2151  0.1462
   73MOL   C16746391   5.118   0.933   1.977  0.4329 -0.4290 -0.0280
   73MOL   C16846392   5.121   0.963   1.827  0.0599 -0.0146  0.3976
   73MOL   O16946393   5.077   1.069   1.789 -0.0135 -0.2442  0.1324
   73MOL   N17046394   5.187   0.871   1.750 -0.2969  0.1405  0.1316
   73MOL   C17146395   5.218   0.887   1.604  0.6132  0.2719  0.6638
   73MOL   C17246396   5.095   0.872   1.513  0.4129 -0.6304 -0.0125
   73MOL   C17346397   5.123   0.902   1.371 -0.2170 -0.2703 -0.1580
   73MOL   C17446398   4.992   0.888   1.283  0.3494  0.1673 -0.5560
   73MOL   N17546399   5.015   0.924   1.148 -0.1028 -0.6100 -0.1837
   73MOL   H17646400   5.422   0.985   2.002  1.5933  0.2453  0.5640
   73MOL   H17746401   5.372   0.981   2.161  1.1920 -0.2525  0.3387
   73MOL   H17846402   5.239   1.224   2.126 -1.6104  0.3410 -0.7162
   73MOL   H17946403   5.261   1.182   1.956 -0.0585  1.2753  0.6780
   73MOL   H18046404   5.040   1.111   2.052 -0.1967  0.3225 -1.2146
   73MOL   H18146405   5.121   1.022   2.176  1.5612  0.6638  0.5012
   73MOL   H18246406   5.028   0.876   2.001 -0.1542  0.3687 -0.3125
   73MOL   H18346407   5.190   0.857   2.006  0.4848  0.3024  1.8661
   73MOL   H18446408   5.212   0.786   1.798 -0.4159  1.5573  2.8325
   73MOL   H18546409   5.281   0.804   1.573 -0.4912  0.4328 -2.1903
   73MOL   H18646410   5.255   0.987   1.581 -0.9700  0.9137  0.8202
   73MOL   H18746411   5.067   0.767   1.513  2.9047 -1.3050  0.2360
   73MOL   H18846412   5.002   0.915   1.551  0.0362 -1.8644  0.4876
   73MOL   H18946413   5.204   0.837   1.338  0.1703 -0.7206  1.5922
   73MOL   H19046414   5.161   1.004   1.361  1.0290 -0.8333 -1.3251
   73MOL   H19146415   4.916   0.944   1.337  0.6657 -0.7312  0.8452
   73MOL   H19246416   4.957   0.785   1.280 -0.4113  0.3990  0.3256
   73MOL   H19346417   5.057   1.014   1.127 -1.8109  0.0468 -0.9519
   73MOL   C19446418   4.984   0.850   1.038 -0.1329  0.7313  0.4808
   73MOL   O19546419   4.895   0.760   1.025  0.2577 -0.0991  0.0660
   73MOL   C19646420   5.073   0.882   0.917  0.7327 -0.3085 -0.4939
   73MOL   C19746421   5.126   0.767   0.844  0.2660  0.2119  0.2143
   73MOL   C19846422   5.190   0.818   0.712  0.3542 -0.0625  0.8358
   73MOL   C19946423   5.253   0.701   0.632 -0.4566  0.5760  0.1278
   73MOL   C20046424   5.389   0.668   0.683 -0.2514 -0.6056 -0.0682
   73MOL   O20146425   5.428   0.722   0.786 -0.6037  0.6824 -0.2599
   73MOL   N20246426   5.457   0.575   0.610 -0.2509 -0.6448 -0.6793
   73MOL   C20346427   5.574   0.511   0.650  0.1933  0.4963 -0.5995
   73MOL   C20446428   5.686   0.530   0.547 -0.2162 -0.4926 -0.6604
   73MOL   C20546429   5.822   0.490   0.609  0.6387 -0.3499  0.0613
   73MOL   C20646430   5.934   0.449   0.509 -0.6978 -0.7253  0.3453
   73MOL   N20746431   5.963   0.566   0.426 -0.3115 -0.1312  0.3848
   73MOL   H20846432   5.005   0.928   0.846  0.3441  0.0243  0.0931
   73MOL   H20946433   5.161   0.941   0.944  0.0978  0.8485 -0.9580
   73MOL   H21046434   5.202   0.711   0.898  0.5656  0.5984  0.1934
   73MOL   H21146435   5.053   0.692   0.812  0.7702 -0.2423  0.1135
   73MOL   H21246436   5.258   0.896   0.748 -0.9949  1.2714  0.5836
   73MOL   H21346437   5.119   0.873   0.650 -0.3106 -2.1822 -0.3205
   73MOL   H21446438   5.261   0.731   0.527 -0.6450  2.3254  0.5830
   73MOL   H21546439   5.187   0.615   0.644  2.1441 -1.3041  1.3194
   73MOL   H21646440   5.420   0.536   0.524  1.3584 -0.7720 -1.3381
   73MOL   H21746441   5.580   0.403   0.664 -4.1561  0.3595  0.9856
   73MOL   H21846442   5.599   0.547   0.750  0.1305  1.1031 -0.7983
   73MOL   H21946443   5.667   0.466   0.460  0.6867  0.0169 -1.2456
   73MOL   H22046444   5.684   0.634   0.517 -0.3766 -0.9800 -2.4069
   73MOL   H22146445   5.814   0.412   0.685  1.4403  0.5667  1.1152
   73MOL   H22246446   5.850   0.574   0.673  3.4077  0.0467 -1.5802
   73MOL   H22346447   5.899   0.357   0.464 -2.8077  0.7665 -1.1736
   73MOL   H22446448   6.025   0.423   0.564  0.3099 -1.1604 -1.5036
   73MOL   H22546449   5.913   0.575   0.339  2.2370  0.8899 -1.0403
   73MOL   C22646450   6.063   0.651   0.441 -0.5121  0.1214 -0.0312
   73MOL   O22746451   6.132   0.662   0.543 -0.1091  0.2596 -0.0629
   73MOL   C22846452   6.081   0.748   0.322  0.1293  0.2806  0.0174
   73MOL   C22946453   6.182   0.700   0.221  0.1018 -0.2545  0.0148
   73MOL   C23046454   6.182   0.780   0.089 -0.0994 -0.0640 -0.1476
   73MOL   C23146455   6.304   0.734   0.004 -0.1575 -0.1071  0.0204
   73MOL   C23246456   6.264   0.615   7.609  1.0434 -0.2569  0.6920
   73MOL   O23346457   6.317   0.505   7.619 -0.4619 -0.6616  0.2719
   73MOL   N23446458   6.186   0.644   7.509  0.2322  0.7517 -0.2278
   73MOL   C23546459   6.118   0.548   7.420 -0.0964 -0.1109 -0.2514
   73MOL   C23646460   5.964   0.543   7.446 -0.1689 -0.6563  0.5163
   73MOL   C23746461   5.914   0.461   7.566 -0.0010 -0.0681 -0.7234
   73MOL   C23846462   5.757   0.471   7.582  0.3776  0.1197 -0.9764
   73MOL   N23946463   5.721   0.601   7.648  0.5814 -0.1755  0.3048
   73MOL   H24046464   5.985   0.763   0.274  1.2743  1.1774 -2.0678
   73MOL   H24146465   6.098   0.849   0.362  2.0063 -0.6373  1.6446
   73MOL   H24246466   6.281   0.709   0.267  0.4405  0.7578 -0.8939
   73MOL   H24346467   6.159   0.596   0.197  2.9954 -0.2970 -2.9314
   73MOL   H24446468   6.192   0.887   0.106  1.7114 -0.6358  2.6094
   73MOL   H24546469   6.082   0.758   0.053  0.0536 -0.3274 -0.4152
   73MOL   H24646470   6.394   0.710   0.061 -0.7195 -1.1297  0.4981
   73MOL   H24746471   6.326   0.814   7.635 -0.2515 -1.7081 -1.8620
   73MOL   H24846472   6.180   0.743   7.489  0.6877  1.1274  1.3664
   73MOL   H24946473   6.163   0.450   7.427  0.9609  0.4257  0.5629
   73MOL   H25046474   6.133   0.579   7.316  0.5219 -1.8261 -0.6791
   73MOL   H25146475   5.926   0.645   7.453 -0.5195 -0.7491 -0.0826
   73MOL   H25246476   5.915   0.506   7.356  1.6425 -1.1314 -0.3038
   73MOL   H25346477   5.968   0.484   7.658 -1.2988 -0.2005  0.0740
   73MOL   H25446478   5.933   0.358   7.535  0.1380 -0.5408  0.8507
   73MOL   H25546479   5.725   0.385   7.641  2.2164  0.2050  0.2041
   73MOL   H25646480   5.722   0.466   7.479 -1.4334  1.5004 -0.4439
   73MOL   H25746481   5.649   0.651   7.598  0.3067  0.0847  0.9432
   73MOL   C25846482   5.753   0.638   0.073  0.1952  0.7882  0.6026
   73MOL   O25946483   5.805   0.557   0.148 -0.1780 -0.3074  0.0531
   73MOL   C26046484   5.707   0.776   0.122 -0.0091 -0.4225 -0.2329
   73MOL   C26146485   5.618   0.778   0.245  0.3682 -0.0358  0.1024
   73MOL   C26246486   5.465   0.783   0.213 -0.2272  1.0155  0.0850
   73MOL   C26346487   5.406   0.654   0.151  0.1699 -0.7718  0.1776
   73MOL   C26446488   5.412   0.527   0.238  0.4052 -0.3382 -0.7141
   73MOL   O26546489   5.346   0.515   0.342 -0.0414  0.2676  0.4742
   73MOL   N26646490   5.491   0.429   0.184  0.6538  0.2576 -0.8164
   73MOL   C26746491   5.496   0.294   0.241 -0.0992 -0.0158 -0.1104
   73MOL   C26846492   5.610   0.212   0.163 -0.3531 -0.8460  0.2092
   73MOL   C26946493   5.558   0.184   0.020  0.4840 -0.3064  0.2108
   73MOL   C27046494   5.652   0.101   7.641 -0.5127 -0.3417  0.6220
   73MOL   N27146495   5.619   7.666   7.668  0.1845 -0.0675  0.3286
   73MOL   H27246496   5.804   0.811   0.159 -0.6516  1.3547 -0.2143
   73MOL   H27346497   5.678   0.845   0.044  0.8437 -1.2591 -1.3169
   73MOL   H27446498   5.636   0.693   0.311 -1.5436  0.6905  1.6143
   73MOL   H27546499   5.643   0.863   0.308 -1.5584  0.9479 -0.4074
   73MOL   H27646500   5.436   0.868   0.152 -2.1403  0.2610 -0.0624
   73MOL   H27746501   5.409   0.797   0.305 -0.5699  0.1465  0.0078
   73MOL   H27846502   5.469   0.632   0.065 -0.7265  0.5954 -0.8572
   73MOL   H27946503   5.305   0.662   0.109 -0.2877 -1.7439  1.0746
   73MOL   H28046504   5.539   0.448   0.097  2.2010 -0.5748 -0.1805
   73MOL   H28146505   5.402   0.241   0.230  1.3110 -2.4415 -0.8720
   73MOL   H28246506   5.514   0.309   0.348  0.0442 -0.9406 -0.0010
   73MOL   H28346507   5.702   0.269   0.158 -0.6579 -0.5538 -3.5043
   73MOL   H28446508   5.629   0.128   0.229 -0.7802 -0.4422  0.8494
   73MOL   H28546509   5.539   0.283   7.681  2.5779 -0.5197 -1.3457
   73MOL   H28646510   5.460   0.136   0.018 -0.6100  1.6866  2.7268
   73MOL   H28746511   5.755   0.131   7.661  0.0840 -1.8030 -0.1838
   73MOL   H28846512   5.652   0.130   7.536  1.7856 -2.5490 -0.0320
   73MOL   H28946513   5.532   7.627   7.634 -0.1352  0.1828  0.8559
   73MOL   C29046514   5.678   7.594   0.061  0.2900  0.5321 -0.6341
   73MOL   O29146515   5.777   7.620   0.123  0.0502  0.0087 -0.4674
   73MOL   C29246516   5.603   7.464   0.092 -0.7926 -0.1083  0.1330
   73MOL   C29346517   5.504   7.479   0.203  0.1865  0.3594 -0.4882
   73MOL   C29446518   5.360   7.530   0.163 -0.6638 -0.4331 -0.4915
   73MOL   C29546519   5.268   7.437   0.077 -0.7061 -0.0476  0.4470
   73MOL   C29646520   5.284   7.458   7.631 -0.4616 -0.0491  0.3189
   73MOL   O29746521   5.328   7.558   7.580 -0.4234 -0.1287  0.1878
   73MOL   N29846522   5.252   7.355   7.555 -0.2432  0.2029  0.5186
   73MOL   C29946523   5.246   7.362   7.401 -0.7105  0.0700 -0.2764
   73MOL   C30046524   5.377   7.332   7.330 -0.4921  0.3368 -0.1154
   73MOL   C30146525   5.430   7.197   7.360 -0.0633 -0.1870  0.2512
   73MOL   C30246526   5.344   7.084   7.286  0.0162 -0.0463  0.2838
   73MOL   N30346527   5.358   7.079   7.142 -0.0234 -0.3526  0.2175
   73MOL   H30446528   5.559   7.409   0.009 -1.3758  1.7540 -0.8343
   73MOL   H30546529   5.681   7.396   0.124  0.0891  0.9033  0.1709
   73MOL   H30646530   5.487   7.385   0.257  2.5343  0.5153  0.5546
   73MOL   H30746531   5.535   7.544   0.285 -2.0108  2.5989 -1.3833
   73MOL   H30846532   5.359   7.632   0.125  0.9383 -0.4545 -0.6321
   73MOL   H30946533   5.307   7.547   0.256  0.9671 -0.6738  0.5026
   73MOL   H31046534   5.165   7.449   0.108 -0.9852  1.8731 -1.1128
   73MOL   H31146535   5.293   7.332   0.095 -0.1964 -0.0658 -0.3351
   73MOL   H31246536   5.238   7.263   7.596 -0.2105 -1.0695 -2.1974
   73MOL   H31346537   5.228   7.468   7.385  0.3122  0.5979  1.9244
   73MOL   H31446538   5.152   7.323   7.364 -0.3027 -0.5794 -0.6440
   73MOL   H31546539   5.372   7.356   7.223 -3.1300 -1.9893 -0.5730
   73MOL   H31646540   5.449   7.401   7.374 -0.0821 -0.9384  1.2312
   73MOL   H31746541   5.446   7.167   7.464 -0.0911 -0.5677  0.1449
   73MOL   H31846542   5.531   7.204   7.321 -0.2209 -1.0710 -0.3087
   73MOL   H31946543   5.238   7.088   7.311 -0.3253 -0.0815 -1.0854
   73MOL   H32046544   5.365   6.985   7.328 -0.1736 -0.4568 -0.5641
   73MOL   H32146545   5.435   7.027   7.102  0.7196  0.0222  1.1512
   73MOL   C32246546   5.273   7.153   7.068 -0.4504 -0.7907 -0.1069
   73MOL   O32346547   5.189   7.236   7.104  0.1473 -0.2580 -0.0559
   73MOL   C32446548   5.290   7.141   6.913  0.6344  0.6490 -0.3191
   73MOL   C32546549   5.335   7.274   6.847 -0.4022  0.1593 -0.0588
   73MOL   C32646550   5.482   7.317   6.868 -0.4326 -0.1848  0.1906
   73MOL   C32746551   5.541   7.422   6.773 -0.1446  0.1564  0.1017
   73MOL   C32846552   5.692   7.450   6.793 -0.1338  0.2831  0.1605
   73MOL   O32946553   5.736   7.463   6.906  0.1881  0.7688  0.7350
   73MOL   N33046554   5.773   7.462   6.685 -0.4860  0.0498 -0.5621
   73MOL   C33146555   5.903   7.521   6.689 -0.2603 -0.6078 -0.8314
   73MOL   C33246556   5.900   7.636   6.590  0.3600 -0.0737  0.3045
   73MOL   C33346557   6.028   0.020   6.593  0.2002  0.3669 -0.4938
   73MOL   C33446558   6.042   0.113   6.477 -0.8387 -0.5714 -0.1668
   73MOL   N33546559   6.179   0.158   6.475 -0.2115 -0.4105  0.3211
   73MOL   H33646560   5.356   7.056   6.898 -1.4155 -1.1863  0.8220
   73MOL   H33746561   5.199   7.102   6.868  1.2419  0.0249 -1.0206
   73MOL   H33846562   5.306   7.260   6.743 -3.0702  1.1345  0.5271
   73MOL   H33946563   5.272   7.360   6.867 -0.0212  0.0668  1.6384
   73MOL   H34046564   5.537   7.224   6.862  1.2321  0.8014 -0.0487
   73MOL   H34146565   5.498   7.351   6.971  0.0755  0.4562 -0.0971
   73MOL   H34246566   5.481   7.514   6.778 -0.2373  0.2280 -2.0817
   73MOL   H34346567   5.530   7.385   6.671  0.1913  0.4258 -0.0345
   73MOL   H34446568   5.730   7.459   6.594 -3.9571  0.1791  0.9779
   73MOL   H34546569   5.969   7.439   6.661  1.1134  0.4035 -0.5531
   73MOL   H34646570   5.944   7.550   6.785  0.5435 -0.7052 -1.1422
   73MOL   H34746571   5.892   7.590   6.492 -2.2430  0.4539  0.2345
   73MOL   H34846572   5.816   0.001   6.612  0.0647  0.2384 -1.6854
   73MOL   H34946573   6.120   7.663   6.603  0.3748  0.9809  1.8492
   73MOL   H35046574   6.017   0.069   6.689  2.8836  1.5698 -0.7548
   73MOL   H35146575   5.974   0.199   6.481  0.8323  0.7251  2.0658
   73MOL   H35246576   6.020   0.061   6.384 -0.1081 -1.6172  0.2367
   73MOL   H35346577   6.251   0.109   6.423  1.3807  1.9227  0.2606
   73MOL   C35446578   6.231   0.266   6.538  0.2192 -0.9112  0.4723
   73MOL   O35546579   6.347   0.301   6.517  0.2273  0.2277 -0.5025
   73MOL   C35646580   6.147   0.342   6.644 -0.4087  0.1893  0.2001
   73MOL   C35746581   6.057   0.457   6.589  0.7226  0.0126 -0.1239
   73MOL   C35846582   5.945   0.506   6.680  0.3076  0.3931  0.0285
   73MOL   C35946583   5.869   0.621   6.623 -0.3064  0.1203 -0.3005
   73MOL   C36046584   5.774   0.687   6.718 -0.2490 -0.6092 -0.2827
   73MOL   O36146585   5.790   0.671   6.836  0.6874 -0.3024 -0.4171
   73MOL   N36246586   5.671   0.754   6.662  0.2129  0.3844  0.0342
   73MOL   C36346587   5.579   0.835   6.740 -0.5477  0.5890 -0.4206
   73MOL   C36446588   5.433   0.812   6.708 -0.5635  0.0548  0.0767
   73MOL   C36546589   5.340   0.921   6.744  0.1257 -0.0068 -0.7851
   73MOL   C36646590   5.195   0.887   6.717 -0.4739  0.0194  0.0403
   73MOL   N36746591   5.142   0.801   6.825  0.1194  0.1408 -0.2015
   73MOL   H36846592   6.083   0.270   6.696  2.7836 -1.7374  1.6080
   73MOL   H36946593   6.215   0.374   6.723  0.2345  0.1500 -0.3423
   73MOL   H37046594   6.132   0.535   6.578  2.4925 -1.3718  1.8719
   73MOL   H37146595   6.015   0.420   6.495 -1.3276  0.0514  0.7411
   73MOL   H37246596   5.988   0.526   6.778  0.1950 -0.2457  0.2140
   73MOL   H37346597   5.870   0.429   6.701  2.0591 -0.6738  2.5334
   73MOL   H37446598   5.819   0.574   6.539  0.9687 -0.0011 -0.9982
   73MOL   H37546599   5.942   0.684   6.572  0.7776 -1.2406 -0.4398
   73MOL   H37646600   5.669   0.767   6.562 -0.3715 -0.4042 -0.0576
   73MOL   H37746601   5.603   0.936   6.708 -1.7513  0.9884 -0.1312
   73MOL   H37846602   5.614   0.827   6.843  1.7249  0.5515 -1.1703
   73MOL   H37946603   5.423   0.801   6.600  1.9739 -1.0547 -0.0910
   73MOL   H38046604   5.405   0.712   6.743 -0.0188 -0.2814 -0.4415
   73MOL   H38146605   5.383   1.007   6.693  0.1625  1.8220  2.2235
   73MOL   H38246606   5.343   0.944   6.850  0.0215  0.8991 -0.9744
   73MOL   H38346607   5.186   0.835   6.622  0.3606 -1.1777  0.6043
   73MOL   H38446608   5.135   0.977   6.711  1.6151  1.3408 -1.6214
   73MOL   H38546609   5.172   0.705   6.826  0.7255  0.3310  0.2245
   73MOL   C38646610   5.071   0.847   6.928  0.2758 -0.2372 -0.2047
   73MOL   O38746611   5.028   0.964   6.931 -0.4714 -0.6662 -0.0425
   73MOL   C38846612   5.055   0.752   7.044 -0.1198  0.6614  0.2170
   73MOL   C38946613   5.163   0.760   7.160 -0.1972 -0.1413 -0.0138
   73MOL   C39046614   5.161   0.887   7.246  0.3345  0.2363  0.1627
   73MOL   C39146615   5.272   0.890   7.346  0.0910 -0.5523 -0.0900
   73MOL   C39246616   5.246   0.981   7.472 -0.0377  0.1807 -0.7354
   73MOL   O39346617   5.130   1.003   7.510  0.6612 -0.2364 -0.2355
   73MOL   N39446618   5.360   1.020   7.529  0.2159 -0.4126  0.4811
   73MOL   C39546619   5.386   1.124   7.623 -0.1626  0.7521  0.5679
   73MOL   C39646620   5.506   1.215   7.582  0.7936  0.3240 -1.4604
   73MOL   C39746621   5.568   1.270   0.010  1.2977  0.8361 -0.4702
   73MOL   C39846622   5.476   1.351   0.099 -0.0118 -0.0962 -0.1555
   73MOL   N39946623   5.429   1.470   0.032  0.3640 -0.4802  0.3548
   73MOL   H40046624   4.956   0.763   7.088  0.9994 -0.4072  3.1476
   73MOL   H40146625   5.044   0.649   7.008 -2.3620  0.6524  0.8756
   73MOL   H40246626   5.159   0.673   7.227 -0.5129 -0.3556 -0.3129
   73MOL   H40346627   5.252   0.743   7.100 -0.8348  0.3463 -1.1017
   73MOL   H40446628   5.061   0.905   7.287  0.1559 -1.0280  0.2831
   73MOL   H40546629   5.177   0.978   7.188  0.0522  0.4778  0.4563
   73MOL   H40646630   5.367   0.916   7.299  0.8620 -0.9455  1.2103
   73MOL   H40746631   5.291   0.793   7.391 -0.7304 -0.9943 -0.6878
   73MOL   H40846632   5.451   0.987   7.500  1.1913  0.9798  1.9082
   73MOL   H40946633   5.417   1.063   0.007  1.0185 -1.6767 -1.5522
   73MOL   H41046634   5.297   1.181   7.652  0.0265  1.7573 -0.7662
   73MOL   H41146635   5.585   1.157   7.534  3.2387  2.5064 -0.1531
   73MOL   H41246636   5.489   1.298   7.513 -2.7409  0.0067 -1.0913
   73MOL   H41346637   5.648   1.335   7.678  1.3485 -0.0627 -2.1877
   73MOL   H41446638   5.609   1.181   0.058 -2.4367 -0.0459  1.3169
   73MOL   H41546639   5.517   1.361   0.200 -0.5211 -1.7164  0.2295
   73MOL   H41646640   5.390   1.289   0.124 -1.0891  0.9423 -1.1844
   73MOL   H41746641   5.355   1.457   7.666 -2.2416  1.4146  2.7267
   73MOL   C41846642   5.492   1.589   0.025 -0.2062 -0.6066  0.4670
   73MOL   O41946643   5.587   1.605   0.102  0.0921  0.3974 -0.7821
   73MOL   C42046644   5.464   1.690   7.619  0.2798  0.6969 -0.0933
   73MOL   C42146645   5.594   1.720   7.543  0.7283 -0.0542 -0.0100
   73MOL   C42246646   5.663   1.614   7.460  0.1784  0.4266  0.1113
   73MOL   C42346647   5.585   1.552   7.347  0.2521  0.1703  0.5815
   73MOL   C42446648   5.682   1.513   7.233 -0.4071  0.4587 -0.0457
   73MOL   O42546649   5.772   1.433   7.262  0.3572  0.1829 -0.1312
   73MOL   N42646650   5.667   1.558   7.105 -0.2137  0.1122 -0.6654
   73MOL   C42746651   5.755   1.509   6.995  1.0154  0.2612  0.3976
   73MOL   C42846652   5.841   1.632   6.939 -0.3850  0.3504  0.5100
   73MOL   C42946653   5.962   1.574   6.853 -0.3239 -0.0847 -0.6763
   73MOL   C43046654   6.026   1.679   6.762 -0.1929  0.2615 -0.3061
   73MOL   N43146655   6.142   1.620   6.699 -0.2686 -0.1289 -0.3424
   73MOL   H43246656   5.384   1.661   7.552  2.4540 -2.6530 -1.3613
   73MOL   H43346657   5.430   1.782   7.666 -0.2174  0.5104 -0.0919
   73MOL   H43446658   5.563   1.806   7.484  1.0047  0.0035 -0.0744
   73MOL   H43546659   5.667   1.762   7.612  1.2776 -1.1853  0.1222
   73MOL   H43646660   5.702   1.543   7.532 -1.1648 -0.5230 -0.0747
   73MOL   H43746661   5.747   1.667   7.415  0.4615 -0.4103 -0.3389
   73MOL   H43846662   5.525   1.633   7.304  1.3350  0.2090 -0.9122
   73MOL   H43946663   5.540   1.460   7.382 -0.3942  0.8547  1.5960
   73MOL   H44046664   5.582   1.606   7.079 -2.9733 -1.7459  4.1644
   73MOL   H44146665   5.696   1.458   6.919  2.8570  1.0117 -1.5717
   73MOL   H44246666   5.827   1.433   7.024 -0.3763 -0.5128  1.8930
   73MOL   H44346667   5.774   1.682   6.870  0.3260 -1.3731 -1.4923
   73MOL   H44446668   5.886   1.697   7.014 -0.1451  0.4046  0.3220
   73MOL   H44546669   5.927   1.489   6.794  3.1498 -0.7845 -1.8197
   73MOL   H44646670   6.034   1.532   6.922 -0.7382 -0.2443 -0.3405
   73MOL   H44746671   6.055   1.767   6.821  2.0861 -0.1197 -0.8102
   73MOL   H44846672   5.945   1.704   6.694 -0.1307 -0.3359 -0.5983
   73MOL   H44946673   6.229   1.663   6.728 -0.3369  0.5620 -1.1606
   73MOL   C45046674   6.146   1.533   6.591 -0.1338  0.1328  0.0227
   73MOL   O45146675   6.047   1.504   6.527  0.3937  0.2733  0.2577
   73MOL   C45246676   6.286   1.472   6.549  0.3709  0.2105  0.5754
   73MOL   C45346677   6.298   1.425   6.402 -0.5015  0.1634 -0.0277
   73MOL   C45446678   6.327   1.539   6.307 -0.1648 -0.5168 -0.2254
   73MOL   C45546679   6.311   1.505   6.154  0.4380  0.1442  0.2833
   73MOL   C45646680   6.434   1.494   6.063  0.5580 -0.0053  0.0971
   73MOL   O45746681   6.549   1.503   6.113  0.4858 -0.4099 -0.3037
   73MOL   N45846682   6.414   1.482   5.931 -0.6061  0.4880  0.1246
   73MOL   C45946683   6.516   1.486   5.825 -0.1812  0.0115  0.0603
   73MOL   C46046684   6.603   1.610   5.813 -0.0289 -1.0923  0.4986
   73MOL   C46146685   6.513   1.732   5.770  0.2819  0.0300 -0.3762
   73MOL   C46246686   6.603   1.860   5.765 -0.0266  0.0363 -0.4302
   73MOL   N46346687   6.522   1.976   5.730 -0.0578  1.0853  0.2333
   73MOL   H46446688   6.366   1.542   6.572  0.4231  1.0036 -1.9302
   73MOL   H46546689   6.298   1.384   6.613  0.6943  1.1100  1.7642
   73MOL   H46646690   6.369   1.343   6.388 -0.9892  0.0249 -1.9032
   73MOL   H46746691   6.201   1.385   6.374 -1.9581  3.0438  0.7235
   73MOL   H46846692   6.423   1.588   6.327 -0.7285  1.3873 -2.0014
   73MOL   H46946693   6.265   1.623   6.337 -0.0985 -1.0701  1.5142
   73MOL   H47046694   6.248   1.583   6.110  0.2669 -0.1441  0.0198
   73MOL   H47146695   6.267   1.407   6.139  0.3709 -0.2672  3.0171
   73MOL   H47246696   6.318   1.474   5.901 -0.0927  1.4945 -1.7964
   73MOL   H47346697   6.455   1.467   5.736  0.9520 -1.6565 -0.3962
   73MOL   H47446698   6.568   1.391   5.835  2.3851  1.3274 -0.3346
   73MOL   H47546699   6.662   1.625   5.903  2.1769 -1.8814 -0.7838
   73MOL   H47646700   6.665   1.585   5.727 -2.8485 -0.3331 -1.8417
   73MOL   H47746701   6.424   1.741   5.832 -0.2008 -2.4829 -0.6313
   73MOL   H47846702   6.464   1.713   5.674  0.0032  1.0179 -0.4343
   73MOL   H47946703   6.686   1.847   5.695  0.1702  3.7027 -0.9981
   73MOL   H48046704   6.641   1.878   5.865 -0.9808 -1.6985  0.2490
   73MOL   H48146705   6.518   1.995   5.631  1.1761 -0.7824 -0.2167
   73MOL   C48246706   6.477   2.065   5.814  0.3487  0.0888 -0.0838
   73MOL   O48346707   6.489   2.062   5.934  0.8138 -0.2606  0.0993
   73MOL   C48446708   6.397   2.182   5.747 -0.1354 -0.5399 -0.4509
   73MOL   C48546709   6.258   2.205   5.816  0.7625  0.2742  0.1440
   73MOL   C48646710   6.181   2.320   5.758  0.5256  0.1760 -0.0804
   73MOL   C48746711   6.069   2.369   5.845  0.2476  0.9008  0.4924
   73MOL   C48846712   5.923   2.311   5.813 -0.7019  0.7184  0.2629
   73MOL   O48946713   5.869   2.346   5.707  0.7643  0.5020  0.1713
   73MOL   N49046714   5.861   2.256   5.920  0.7086  0.2941  0.3053
   73MOL   C49146715   5.719   2.238   5.938  0.5059 -0.5176  0.2584
   73MOL   C49246716   5.690   2.109   6.015 -0.1090  0.0494 -0.4857
   73MOL   C49346717   5.548   2.093   6.078  1.0507  0.2467 -0.0453
   73MOL   C49446718   5.516   1.970   6.166 -0.5548 -0.2093 -0.2125
   73MOL   N49546719   5.377   1.977   6.214 -0.0882  0.0238 -0.8722
   73MOL   H49646720   6.458   2.273   5.736  0.6703 -0.8424  1.3919
   73MOL   H49746721   6.377   2.160   5.642 -0.8207 -1.9721 -0.0305
   73MOL   H49846722   6.194   2.118   5.803  0.3213  0.5871  0.2284
   73MOL   H49946723   6.279   2.222   5.921 -1.5318  0.9100  0.5234
   73MOL   H50046724   6.155   2.283   5.658 -0.1133 -2.4434  1.0096
   73MOL   H50146725   6.255   2.399   5.747 -1.4982  2.0295 -0.7778
   73MOL   H50246726   6.049   2.474   5.824  0.3806  0.9799  0.7567
   73MOL   H50346727   6.093   2.367   5.951 -0.5646 -1.7696  0.6552
   73MOL   H50446728   5.912   2.225   6.001 -1.4791 -3.8032  0.2817
   73MOL   H50546729   5.654   2.237   5.850  0.8366  0.5463 -0.0100
   73MOL   H50646730   5.684   2.318   6.003  1.9913  0.7076 -0.4116
   73MOL   H50746731   5.711   2.018   5.958 -1.7359  0.7159 -2.2044
   73MOL   H50846732   5.764   2.114   6.095  0.9940 -0.8040 -1.4374
   73MOL   H50946733   5.473   2.097   6.000  0.0026  1.8300  0.9932
   73MOL   H51046734   5.534   2.186   6.135  0.1726  2.4780 -3.7377
   73MOL   H51146735   5.584   1.950   6.249 -0.8983  0.2764  0.1884
   73MOL   H51246736   5.511   1.877   6.109 -0.2277 -0.7504  0.6228
   73MOL   H51346737   5.304   1.945   6.152 -0.2808 -0.2805 -0.4954
   73MOL   C51446738   5.330   1.987   6.341 -0.8142 -0.1028  0.1368
   73MOL   O51546739   5.411   1.992   6.437  0.4626  0.2610 -0.5481
   73MOL   C51646740   5.177   1.999   6.351  0.2561 -0.3345  0.4132
   73MOL   C51746741   5.128   2.052   6.488  0.0948 -0.3188  0.7216
   73MOL   C51846742   4.990   2.115   6.501 -0.3226  1.1822  0.4791
   73MOL   C51946743   4.872   2.029   6.446 -0.2511  0.4858 -0.2573
   73MOL   C52046744   4.801   1.938   6.547  0.5459  0.2831 -0.4436
   73MOL   O52146745   4.865   1.893   6.641  0.4253 -0.0664  0.1927
   73MOL   N52246746   4.675   1.901   6.518 -0.2294  0.0309 -0.2677
   73MOL   C52346747   4.604   1.795   6.592 -0.3626  0.0206  0.4346
   73MOL   C52446748   4.593   1.667   6.503 -0.2785  0.6878  0.1127
   73MOL   C52546749   4.735   1.589   6.485  0.3891 -0.1838  0.1906
   73MOL   C52646750   4.722   1.466   6.391  0.1031  0.0416 -0.4469
   73MOL   N52746751   4.839   1.424   6.316 -0.4107  0.1182  0.1477
   73MOL   H52846752   5.153   2.064   6.268  0.3450 -0.8191  0.0041
   73MOL   H52946753   5.132   1.902   6.327 -0.0068 -0.4117  1.2054
   73MOL   H53046754   5.124   1.974   6.565  0.8738 -0.4784  0.5972
   73MOL   H53146755   5.192   2.131   6.525 -3.0135  1.7082  1.9871
   73MOL   H53246756   4.991   2.210   6.448 -0.7776 -0.8240 -3.2913
   73MOL   H53346757   4.963   2.122   6.606  0.4819 -0.4640  0.8219
   73MOL   H53446758   4.914   1.976   6.361  0.7730  1.6306 -0.4771
   73MOL   H53546759   4.793   2.096   6.409  0.8859  1.5173 -0.8501
   73MOL   H53646760   4.631   1.956   6.445  1.3510  1.8328  0.0836
   73MOL   H53746761   4.508   1.844   6.605  0.2139  1.0087  0.9837
   73MOL   H53846762   4.650   1.766   6.687 -1.5187 -1.7468  0.4836
   73MOL   H53946763   4.524   1.600   6.555  1.2173  0.8138  2.3374
   73MOL   H54046764   4.555   1.696   6.405  0.3197 -0.0679 -0.3463
   73MOL   H54146765   4.768   1.552   6.582  0.6703 -1.5945 -0.4472
   73MOL   H54246766   4.813   1.655   6.447  1.2147 -1.2289  0.0692
   73MOL   H54346767   4.636   1.480   6.325 -1.4709  0.2783  1.5929
   73MOL   H54446768   4.689   1.389   6.462 -0.0180  2.3692  2.1052
   73MOL   H54546769   4.925   1.415   6.367 -0.1063 -1.1654 -0.5561
   73MOL   C54646770   4.839   1.375   6.189  0.5758  0.6305  0.2696
   73MOL   O54746771   4.731   1.343   6.137  0.9007 -0.2670  0.1424
   73MOL   C54846772   4.970   1.362   6.116  0.2943  0.3188 -0.2229
   73MOL   C54946773   4.986   1.481   6.022  0.1848  0.4878 -0.0774
   73MOL   C55046774   4.972   1.625   6.085  0.0514 -0.0002  0.3470
   73MOL   C55146775   4.973   1.736   5.983 -0.5923 -0.5077 -0.6996
   73MOL   C55246776   5.109   1.799   5.950 -0.1311  0.2266 -0.1879
   73MOL   O55346777   5.191   1.820   6.043 -0.5215  0.5639 -0.2471
   73MOL   N55446778   5.124   1.839   5.824 -0.2408 -0.9504 -0.1482
   73MOL   C55546779   5.236   1.914   5.775 -0.0194  0.4873 -1.0097
   73MOL   C55646780   5.204   2.062   5.751 -0.8341  0.5883  0.4519
   73MOL   C55746781   5.337   2.128   5.714  0.5081 -0.0900  0.5263
   73MOL   C55846782   5.312   2.273   5.675 -0.5990 -0.1229 -0.2608
   73MOL   N55946783   5.261   2.359   5.783  0.7798  0.1804  0.0940
   73MOL   H56046784   5.057   1.350   6.180 -0.3183 -2.1858  0.1839
   73MOL   H56146785   4.967   1.273   6.052  1.6957 -0.7775  1.1947
   73MOL   H56246786   5.086   1.466   5.982  0.5043 -0.8180  1.1592
   73MOL   H56346787   4.917   1.469   5.939 -0.9655  0.6446  0.8454
   73MOL   H56446788   5.055   1.649   6.152 -2.5296 -0.0419  3.6562
   73MOL   H56546789   4.881   1.641   6.142 -0.2093 -0.5958  0.1026
   73MOL   H56646790   4.916   1.818   6.027 -0.8372  0.1429 -2.2077
   73MOL   H56746791   4.907   1.708   5.900 -0.2469 -0.4496 -0.9951
   73MOL   H56846792   5.053   1.811   5.758 -1.0395  1.2366 -0.2776
   73MOL   H56946793   5.262   1.871   5.678 -0.1924 -0.0637 -0.8173
   73MOL   H57046794   5.320   1.904   5.844 -0.6015  0.1372 -0.3471
   73MOL   H57146795   5.141   2.066   5.661  1.8254 -0.0505 -1.4990
   73MOL   H57246796   5.142   2.094   5.835 -2.3293 -1.0314  0.0051
   73MOL   H57346797   5.375   2.066   5.633 -2.4893 -0.3972 -0.7181
   73MOL   H57446798   5.405   2.130   5.800 -0.6015  0.5990  1.4057
   73MOL   H57546799   5.248   2.271   5.587 -0.3798 -0.8442 -0.4094
   73MOL   H57646800   5.401   2.318   5.630 -1.3373  3.1319  1.3379
   73MOL   H57746801   5.162   2.378   5.781  0.9489  1.3677  2.1253
   73MOL   C57846802   5.320   2.397   5.893  0.5508  0.1970  0.5156
   73MOL   O57946803   5.443   2.386   5.913  0.2017 -0.2446  0.3302
   73MOL   C58046804   5.231   2.448   6.001 -0.3403  0.4262  0.4912
   73MOL   C58146805   5.251   2.368   6.140 -0.0541 -0.4441  0.1328
   73MOL   C58246806   5.381   2.403   6.220  0.8151  0.2866  0.4759
   73MOL   C58346807   5.378   2.519   6.317 -0.7877  0.3614  0.0400
   73MOL   C58446808   5.306   2.490   6.449 -0.6952 -0.3414 -0.1936
   73MOL   O58546809   5.326   2.385   6.510 -0.1910 -0.2143  0.0148
   73MOL   N58646810   5.220   2.589   6.485 -0.5385 -0.5807  0.5940
   73MOL   C58746811   5.156   2.604   6.610  0.1784  0.6668 -0.4685
   73MOL   C58846812   5.046   2.501   6.650  0.4472  0.1863 -0.4720
   73MOL   C58946813   4.913   2.517   6.570 -0.1651  0.4089 -0.4097
   73MOL   C59046814   4.815   2.410   6.611  0.3200  0.5352 -0.2765
   73MOL   N59146815   4.706   2.423   6.521 -0.7913 -0.2216  0.2191
   73MOL   H59246816   5.264   2.551   6.012 -1.1674  0.8556 -0.8733
   73MOL   H59346817   5.132   2.451   5.955 -0.7851  1.6425  1.5060
   73MOL   H59446818   5.173   2.400   6.209  0.2980 -0.5236  0.5766
   73MOL   H59546819   5.246   2.264   6.109 -1.8183 -0.3912  0.2295
   73MOL   H59646820   5.468   2.419   6.157 -0.4943 -1.5451 -1.9069
   73MOL   H59746821   5.401   2.313   6.278  0.4188 -0.2439 -0.2090
   73MOL   H59846822   5.327   2.603   6.272 -1.2215  0.3545  0.5070
   73MOL   H59946823   5.479   2.548   6.346 -1.5719  1.4817  1.7395
   73MOL   H60046824   5.212   2.674   6.432 -1.8390 -1.8012 -1.2203
   73MOL   H60146825   5.118   2.706   6.606 -2.1866 -0.1994 -0.6885
   73MOL   H60246826   5.244   2.610   6.674 -1.0074 -1.3602  1.4059
   73MOL   H60346827   5.084   2.400   6.642  0.7073  0.3667 -1.4761
   73MOL   H60446828   5.023   2.514   6.756  0.8362 -0.0718 -0.3596
   73MOL   H60546829   4.942   2.495   6.467 -0.4113  2.1679 -0.8689
   73MOL   H60646830   4.868   2.616   6.583 -0.2084  0.2039  1.1008
   73MOL   H60746831   4.799   2.410   6.719  1.3909  1.3446 -0.1106
   73MOL   H60846832   4.855   2.309   6.597  0.5585  0.6088 -0.1235
   73MOL   H60946833   4.718   2.451   6.425 -0.4120  0.2368  0.4000
   73MOL   C61046834   4.578   2.393   6.550  0.0459  0.2684  0.0917
   73MOL   O61146835   4.543   2.349   6.661  0.1211 -0.5922 -0.1837
   73MOL   C61246836   4.480   2.415   6.439 -0.1193 -0.1593  0.1187
   73MOL   C61346837   4.411   2.288   6.401  0.0874  0.1743 -0.0611
   73MOL   C61446838   4.502   2.170   6.346  0.1622 -0.0552  0.2584
   73MOL   C61546839   4.431   2.056   6.273  0.4553  0.1595 -0.2909
   73MOL   C61646840   4.527   1.948   6.216 -0.1607  0.1682  0.2435
   73MOL   O61746841   4.650   1.970   6.207 -0.4763 -0.4334 -0.2094
   73MOL   N61846842   4.481   1.827   6.180  0.2267  0.3137 -0.1801
   73MOL   C61946843   4.551   1.734   6.099  0.7991 -0.0303  0.6196
   73MOL   C62046844   4.509   1.750   5.953 -0.1259 -0.2463  0.1617
   73MOL   C62146845   4.566   1.881   5.883  0.4838 -0.5051  0.4346
   73MOL   C62246846   4.554   1.896   5.735  0.0974 -0.1236  0.1157
   73MOL   N62346847   4.621   2.009   5.674  0.2603  0.1269  0.6290
   73MOL   H62446848   4.404   2.484   6.475 -0.3598 -1.0079  1.2813
   73MOL   H62546849   4.524   2.455   6.347 -0.0736  0.4676  0.4142
   73MOL   H62646850   4.358   2.246   6.487  0.2283 -2.0923 -1.0555
   73MOL   H62746851   4.337   2.300   6.321 -0.4833 -1.0907  0.2596
   73MOL   H62846852   4.560   2.137   6.432  0.6637  1.5359  0.5492
   73MOL   H62946853   4.581   2.207   6.281 -0.2454 -0.0222 -0.2226
   73MOL   H63046854   4.372   2.094   6.190 -1.4970 -0.3575  0.8288
   73MOL   H63146855   4.359   2.010   6.341 -1.8539  1.6413 -1.6644
   73MOL   H63246856   4.385   1.796   6.187 -0.0772  1.1570 -0.5963
   73MOL   H63346857   4.539   1.629   6.126 -1.1739  0.2894  1.0110
   73MOL   H63446858   4.659   1.746   6.111  1.0725 -0.8854 -0.8807
   73MOL   H63546859   4.549   1.662   5.903  1.4205  0.0874  0.8009
   73MOL   H63646860   4.400   1.747   5.946 -0.2117 -0.0148  1.3687
   73MOL   H63746861   4.673   1.891   5.905  0.2452 -0.6281  1.6452
   73MOL   H63846862   4.516   1.963   5.933  1.0015 -0.3273  0.6691
   73MOL   H63946863   4.447   1.915   5.723 -0.4982 -1.6534  2.5246
   73MOL   H64046864   4.584   1.805   5.683  3.7751  0.8571  0.4215
   73MOL   H64146865   4.589   2.017   5.578  2.5506  1.5030 -0.0578
   73MOL   H64246866   4.585   2.090   5.723  0.0768  2.6619 -3.4599
   74MOL     C146867   3.157   5.382   5.408  0.1884  0.4194  0.0475
   74MOL     O246868   3.222   5.471   5.471  0.0343 -0.2376  0.0395
   74MOL     C346869   3.219   5.310   5.295 -0.4208 -1.0321 -1.0972
   74MOL     C446870   3.310   5.412   5.209 -0.4993  0.0597  0.2304
   74MOL     C546871   3.451   5.435   5.273 -0.2701  0.1273 -0.4226
   74MOL     C646872   3.543   5.308   5.259 -0.5772  0.0614 -0.6515
   74MOL     C746873   3.687   5.340   5.297 -0.4867  0.2870 -0.1711
   74MOL     O846874   3.737   5.450   5.277 -0.5983  0.5358 -0.0000
   74MOL     N946875   3.760   5.242   5.358 -0.1431  0.4747  0.2395
   74MOL    C1046876   3.898   5.255   5.407  0.0165  0.1143 -0.0361
   74MOL    C1146877   3.890   5.256   5.563  0.3605  0.2124 -0.0148
   74MOL    C1246878   4.028   5.277   5.638  0.9699 -0.3063 -0.1479
   74MOL    C1346879   4.066   5.422   5.643  0.9744 -0.9234 -0.1726
   74MOL    N1446880   4.177   5.460   5.736  1.4345  0.8920  0.4466
   74MOL    H1546881   3.281   5.228   5.332  0.5700  0.4719  0.6774
   74MOL    H1646882   3.136   5.272   5.236 -1.2587  0.3821 -0.8701
   74MOL    H1746883   3.325   5.371   5.109  0.9907  0.2117  0.3810
   74MOL    H1846884   3.269   5.513   5.205  1.0214  0.7547  1.3210
   74MOL    H1946885   3.446   5.465   5.377 -1.9599  1.9613 -1.0025
   74MOL    H2046886   3.495   5.510   5.208 -1.8502 -1.5682 -3.5941
   74MOL    H2146887   3.531   5.277   5.155 -0.3577  1.6352 -1.1702
   74MOL    H2246888   3.512   5.223   5.319  1.6144  1.3617  2.4469
   74MOL    H2346889   3.706   5.158   5.370 -2.5220  1.8964 -0.2534
   74MOL    H2446890   3.959   5.340   5.379  1.3733 -0.9378 -0.3253
   74MOL    H2546891   3.942   5.163   5.366  0.6596  0.7032 -0.6783
   74MOL    H2646892   3.815   5.325   5.601  0.2758  1.3819 -2.2205
   74MOL    H2746893   3.851   5.159   5.596  1.2877 -0.7267 -1.6107
   74MOL    H2846894   4.110   5.214   5.603  0.6035 -1.2922  0.7411
   74MOL    H2946895   4.009   5.254   5.743  2.0766  0.6161  0.2740
   74MOL    H3046896   3.982   5.479   5.683  0.2659 -0.5877 -2.0829
   74MOL    H3146897   4.097   5.462   5.547  0.4265  0.6840  0.3108
   74MOL    H3246898   4.257   5.501   5.689  0.0137  0.5313 -2.3908
   74MOL    H3346899   3.060   5.341   5.438  0.3792  1.6686  2.4901
   74MOL    C3446900   4.164   5.476   5.872  0.4872  0.1292  0.5493
   74MOL    O3546901   4.056   5.450   5.927 -0.1291 -0.1462 -0.0787
   74MOL    C3646902   4.280   5.524   5.952  0.5828 -0.0207  0.4692
   74MOL    C3746903   4.369   5.409   6.014 -0.3338  0.9062 -0.0157
   74MOL    C3846904   4.296   5.336   6.134  0.3484  0.0721 -0.4135
   74MOL    C3946905   4.381   5.240   6.219  0.6336  0.0457  0.5459
   74MOL    C4046906   4.507   5.307   6.266 -0.7445  0.1652 -0.0784
   74MOL    O4146907   4.503   5.422   6.314  0.1155 -0.1490  0.5094
   74MOL    N4246908   4.618   5.233   6.263  0.3718  1.0305 -0.4630
   74MOL    C4346909   4.754   5.284   6.302  1.1307 -0.0862  0.3367
   74MOL    C4446910   4.769   5.318   6.449 -0.6053 -0.1449  0.0176
   74MOL    C4546911   4.765   5.194   6.538  0.7635  0.1786 -0.0484
   74MOL    C4646912   4.806   5.234   6.682 -0.0971  0.0608  0.6438
   74MOL    N4746913   4.806   5.128   6.777 -0.0995 -0.6047 -0.6967
   74MOL    H4846914   4.334   5.582   5.878 -2.4765  0.4278 -1.4993
   74MOL    H4946915   4.244   5.597   6.024  0.0419 -2.8198  3.1780
   74MOL    H5046916   4.386   5.340   5.932  1.6238 -0.1422  1.2250
   74MOL    H5146917   4.458   5.469   6.032 -1.6800  2.8609  0.3158
   74MOL    H5246918   4.198   5.295   6.108 -0.1303 -0.4973  2.1991
   74MOL    H5346919   4.273   5.412   6.207  3.1562 -0.1340  0.7434
   74MOL    H5446920   4.403   5.151   6.160  1.2903 -0.3634  1.3926
   74MOL    H5546921   4.317   5.197   6.295 -0.3996  0.1810 -0.2311
   74MOL    H5646922   4.617   5.138   6.230  0.5128  0.4995  1.0255
   74MOL    H5746923   4.775   5.374   6.244  0.3276  1.6327  2.6162
   74MOL    H5846924   4.818   5.204   6.266  0.7892 -0.5288  0.7017
   74MOL    H5946925   4.856   5.383   6.456 -0.8968  0.2585 -0.1104
   74MOL    H6046926   4.695   5.395   6.470  0.7895  1.5662 -1.2467
   74MOL    H6146927   4.826   5.119   6.487 -1.4529 -1.6886 -0.0333
   74MOL    H6246928   4.664   5.154   6.547  1.4471 -1.1918  1.6834
   74MOL    H6346929   4.746   5.317   6.721  0.3282  0.7950 -0.2360
   74MOL    H6446930   4.908   5.269   6.665 -0.2468  0.1059 -0.1865
   74MOL    H6546931   4.746   5.049   6.757 -2.9770  0.9661  1.3624
   74MOL    C6646932   4.878   5.121   6.886 -0.5967 -0.0844 -0.0961
   74MOL    O6746933   4.967   5.209   6.909  0.2751  0.6217 -0.4532
   74MOL    C6846934   4.855   5.002   6.985 -0.3923 -1.0694  0.5071
   74MOL    C6946935   4.882   5.040   7.138 -0.0827 -0.4293  0.1722
   74MOL    C7046936   4.876   4.919   7.233 -0.1098  0.0695  0.2137
   74MOL    C7146937   4.831   4.951   7.379 -0.2758 -0.1331 -0.1505
   74MOL    C7246938   4.890   4.857   7.486 -0.0655  0.2626  0.3357
   74MOL    O7346939   5.002   4.801   7.491 -0.2758  0.3386  0.6189
   74MOL    N7446940   4.801   4.842   7.590 -0.1202  0.1106  0.4618
   74MOL    C7546941   4.834   4.771   0.005 -0.1931  0.7890  0.0026
   74MOL    C7646942   4.942   4.834   0.093  0.0542 -0.2617 -0.1997
   74MOL    C7746943   4.993   4.730   0.194 -0.3146  0.5296  0.1897
   74MOL    C7846944   5.069   4.601   0.154 -0.0552  0.3320  1.0599
   74MOL    N7946945   5.137   4.633   0.030 -0.0841 -0.2705  0.6884
   74MOL    H8046946   4.748   4.984   6.979 -0.6213  0.5519 -0.7868
   74MOL    H8146947   4.904   4.909   6.956  0.5514 -0.1316 -1.0155
   74MOL    H8246948   4.969   5.103   7.156 -0.6668  0.4848 -0.1751
   74MOL    H8346949   4.800   5.106   7.166 -0.2702 -0.8221  0.5559
   74MOL    H8446950   4.972   4.867   7.233 -0.3060 -0.5127  4.0899
   74MOL    H8546951   4.800   4.856   7.187  0.6626 -0.8039  0.1035
   74MOL    H8646952   4.722   4.955   7.387 -0.1596  1.8929  0.5110
   74MOL    H8746953   4.872   5.047   7.409  0.1258 -0.2435 -0.3382
   74MOL    H8846954   4.714   4.893   7.590  0.8457  1.8658 -2.0710
   74MOL    H8946955   4.857   4.673   7.664 -0.0864  1.0809 -0.6208
   74MOL    H9046956   4.736   4.758   0.052  0.8472 -2.9437  1.3335
   74MOL    H9146957   5.028   4.873   0.038  1.4672  0.1922  2.2375
   74MOL    H9246958   4.902   4.926   0.135  0.0516 -0.2630 -0.1989
   74MOL    H9346959   4.896   4.696   0.231 -0.3418  0.6993  0.2796
   74MOL    H9446960   5.041   4.777   0.280  1.5310  1.6928 -1.4357
   74MOL    H9546961   4.998   4.518   0.144 -0.7460  0.9026  1.1884
   74MOL    H9646962   5.138   4.561   0.228 -1.1676 -0.2374  1.7917
   74MOL    H9746963   5.088   4.684   7.659  0.3071  0.8306  1.1896
   74MOL    C9846964   5.272   4.633   0.020 -0.7915  0.0193  0.5437
   74MOL    O9946965   5.343   4.598   0.116 -0.0806  0.0396 -0.4779
   74MOL   C10046966   5.333   4.691   7.587 -0.5812 -0.5388 -0.1427
   74MOL   C10146967   5.489   4.729   7.588  0.1351 -0.1559  0.0641
   74MOL   C10246968   5.518   4.859   7.671  0.3440 -0.0332  0.3750
   74MOL   C10346969   5.490   4.992   7.601 -0.5510 -0.1621  0.3945
   74MOL   C10446970   5.610   5.038   7.524  0.4967  0.5881  0.3742
   74MOL   O10546971   5.706   5.074   7.584 -0.4002  0.1065 -0.2913
   74MOL   N10646972   5.595   5.038   7.391 -0.4412 -0.2098 -0.1869
   74MOL   C10746973   5.693   5.094   7.302  0.3573 -0.7071  0.9087
   74MOL   C10846974   5.825   5.017   7.295  0.1989 -0.2688 -0.6239
   74MOL   C10946975   5.802   4.873   7.245 -0.2112  0.6244 -0.1642
   74MOL   C11046976   5.912   4.772   7.269  0.5196 -1.0232  0.0030
   74MOL   N11146977   6.036   4.814   7.210 -0.6452  0.1913  0.5182
   74MOL   H11246978   5.329   4.608   7.517 -1.1587 -0.2061 -0.5001
   74MOL   H11346979   5.279   4.769   7.533  1.4635  2.7980  2.3788
   74MOL   H11446980   5.561   4.663   7.638 -1.2616 -1.9562 -0.2457
   74MOL   H11546981   5.527   4.756   7.490 -0.0440 -0.2771 -0.0384
   74MOL   H11646982   5.618   4.866   0.013  0.0323  0.2733  1.0337
   74MOL   H11746983   5.459   4.853   0.061  1.4857 -1.2968  1.0532
   74MOL   H11846984   5.455   5.063   7.676 -1.6677 -2.3544  2.0296
   74MOL   H11946985   5.405   4.984   7.533 -0.0573  1.9699 -0.5015
   74MOL   H12046986   5.514   5.001   7.344 -1.8766  2.1319  0.3532
   74MOL   H12146987   5.707   5.201   7.315  0.2762 -0.6977  0.9127
   74MOL   H12246988   5.643   5.086   7.205  1.9108 -1.9298  0.1839
   74MOL   H12346989   5.887   5.072   7.224 -0.0778 -0.4976 -1.0457
   74MOL   H12446990   5.878   5.013   7.390  1.2969 -4.0967 -1.3172
   74MOL   H12546991   5.786   4.854   7.139 -0.7683  0.0565  0.0181
   74MOL   H12646992   5.714   4.822   7.284 -0.3812 -0.8240 -2.3500
   74MOL   H12746993   5.884   4.671   7.238  2.1029 -0.8932 -1.9313
   74MOL   H12846994   5.921   4.759   7.377  0.5868 -1.8383 -0.0952
   74MOL   H12946995   6.054   4.914   7.207 -2.4098  0.5198  0.4540
   74MOL   C13046996   6.136   4.728   7.174 -0.1770  0.1873  0.0289
   74MOL   O13146997   6.129   4.606   7.187 -0.1925 -0.4129 -0.5036
   74MOL   C13246998   6.267   4.784   7.126 -1.1115  1.1436 -0.0661
   74MOL   C13346999   6.259   4.858   6.989  0.0030 -1.1354  0.9190
   74MOL   C13447000   6.394   4.920   6.950  0.0342 -0.8395 -0.3224
   74MOL   C13547001   6.412   4.956   6.801 -0.7181  0.0180 -0.1790
   74MOL   C13647002   6.298   5.028   6.732  0.1364  0.7478 -0.4337
   74MOL   O13747003   6.231   5.108   6.795 -0.7233 -0.1924 -0.3683
   74MOL   N13847004   6.286   5.016   6.600  0.0063  0.5526 -0.0906
   74MOL   C13947005   6.174   5.066   6.518  0.0653 -0.2344 -0.7487
   74MOL   C14047006   6.215   5.058   6.368  0.2312 -0.3093 -0.0938
   74MOL   C14147007   6.101   5.090   6.269 -0.1038 -0.1195  0.0349
   74MOL   C14247008   6.155   5.075   6.124  0.4380  0.9692 -0.5101
   74MOL   N14347009   6.038   5.116   6.036  0.2650 -0.6837  0.6619
   74MOL   H14447010   6.317   4.841   7.204 -0.9577  0.5626  0.2635
   74MOL   H14547011   6.341   4.704   7.115 -2.0724  0.5049 -2.1200
   74MOL   H14647012   6.213   4.800   6.910  0.5430 -0.7488  0.3146
   74MOL   H14747013   6.195   4.946   6.995  0.0771 -1.0235  0.0846
   74MOL   H14847014   6.478   4.854   6.975 -1.1596 -2.0031  0.6802
   74MOL   H14947015   6.418   5.004   7.015 -0.1734 -1.6414  0.8022
   74MOL   H15047016   6.422   4.853   6.767  1.6389 -0.2856  1.2549
   74MOL   H15147017   6.506   5.009   6.786 -0.9373  0.4641  0.0199
   74MOL   H15247018   6.356   4.962   6.551 -0.0726  1.0216 -0.7148
   74MOL   H15347019   6.154   5.167   6.553 -0.7025  0.0008 -1.8349
   74MOL   H15447020   6.084   5.004   6.524 -0.4133  0.5815  1.0799
   74MOL   H15547021   6.301   5.121   6.343  0.9153 -0.7764  1.0250
   74MOL   H15647022   6.239   4.953   6.355 -0.8772 -0.4374 -1.1218
   74MOL   H15747023   6.053   5.184   6.293 -1.6620 -0.4149 -1.8852
   74MOL   H15847024   6.027   5.011   6.284  0.8834 -0.5624  3.0758
   74MOL   H15947025   6.174   4.968   6.111 -0.7305  0.4510  1.7297
   74MOL   H16047026   6.246   5.131   6.104 -0.2360  2.4883  0.5307
   74MOL   H16147027   5.945   5.091   6.065 -0.4113 -1.4962 -2.0180
   74MOL   C16247028   6.058   5.185   5.918  0.0865  0.1581 -0.8341
   74MOL   O16347029   6.167   5.221   5.879  0.2203 -0.3183 -0.3532
   74MOL   C16447030   5.927   5.224   5.844 -0.4613 -0.2914  0.8927
   74MOL   C16547031   5.920   5.337   5.745 -0.4004 -0.3967  0.9771
   74MOL   C16647032   5.969   5.484   5.787  0.6428  0.1897  0.9269
   74MOL   C16747033   5.865   5.557   5.874 -0.7453 -0.4502 -0.6555
   74MOL   C16847034   5.869   5.537   6.025  0.0048  0.1060 -0.0091
   74MOL   O16947035   5.975   5.553   6.083  0.1615  0.1040 -0.1619
   74MOL   N17047036   5.755   5.495   6.087  0.4868  0.2020  0.2107
   74MOL   C17147037   5.740   5.456   6.231 -0.6184 -0.9848 -0.0813
   74MOL   C17247038   5.765   5.312   6.249  0.0127 -0.1122 -0.5794
   74MOL   C17347039   5.747   5.287   6.402  0.3334 -0.4925 -0.3483
   74MOL   C17447040   5.754   5.132   6.426 -0.2558 -0.5396 -0.2961
   74MOL   N17547041   5.634   5.052   6.376 -0.2124 -0.5118  0.4479
   74MOL   H17647042   5.897   5.136   5.786  3.4110 -1.4478  0.5305
   74MOL   H17747043   5.852   5.241   5.921  0.2560 -2.1784  2.0386
   74MOL   H17847044   5.987   5.312   5.662 -0.3124  1.8456  0.3474
   74MOL   H17947045   5.821   5.336   5.701  0.0220 -1.2381  0.0107
   74MOL   H18047046   5.990   5.544   5.699 -0.4457  0.3340  0.7477
   74MOL   H18147047   6.065   5.469   5.836  1.1204 -1.4635 -0.4356
   74MOL   H18247048   5.769   5.529   5.832 -1.3608  1.6271 -0.7162
   74MOL   H18347049   5.861   5.664   5.852 -1.1915 -0.2978  0.1254
   74MOL   H18447050   5.667   5.486   6.038  1.5519 -0.9799 -1.5189
   74MOL   H18547051   5.639   5.486   6.258 -0.6505 -0.4902 -0.7310
   74MOL   H18647052   5.807   5.512   6.296 -1.3760  0.5940 -0.6498
   74MOL   H18747053   5.689   5.260   6.191  0.2254  1.7244 -2.5560
   74MOL   H18847054   5.865   5.282   6.217  0.3644  1.5653 -1.0924
   74MOL   H18947055   5.655   5.326   6.445  0.9009 -0.1867  0.6179
   74MOL   H19047056   5.832   5.333   6.453 -0.2797 -2.2033  2.2854
   74MOL   H19147057   5.755   5.127   6.535  1.2329  2.3616 -0.1192
   74MOL   H19247058   5.848   5.085   6.395 -2.1788 -2.3310 -3.6651
   74MOL   H19347059   5.650   5.006   6.288 -1.6118 -2.3397  1.0962
   74MOL   C19447060   5.507   5.058   6.422 -0.0274 -0.2168  0.8983
   74MOL   O19547061   5.485   5.087   6.538 -0.2186  0.0648  0.0562
   74MOL   C19647062   5.400   5.010   6.318  0.1591  0.1305 -0.1348
   74MOL   C19747063   5.258   5.053   6.358  0.5168  0.4637 -0.1101
   74MOL   C19847064   5.220   5.196   6.314  0.1888  0.5104 -0.4782
   74MOL   C19947065   5.292   5.320   6.384 -0.1337  0.3656 -0.1892
   74MOL   C20047066   5.220   5.346   6.518  0.0642  0.1203 -0.0574
   74MOL   O20147067   5.114   5.407   6.524  0.1494  0.6482  0.2408
   74MOL   N20247068   5.273   5.286   6.622 -0.0795 -1.1346 -0.2834
   74MOL   C20347069   5.204   5.279   6.746 -0.1261 -0.1718 -0.0462
   74MOL   C20447070   5.295   5.276   6.865  0.1798 -0.0882  0.3462
   74MOL   C20547071   5.368   5.152   6.896  0.1398 -0.0849 -0.0447
   74MOL   C20647072   5.279   5.031   6.918 -0.7168 -0.0922  0.6622
   74MOL   N20747073   5.356   4.910   6.957 -0.0576  0.1053  0.6552
   74MOL   H20847074   5.427   5.048   6.220 -1.8348 -0.6046 -0.9853
   74MOL   H20947075   5.418   4.903   6.308 -0.3189  0.0381 -0.0059
   74MOL   H21047076   5.190   4.984   6.308  1.4452  0.4125 -1.3333
   74MOL   H21147077   5.258   5.035   6.465 -1.5238 -2.8133 -0.5741
   74MOL   H21247078   5.112   5.206   6.325  0.3719  2.0133  0.0596
   74MOL   H21347079   5.238   5.192   6.206  2.8937 -2.2620  0.0261
   74MOL   H21447080   5.286   5.413   6.327 -0.9641  1.9676  2.4047
   74MOL   H21547081   5.400   5.307   6.399 -0.6467 -2.4954  1.3759
   74MOL   H21647082   5.353   5.228   6.601 -0.0617 -1.7293  1.3931
   74MOL   H21747083   5.147   5.188   6.733 -0.8522  0.5383 -1.9485
   74MOL   H21847084   5.130   5.357   6.764  2.1044  1.9062  0.4906
   74MOL   H21947085   5.349   5.371   6.870 -2.0950  1.1561  1.8641
   74MOL   H22047086   5.217   5.282   6.940  0.8437  0.7977  0.9797
   74MOL   H22147087   5.428   5.171   6.985  0.4832  1.1444 -0.5243
   74MOL   H22247088   5.448   5.128   6.826  0.1111 -0.5074  0.0671
   74MOL   H22347089   5.243   5.013   6.816  0.4544  2.6115 -0.2736
   74MOL   H22447090   5.192   5.053   6.979 -0.1524  2.9358  0.4591
   74MOL   H22547091   5.341   4.825   6.906 -0.0276 -0.7913  2.1068
   74MOL   C22647092   5.413   4.884   7.079 -0.3596 -0.3721  0.2666
   74MOL   O22747093   5.419   4.956   7.174 -0.6086  0.3917 -0.4446
   74MOL   C22847094   5.471   4.751   7.096  0.2832 -0.0057 -0.3648
   74MOL   C22947095   5.383   4.676   7.192 -0.2301  0.4151  0.0680
   74MOL   C23047096   5.267   4.603   7.121  1.0150  0.0844 -0.3179
   74MOL   C23147097   5.187   4.512   7.215  0.1601  0.1020  0.7638
   74MOL   C23247098   5.265   4.387   7.260  0.5963 -0.0699  0.1208
   74MOL   O23347099   5.353   4.391   7.340  0.1781 -0.3077 -0.3190
   74MOL   N23447100   5.216   4.272   7.217  0.1685  0.3749  0.1222
   74MOL   C23547101   5.273   4.144   7.244  0.3361 -0.0153 -0.6322
   74MOL   C23647102   5.178   4.029   7.226 -0.3161 -0.5350  0.0389
   74MOL   C23747103   5.223   3.902   7.300  0.3523 -0.0833  0.2360
   74MOL   C23847104   5.369   3.858   7.276  0.5906  0.5214 -0.0276
   74MOL   N23947105   5.396   3.823   7.137  0.3064 -0.1197 -0.5071
   74MOL   H24047106   5.499   4.701   7.003  2.7367 -0.0410  0.3549
   74MOL   H24147107   5.569   4.772   7.140  0.6267  0.8958 -1.5176
   74MOL   H24247108   5.450   4.599   7.229 -0.9138 -0.8976 -1.3930
   74MOL   H24347109   5.343   4.736   7.274  0.1830  0.1235  0.4889
   74MOL   H24447110   5.295   4.566   7.023 -0.5317 -1.5314 -0.1609
   74MOL   H24547111   5.201   4.689   7.104  1.3675  0.4757  0.2601
   74MOL   H24647112   5.090   4.481   7.175  0.3428 -1.1484  1.2696
   74MOL   H24747113   5.169   4.566   7.308  0.7176 -0.0790  0.9775
   74MOL   H24847114   5.150   4.282   7.141 -1.4820  0.2172  1.5134
   74MOL   H24947115   5.301   4.146   7.349 -1.1462  0.7495 -0.2447
   74MOL   H25047116   5.366   4.134   7.188  0.4308 -0.4418 -0.3982
   74MOL   H25147117   5.076   4.053   7.258  0.4516  0.1954  1.9801
   74MOL   H25247118   5.168   4.011   7.119  0.1948 -0.0543 -0.0896
   74MOL   H25347119   5.164   3.821   7.255 -0.4952  1.7383 -2.0780
   74MOL   H25447120   5.206   3.900   7.407 -0.2971 -2.8755  0.1077
   74MOL   H25547121   5.388   3.766   7.332  0.4107 -2.1013 -4.0347
   74MOL   H25647122   5.447   3.926   7.308  0.5405 -0.6703  2.7176
   74MOL   H25747123   5.328   3.757   7.101  0.0485  0.0101 -0.2584
   74MOL   C25847124   5.480   3.881   7.054  0.5611  0.6784 -0.1646
   74MOL   O25947125   5.559   3.976   7.084  0.0202 -0.4415 -0.6092
   74MOL   C26047126   5.465   3.828   6.915 -0.1108  0.2302 -0.3843
   74MOL   C26147127   5.476   3.933   6.792  0.1225 -0.6338 -0.0900
   74MOL   C26247128   5.610   4.016   6.779  0.3920  0.5044  0.1730
   74MOL   C26347129   5.617   4.113   6.662  0.0248  0.1379  0.4517
   74MOL   C26447130   5.731   4.206   6.643 -0.4045  0.1576  0.7298
   74MOL   O26547131   5.712   4.330   6.642  0.3635 -0.0239 -0.4998
   74MOL   N26647132   5.858   4.152   6.631 -0.7047 -0.2752  0.4478
   74MOL   C26747133   5.967   4.221   6.572  0.2240 -0.0179 -0.0454
   74MOL   C26847134   6.106   4.167   6.587  0.2926 -0.3518  0.9500
   74MOL   C26947135   6.207   4.253   6.512 -0.4310 -0.0156 -0.7644
   74MOL   C27047136   6.348   4.196   6.497 -0.0330  0.3820 -0.3629
   74MOL   N27147137   6.449   4.287   6.454  0.6178 -0.5039 -0.0466
   74MOL   H27247138   5.535   3.745   6.909  0.5515  0.5457  2.1626
   74MOL   H27347139   5.367   3.783   6.901  0.2753 -1.0584  0.9119
   74MOL   H27447140   5.463   3.878   6.699 -0.5429 -2.8730  1.3017
   74MOL   H27547141   5.389   3.999   6.790 -0.4973 -1.4579 -1.7645
   74MOL   H27647142   5.693   3.946   6.786 -0.6633 -0.8107 -0.2998
   74MOL   H27747143   5.624   4.078   6.867 -0.0108 -1.4205  1.6102
   74MOL   H27847144   5.531   4.179   6.670 -0.7605 -1.0335  2.0500
   74MOL   H27947145   5.615   4.044   6.577 -0.9892  0.5919  0.1091
   74MOL   H28047146   5.866   4.052   6.627  0.3975 -0.1154 -1.9072
   74MOL   H28147147   5.968   4.317   6.624 -2.3857 -0.4386  0.8759
   74MOL   H28247148   5.955   4.232   6.465  0.0445  1.0467  0.0847
   74MOL   H28347149   6.138   4.153   6.690  0.8778  0.7881  0.9331
   74MOL   H28447150   6.119   4.071   6.538  0.4958 -0.4536  1.2030
   74MOL   H28547151   6.207   4.350   6.562  0.8093 -0.7284  0.6465
   74MOL   H28647152   6.175   4.276   6.410 -0.5691  2.0680 -0.2797
   74MOL   H28747153   6.350   4.111   6.428  0.4685  0.9273 -1.0227
   74MOL   H28847154   6.374   4.140   6.587  0.6178  0.4343 -0.5157
   74MOL   H28947155   6.476   4.355   6.523  0.1146  0.1734 -0.5084
   74MOL   C29047156   6.497   4.302   6.327  0.8607 -0.0223  0.7041
   74MOL   O29147157   6.480   4.232   6.228 -0.1800 -0.4922  0.0352
   74MOL   C29247158   6.592   4.419   6.323  0.1970 -0.4498 -0.5885
   74MOL   C29347159   6.525   4.540   6.282  0.2978 -0.1510  0.5032
   74MOL   C29447160   6.444   4.598   6.401  0.0649  0.0861  0.8154
   74MOL   C29547161   6.412   4.742   6.373  0.8248 -0.2831 -0.6167
   74MOL   C29647162   6.513   4.845   6.419  0.8177 -0.6679  0.2351
   74MOL   O29747163   6.552   4.848   6.535  0.9977  0.2141 -0.3718
   74MOL   N29847164   6.555   4.938   6.330 -0.8456 -0.7229  0.2619
   74MOL   C29947165   6.655   5.046   6.352  0.5100  0.3594 -0.1812
   74MOL   C30047166   6.596   5.177   6.412  0.3884 -0.5180  0.0817
   74MOL   C30147167   6.698   5.268   6.483  0.0816 -0.2739 -0.3637
   74MOL   C30247168   6.643   5.401   6.535  0.0164 -0.0349  0.2722
   74MOL   N30347169   6.556   5.385   6.644  0.2852  0.0384  0.1952
   74MOL   H30447170   6.654   4.420   6.413 -0.9714  1.6481  0.2142
   74MOL   H30547171   6.677   4.406   6.257  1.6293 -1.1313  1.3299
   74MOL   H30647172   6.600   4.614   6.254  1.2650 -1.5828 -0.6881
   74MOL   H30747173   6.470   4.519   6.191  1.1277  1.2862 -0.3429
   74MOL   H30847174   6.507   4.595   6.490 -0.7418  0.0677  1.3908
   74MOL   H30947175   6.356   4.538   6.422 -1.2052  2.0535  1.2561
   74MOL   H31047176   6.317   4.767   6.420  1.1736  0.9199 -0.5271
   74MOL   H31147177   6.389   4.749   6.266 -3.0239  0.9703  0.2296
   74MOL   H31247178   6.540   4.900   6.238  1.5364  0.1444 -0.5169
   74MOL   H31347179   6.689   5.074   6.252  0.1597  0.4494 -0.2781
   74MOL   H31447180   6.740   5.015   6.412  1.3656  2.9039  0.0001
   74MOL   H31547181   6.538   5.222   6.332  0.3477 -0.3622  0.1989
   74MOL   H31647182   6.532   5.137   6.491 -0.5923 -2.5862 -1.6943
   74MOL   H31747183   6.778   5.290   6.412  0.1364 -0.8267 -0.4742
   74MOL   H31847184   6.758   5.218   6.559  3.0176 -1.6535 -3.4625
   74MOL   H31947185   6.596   5.453   6.452  0.9581  1.1293  0.4500
   74MOL   H32047186   6.718   5.480   6.543  0.2194 -0.2241  0.2631
   74MOL   H32147187   6.459   5.388   6.615  0.1775  1.6783  0.7110
   74MOL   C32247188   6.578   5.363   6.774  0.4594  0.1450  0.5131
   74MOL   O32347189   6.698   5.343   6.809  0.2409  0.4318  0.0441
   74MOL   C32447190   6.456   5.348   6.865 -0.5213  0.2518 -0.2698
   74MOL   C32547191   6.318   5.406   6.818 -0.4519 -0.2172  0.3963
   74MOL   C32647192   6.299   5.555   6.842  0.4981 -0.0181  0.1679
   74MOL   C32747193   6.396   5.662   6.786  0.1420  0.3729 -0.1816
   74MOL   C32847194   6.367   5.798   6.837 -0.4640  0.3303 -0.3340
   74MOL   O32947195   6.279   5.820   6.923 -0.3570  0.1180 -0.2453
   74MOL   N33047196   6.456   5.894   6.808 -0.5367  0.7935  0.5141
   74MOL   C33147197   6.457   6.027   6.867  0.2305 -0.0521  0.1104
   74MOL   C33247198   6.490   6.125   6.755 -0.0342  0.7436 -0.3999
   74MOL   C33347199   6.366   6.163   6.666  0.2555  0.0003 -0.3795
   74MOL   C33447200   6.396   6.265   6.551 -0.2022  0.0920  0.2415
   74MOL   N33547201   6.486   6.371   6.596  0.3860 -0.4873 -0.5490
   74MOL   H33647202   6.454   5.240   6.877 -0.7012  0.2584 -0.2385
   74MOL   H33747203   6.475   5.395   6.962  0.6483 -1.2159  0.2285
   74MOL   H33847204   6.298   5.382   6.713  0.1769 -0.5985  0.3632
   74MOL   H33947205   6.244   5.347   6.871 -0.0987  0.7576  1.9951
   74MOL   H34047206   6.303   5.573   6.949 -0.1191 -0.6766  0.3033
   74MOL   H34147207   6.201   5.595   6.813  0.9989 -0.0454 -1.6677
   74MOL   H34247208   6.384   5.688   6.681  0.2671  0.1257 -0.2588
   74MOL   H34347209   6.501   5.638   6.803  0.3339  1.5241  0.2816
   74MOL   H34447210   6.529   5.877   6.741 -0.2256  1.2636  0.7387
   74MOL   H34547211   6.531   6.027   6.946 -0.1681 -1.0223  0.4955
   74MOL   H34647212   6.352   6.044   6.892  0.2539  1.2292 -0.5963
   74MOL   H34747213   6.513   6.219   6.804  0.1598 -0.2626  1.4878
   74MOL   H34847214   6.581   6.095   6.703  0.1571 -0.4046  0.5790
   74MOL   H34947215   6.276   6.201   6.714  1.2093  0.9404  0.6830
   74MOL   H35047216   6.323   6.082   6.606  1.1767 -1.3716  0.7817
   74MOL   H35147217   6.303   6.306   6.513 -1.0764 -1.8826  0.2244
   74MOL   H35247218   6.442   6.212   6.468 -0.3005 -3.0226  2.0847
   74MOL   H35347219   6.576   6.345   6.633  0.2106 -0.9499 -0.4442
   74MOL   C35447220   6.452   6.495   6.617  1.0626  0.0889 -0.5473
   74MOL   O35547221   6.340   6.544   6.586 -0.2032  0.2344 -0.0558
   74MOL   C35647222   6.566   6.584   6.674  0.1137  0.3044  0.2991
   74MOL   C35747223   6.511   6.717   6.724 -0.2348 -0.0020  0.2471
   74MOL   C35847224   6.605   6.798   6.805 -0.3700 -0.3244  0.2558
   74MOL   C35947225   6.605   6.750   6.952 -0.5175  0.3537 -0.3732
   74MOL   C36047226   6.472   6.769   7.024  0.0139  0.0075 -0.1328
   74MOL   O36147227   6.412   6.876   7.008  0.4300 -0.3782  0.4218
   74MOL   N36247228   6.414   6.662   7.084  0.6221  0.5094  0.1330
   74MOL   C36347229   6.272   6.656   7.124  0.3155 -0.2751 -0.2729
   74MOL   C36447230   6.203   6.538   7.055  0.1619 -0.2022  0.2794
   74MOL   C36547231   6.191   6.548   6.908 -0.4107  0.9343  0.1422
   74MOL   C36647232   6.131   6.673   6.857  0.3959  0.8188  0.0279
   74MOL   N36747233   6.135   6.676   6.712  0.4932  0.1919  0.2839
   74MOL   H36847234   6.598   6.528   6.763 -2.1486  1.5319  1.9388
   74MOL   H36947235   6.652   6.600   6.609 -1.4838 -1.2161 -2.2652
   74MOL   H37047236   6.476   6.769   6.635  0.3377 -0.5516 -0.3030
   74MOL   H37147237   6.421   6.699   6.782 -0.1112 -1.0207  0.1402
   74MOL   H37247238   6.567   6.900   6.800  0.2697 -0.0917  0.0559
   74MOL   H37347239   6.708   6.799   6.769  0.5572  1.3274  2.8394
   74MOL   H37447240   6.681   6.798   7.014  0.1622 -3.1654  1.6295
   74MOL   H37547241   6.637   6.647   6.940  1.1541  0.7407  0.6878
   74MOL   H37647242   6.463   6.575   7.097 -2.7641 -1.2669  1.3978
   74MOL   H37747243   6.231   6.756   7.110  0.2254 -0.1798  0.6941
   74MOL   H37847244   6.279   6.645   7.232  0.3263  1.9940 -0.0176
   74MOL   H37947245   6.252   6.447   7.089 -0.0507 -0.1378  0.7624
   74MOL   H38047246   6.100   6.538   7.090  0.0515  0.2681 -0.0415
   74MOL   H38147247   6.132   6.466   6.867  0.4927  0.5105 -0.3176
   74MOL   H38247248   6.291   6.525   6.873 -0.9336  1.8008 -2.0192
   74MOL   H38347249   6.199   6.756   6.877  0.3112  1.5077 -2.3152
   74MOL   H38447250   6.032   6.694   6.895  0.3184 -1.7524  1.3465
   74MOL   H38547251   6.224   6.643   6.678  0.6406 -0.4085  1.2366
   74MOL   C38647252   6.033   6.708   6.637  0.4974 -0.0352  0.2700
   74MOL   O38747253   5.932   6.762   6.677  0.0747 -0.2953  0.1558
   74MOL   C38847254   6.037   6.670   6.488 -0.0181  0.5705  0.7691
   74MOL   C38947255   6.089   6.787   6.393  0.1282  0.4510  0.3844
   74MOL   C39047256   5.976   6.891   6.363 -0.2842  0.1456  0.3652
   74MOL   C39147257   6.003   6.973   6.238  0.1352  0.4610 -0.1560
   74MOL   C39247258   5.969   6.910   6.101 -0.8805 -0.5903 -0.3482
   74MOL   O39347259   5.932   6.793   6.093  0.4060  0.0574  0.0725
   74MOL   N39447260   5.984   6.985   5.999  0.0864  0.0845  0.1977
   74MOL   C39547261   5.943   6.949   5.868 -0.7449 -0.5884 -0.3446
   74MOL   C39647262   5.963   7.059   5.767 -0.1076 -0.3245  0.2354
   74MOL   C39747263   6.111   7.079   5.724 -0.1684 -0.2791 -0.2285
   74MOL   C39847264   6.125   7.177   5.605  0.1839  0.4744 -0.4948
   74MOL   N39947265   6.266   7.186   5.573  0.3261  0.3395  0.0691
   74MOL   H40047266   6.111   6.590   6.492  0.9069  1.3685 -0.2123
   74MOL   H40147267   5.945   6.627   6.448  0.9478 -1.3159  0.5298
   74MOL   H40247268   6.172   6.837   6.444  1.3038  1.7042 -2.6107
   74MOL   H40347269   6.122   6.749   6.297 -0.1417 -0.6886  0.7432
   74MOL   H40447270   5.974   6.958   6.449 -1.6658 -0.7974  1.0802
   74MOL   H40547271   5.878   6.846   6.373  0.2574 -1.1242  0.1336
   74MOL   H40647272   6.106   7.010   6.239  0.2981  0.1187 -1.7571
   74MOL   H40747273   5.937   7.059   6.228 -1.8747 -1.1958 -1.7528
   74MOL   H40847274   6.025   7.075   6.020 -1.1617  0.3044  1.7662
   74MOL   H40947275   5.836   6.928   5.874 -0.9580  0.1043 -1.6622
   74MOL   H41047276   5.987   6.852   5.843  1.4402  0.5957 -1.2165
   74MOL   H41147277   5.916   7.018   5.677 -2.1650 -1.2644  1.6981
   74MOL   H41247278   5.908   7.148   5.797  0.4764  0.2150 -0.2736
   74MOL   H41347279   6.152   6.984   5.688 -0.3338 -0.5358  0.2528
   74MOL   H41447280   6.168   7.113   5.810  2.1410 -0.2891 -1.7269
   74MOL   H41547281   6.079   7.266   5.646 -0.1662 -0.2567  0.7336
   74MOL   H41647282   6.072   7.146   5.515  0.0839 -0.9223  0.0179
   74MOL   H41747283   6.314   7.103   5.542  2.4413  0.4278  2.9334
   74MOL   C41847284   6.345   7.297   5.584  0.0357  0.0677  0.0127
   74MOL   O41947285   6.294   7.400   5.632 -0.5346  0.2655  0.3543
   74MOL   C42047286   6.495   7.288   5.548 -0.4342  0.6646  0.0922
   74MOL   C42147287   6.563   7.429   5.550  0.0430  0.3440  0.2486
   74MOL   C42247288   6.713   7.414   5.508 -0.1904  0.3362  0.7265
   74MOL   C42347289   6.817   7.525   5.539 -0.1761  0.1014 -0.5686
   74MOL   C42447290   6.956   7.503   5.479  0.9718 -0.3034 -0.3801
   74MOL   O42547291   6.971   7.451   5.373  0.1064  0.0009 -0.1519
   74MOL   N42647292   7.065   7.546   5.549  0.1421  0.0791 -0.1114
   74MOL   C42747293   7.205   7.514   5.523 -0.1107  0.1749 -0.0399
   74MOL   C42847294   7.261   7.423   5.635  0.1328 -0.8074 -0.4343
   74MOL   C42947295   7.412   7.380   5.614 -0.6336 -0.1389 -0.4883
   74MOL   C43047296   7.485   7.339   5.741 -0.1213 -0.0549 -0.4073
   74MOL   N43147297   7.404   7.232   5.804  0.2843  0.1675  0.1122
   74MOL   H43247298   6.543   7.226   5.624 -3.0136 -2.0897 -0.4275
   74MOL   H43347299   6.505   7.244   5.448  0.1913  0.6468  0.1576
   74MOL   H43447300   6.512   7.491   5.476  0.0872 -0.4149 -0.4405
   74MOL   H43547301   6.558   7.484   5.643 -0.8307 -0.6240  0.7814
   74MOL   H43647302   6.721   7.415   5.400  1.4406  1.0356  0.8482
   74MOL   H43747303   6.751   7.316   5.538 -1.7378 -0.3053  0.6749
   74MOL   H43847304   6.830   7.540   5.646 -1.1012 -1.2470 -0.2577
   74MOL   H43947305   6.786   7.622   5.499 -2.3142  0.4100  1.7142
   74MOL   H44047306   7.049   7.596   5.636 -1.1265 -0.5095  0.0115
   74MOL   H44147307   7.266   7.603   5.508 -0.6214  0.6266  0.5173
   74MOL   H44247308   7.209   7.454   5.432 -1.9405 -2.4763  1.5640
   74MOL   H44347309   7.260   7.473   5.732 -2.1420 -0.1374 -0.7706
   74MOL   H44447310   7.204   7.332   5.651 -0.0053 -0.2810  2.2640
   74MOL   H44547311   7.465   7.468   5.577  0.6918 -1.2972 -1.3585
   74MOL   H44647312   7.435   7.306   5.538  1.1731  1.7170 -1.7852
   74MOL   H44747313   7.513   7.427   5.798 -0.1861  0.7956 -1.6570
   74MOL   H44847314   7.584   7.297   5.719 -0.7567 -1.2649 -1.0248
   74MOL   H44947315   7.345   7.265   5.880 -1.9934  1.1364 -1.9992
   74MOL   C45047316   7.429   7.103   5.802  0.4843  0.8871 -0.1425
   74MOL   O45147317   7.504   7.056   5.713  0.2879 -0.6177  0.4270
   74MOL   C45247318   7.358   7.011   5.895 -0.2216  0.2289  0.2021
   74MOL   C45347319   7.450   6.912   5.973 -0.2079 -0.5887 -0.2499
   74MOL   C45447320   7.366   6.802   6.039  0.2088  0.2773  0.2638
   74MOL   C45547321   7.430   6.700   6.123  0.1680 -0.0350 -0.5737
   74MOL   C45647322   7.554   6.642   6.063  0.1197 -0.3982 -0.3719
   74MOL   O45747323   7.669   6.677   6.103 -0.5956  0.2700 -0.2665
   74MOL   N45847324   7.538   6.548   5.969 -0.1878 -0.8420 -0.4102
   74MOL   C45947325   7.647   6.470   5.906  0.0579  0.0298 -0.0244
   74MOL   C46047326   7.685   6.515   5.770  0.1381 -0.1756  0.2675
   74MOL   C46147327   0.033   6.661   5.765 -0.2149  0.2829  0.2866
   74MOL   C46247328   0.180   6.688   5.777 -0.5775  0.6835 -0.6054
   74MOL   N46347329   0.230   6.641   5.909  0.3049  0.2098 -0.0228
   74MOL   H46447330   7.296   7.065   5.968 -0.8821  0.5296 -0.5679
   74MOL   H46547331   7.290   6.948   5.838  0.3712 -2.1872  2.0717
   74MOL   H46647332   7.527   6.877   5.905 -0.5842 -0.0535 -0.9640
   74MOL   H46747333   7.490   6.987   6.041 -0.8654  0.8545 -1.3931
   74MOL   H46847334   7.301   6.755   5.966  0.1812  0.9149 -0.1263
   74MOL   H46947335   7.288   6.855   6.094  0.2383  0.8799 -0.2716
   74MOL   H47047336   7.362   6.616   6.141  1.7711 -1.7138 -2.0942
   74MOL   H47147337   7.440   6.726   6.229  1.4269  2.5324 -1.2859
   74MOL   H47247338   7.446   6.528   5.932 -0.8020  0.9786  0.0947
   74MOL   H47347339   7.614   6.366   5.906  1.5940 -0.5189 -2.7229
   74MOL   H47447340   0.030   6.480   5.974 -1.9182  1.3216  2.3289
   74MOL   H47547341   0.064   6.453   5.728 -1.0597 -1.8045  0.3137
   74MOL   H47647342   7.591   6.500   5.717  0.4008  2.7631 -1.1300
   74MOL   H47747343   7.671   6.735   5.814  0.1013  1.6167 -1.2836
   74MOL   H47847344   0.011   6.695   5.664 -1.2487 -1.6134 -0.1604
   74MOL   H47947345   0.205   6.794   5.765 -1.3623  0.8186 -1.1382
   74MOL   H48047346   0.236   6.641   5.697  1.6496 -0.2719  1.4634
   74MOL   H48147347   0.162   6.632   5.983 -2.3439  1.4776 -2.2147
   74MOL   C48247348   0.360   6.615   5.934  0.6210 -0.2656 -0.4502
   74MOL   O48347349   0.446   6.619   5.843 -0.6625  0.7673  0.5001
   74MOL   C48447350   0.392   6.563   6.073 -0.7175  0.6369  0.1494
   74MOL   C48547351   0.428   6.413   6.048  0.2096  0.1108 -0.2425
   74MOL   C48647352   0.304   6.321   6.021 -0.4189  0.1979  0.6787
   74MOL   C48747353   0.338   6.174   6.023  0.6326 -0.2049  0.9103
   74MOL   C48847354   0.229   6.082   5.983  0.2453  0.4362 -0.0999
   74MOL   O48947355   0.135   6.121   5.914  0.2884  0.2554  0.1576
   74MOL   N49047356   0.241   5.953   6.015  0.3858 -0.3431 -0.6797
   74MOL   C49147357   0.146   5.849   5.989 -0.3848 -0.0525 -0.4381
   74MOL   C49247358   0.216   5.715   5.977 -0.0181  0.6571 -0.3158
   74MOL   C49347359   0.122   5.613   5.928 -0.2049 -0.0056  0.7789
   74MOL   C49447360   0.180   5.480   5.887  0.4733 -0.6043  0.5541
   74MOL   N49547361   0.279   5.499   5.780 -0.2239  0.0928  0.2058
   74MOL   H49647362   0.485   6.617   6.092 -0.1203 -1.4298  3.5503
   74MOL   H49747363   0.317   6.576   6.152 -0.3207 -0.7455  0.7686
   74MOL   H49847364   0.498   6.400   5.966  1.8293  0.0787  1.1178
   74MOL   H49947365   0.475   6.375   6.139 -2.3461  1.6443  1.8136
   74MOL   H50047366   0.269   6.334   5.919  2.9724 -2.3678 -0.8888
   74MOL   H50147367   0.227   6.350   6.093  0.8708  3.1296  0.9345
   74MOL   H50247368   0.360   6.146   6.126 -0.3959 -1.0744  0.9002
   74MOL   H50347369   0.410   6.149   5.946 -1.5010 -1.7027 -0.6450
   74MOL   H50447370   0.309   5.922   6.082 -1.1267  1.5246  1.7996
   74MOL   H50547371   0.105   5.871   5.890  0.2068  0.1522 -0.6386
   74MOL   H50647372   0.069   5.847   6.067  0.3218  0.3754  0.2717
   74MOL   H50747373   0.289   5.729   5.898  2.0694 -2.7907  0.8657
   74MOL   H50847374   0.263   5.677   6.068 -2.5255 -1.9019  0.0060
   74MOL   H50947375   0.061   5.658   5.849 -0.3285  0.0299  0.8939
   74MOL   H51047376   0.063   5.587   6.016  1.1075  1.5305  2.1495
   74MOL   H51147377   0.100   5.414   5.853  0.4067 -0.0384 -0.4157
   74MOL   H51247378   0.239   5.434   5.965  3.5828  0.2667 -1.2016
   74MOL   H51347379   0.319   5.591   5.765 -2.7036  1.1624 -0.0249
   74MOL   C51447380   0.302   5.408   5.685  0.1093 -0.5546 -0.7569
   74MOL   O51547381   0.265   5.293   5.698  0.1981  0.0950  0.5504
   74MOL   C51647382   0.380   5.451   5.557  0.3141 -0.3217  0.0064
   74MOL   C51747383   0.306   5.419   5.429 -0.2032 -0.8638 -0.3629
   74MOL   C51847384   0.362   5.483   5.300  0.4656  0.1260 -0.1630
   74MOL   C51947385   0.457   5.395   5.222  0.0558 -0.2418 -0.3940
   74MOL   C52047386   0.600   5.408   5.288 -0.1344  0.0847 -0.3174
   74MOL   O52147387   0.637   5.337   5.383 -0.8483 -0.1231  0.4340
   74MOL   N52247388   0.675   5.508   5.246 -0.4095  0.1787  0.2844
   74MOL   C52347389   0.805   5.558   5.307  0.1461  0.5705 -0.1089
   74MOL   C52447390   0.810   5.704   5.354 -0.2329  0.0801 -0.5715
   74MOL   C52547391   0.690   5.747   5.441  0.4725  0.1219  0.4309
   74MOL   C52647392   0.703   5.898   5.480  0.4221  0.2363 -0.0990
   74MOL   N52747393   0.589   5.939   5.567  0.3295 -0.3624  0.2783
   74MOL   H52847394   0.398   5.559   5.564 -0.4485 -0.1400 -0.6972
   74MOL   H52947395   0.479   5.406   5.562  0.6876  0.3779 -0.8047
   74MOL   H53047396   0.301   5.310   5.422  1.9078 -0.9665 -0.6287
   74MOL   H53147397   0.205   5.455   5.448 -0.4614 -1.3767 -0.7579
   74MOL   H53247398   0.418   5.575   5.321 -0.2428  0.3430  0.8392
   74MOL   H53347399   0.282   5.507   5.231 -0.5040  1.7896  1.4633
   74MOL   H53447400   0.467   5.417   5.115  0.6414 -3.2701 -1.0145
   74MOL   H53547401   0.431   5.290   5.232  0.4034 -0.4022 -1.0808
   74MOL   H53647402   0.652   5.557   5.161 -0.8227 -0.2031  0.1730
   74MOL   H53747403   0.883   5.558   5.231 -0.4128  1.5860 -0.6905
   74MOL   H53847404   0.832   5.491   5.389 -1.6127  1.6608  1.4045
   74MOL   H53947405   0.897   5.713   5.419  0.0744 -0.9468 -0.8264
   74MOL   H54047406   0.819   5.762   5.262  0.6231 -0.7932 -1.0415
   74MOL   H54147407   0.669   5.683   5.527  1.7829 -1.0487 -0.0936
   74MOL   H54247408   0.610   5.739   5.368  1.0264 -2.1494  0.0244
   74MOL   H54347409   0.702   5.960   5.390  1.0906 -1.2518 -1.1717
   74MOL   H54447410   0.796   5.911   5.536  1.1410 -2.4924 -0.5892
   74MOL   H54547411   0.621   5.973   5.656  0.3857 -2.2613  1.0230
   74MOL   C54647412   0.457   5.946   5.535 -0.0702  0.7206 -0.0344
   74MOL   O54747413   0.405   5.902   5.435 -0.2004 -0.1924  0.6773
   74MOL   C54847414   0.372   6.033   5.638 -0.1699 -0.0811  0.5810
   74MOL   C54947415   0.301   6.157   5.579  0.4848 -0.3040 -0.8718
   74MOL   C55047416   0.411   6.263   5.534  0.0033 -0.2475 -0.5947
   74MOL   C55147417   0.498   6.319   5.649 -0.0963 -0.3875  0.0206
   74MOL   C55247418   0.618   6.398   5.612  0.2507 -1.4629  0.9789
   74MOL   O55347419   0.696   6.360   5.528 -0.8764 -0.4762  0.5079
   74MOL   N55447420   0.631   6.519   5.672  0.3852  0.0278 -0.0736
   74MOL   C55547421   0.741   6.610   5.659  0.4756 -1.0085  0.0596
   74MOL   C55647422   0.778   6.670   5.793  0.2144  0.8418  0.0556
   74MOL   C55747423   0.913   6.738   5.795 -0.2470  0.9551  0.5068
   74MOL   C55847424   0.923   6.873   5.723  0.4730 -0.4068 -0.2197
   74MOL   N55947425   1.056   6.920   5.718 -0.5519 -0.0553  0.1043
   74MOL   H56047426   0.295   5.966   5.675 -1.1407  0.9956  0.5298
   74MOL   H56147427   0.434   6.054   5.725  0.0044  1.7957  0.0229
   74MOL   H56247428   0.251   6.148   5.482  1.4444 -1.1151 -1.3068
   74MOL   H56347429   0.230   6.193   5.653  1.1732  0.2341 -0.4690
   74MOL   H56447430   0.371   6.345   5.473  0.5070  1.4613  1.3284
   74MOL   H56547431   0.477   6.214   5.462 -2.3500 -0.9332 -2.3539
   74MOL   H56647432   0.538   6.241   5.714 -1.0082 -1.7487 -1.0401
   74MOL   H56747433   0.440   6.389   5.708 -1.3567 -0.5043 -1.0669
   74MOL   H56847434   0.554   6.541   5.734 -1.1924 -2.2662 -1.1410
   74MOL   H56947435   0.730   6.693   5.589 -0.5098 -3.4052 -2.7598
   74MOL   H57047436   0.831   6.559   5.624  1.4304 -0.9832  2.4167
   74MOL   H57147437   0.699   6.736   5.831 -0.7285 -0.2313 -0.0022
   74MOL   H57247438   0.772   6.586   5.863  0.9160  0.3421 -0.4825
   74MOL   H57347439   0.976   6.662   5.748 -2.5365 -1.9967  2.1040
   74MOL   H57447440   0.938   6.752   5.900  2.5820  1.4027 -0.1656
   74MOL   H57547441   0.858   6.936   5.783  1.0344 -1.8379  1.9257
   74MOL   H57647442   0.883   6.865   5.622 -0.3576  1.4985 -0.0611
   74MOL   H57747443   1.116   6.853   5.764  0.0363 -0.0298 -0.6173
   74MOL   C57847444   1.108   7.029   5.651  0.1147 -0.5080  0.1979
   74MOL   O57947445   1.046   7.113   5.587  0.1060 -0.1501  0.1677
   74MOL   C58047446   1.262   7.039   5.654  0.6532  0.3769 -0.3105
   74MOL   C58147447   1.328   7.139   5.564 -0.2782  0.3833 -0.4158
   74MOL   C58247448   1.341   7.086   5.420  0.4710 -0.4204 -0.2933
   74MOL   C58347449   1.341   7.190   5.304  0.4229 -0.1465 -0.5634
   74MOL   C58447450   1.440   7.309   5.316 -0.9446  0.1003  0.6560
   74MOL   O58547451   1.409   7.425   5.279  0.0549  0.6617  0.2918
   74MOL   N58647452   1.571   7.274   5.340 -0.0975 -0.3249 -0.0892
   74MOL   C58747453   1.675   7.371   5.359  0.6367 -0.0159  0.1446
   74MOL   C58847454   1.805   7.318   5.424 -0.0507  0.3944  0.1899
   74MOL   C58947455   1.855   7.184   5.367 -0.3529  0.1884 -0.1025
   74MOL   C59047456   2.003   7.179   5.404  0.4708  1.1034  0.4498
   74MOL   N59147457   2.056   7.050   5.353  0.4042 -0.1117  0.2136
   74MOL   H59247458   1.282   7.072   5.756  0.7803 -0.7640  0.0387
   74MOL   H59347459   1.305   6.939   5.645  2.5764  0.9942  1.5451
   74MOL   H59447460   1.279   7.236   5.569  0.4780  0.7742 -0.4765
   74MOL   H59547461   1.430   7.148   5.603 -0.7947 -1.3463  1.4652
   74MOL   H59647462   1.261   7.018   5.391  0.7456 -0.6327 -0.5460
   74MOL   H59747463   1.420   7.012   5.417 -2.5814 -3.9282  1.0539
   74MOL   H59847464   1.237   7.222   5.309  0.7958  0.8375  1.4164
   74MOL   H59947465   1.356   7.143   5.206  1.1919  0.8882 -0.9628
   74MOL   H60047466   1.596   7.176   5.335 -0.1078 -0.3678  0.5928
   74MOL   H60147467   1.645   7.454   5.422  1.9860 -1.7953  3.2827
   74MOL   H60247468   1.700   7.408   5.260  1.9792  0.3294  0.6107
   74MOL   H60347469   1.883   7.388   5.395  0.5031 -1.0184 -1.7864
   74MOL   H60447470   1.796   7.311   5.533  0.2505  1.7288  0.3151
   74MOL   H60547471   1.836   7.186   5.260 -0.7380  0.5215 -0.0297
   74MOL   H60647472   1.793   7.103   5.406 -0.0334 -0.2854 -0.5757
   74MOL   H60747473   2.011   7.186   5.513 -0.7671  2.3017  0.4856
   74MOL   H60847474   2.057   7.269   5.373 -0.0756  0.7501 -1.6035
   74MOL   H60947475   2.075   7.033   5.255  1.3109  2.0364 -0.0206
   74MOL   C61047476   2.061   6.935   5.426 -0.3123 -0.2261  0.3159
   74MOL   O61147477   2.041   6.937   5.548 -0.2362  0.1460  0.1084
   74MOL   C61247478   2.110   6.809   5.350 -0.9788  0.0027  0.2707
   74MOL   C61347479   2.230   6.727   5.407  0.8872 -0.6736 -0.1069
   74MOL   C61447480   2.359   6.812   5.422 -0.6327  0.3385  0.5371
   74MOL   C61547481   2.471   6.718   5.472 -0.4782  0.0952 -0.0764
   74MOL   C61647482   2.456   6.673   5.613  0.4285  0.2060 -0.0045
   74MOL   O61747483   2.403   6.743   5.694  0.0865  0.1678 -0.7038
   74MOL   N61847484   2.503   6.550   5.641 -0.6273 -0.5060 -0.5055
   74MOL   C61947485   2.509   6.490   5.769  0.1363  0.3463  0.2317
   74MOL   C62047486   2.637   6.525   5.845 -0.2156  0.1014 -0.2476
   74MOL   C62147487   2.657   6.437   5.970 -0.0001 -0.9697 -0.7133
   74MOL   C62247488   2.787   6.448   6.037 -0.4598  0.0514 -0.3672
   74MOL   N62347489   2.808   6.567   6.109 -0.0503  0.2701 -0.5140
   74MOL   H62447490   2.026   6.739   5.340  0.8450 -2.2127  0.0652
   74MOL   H62547491   2.131   6.819   5.244  1.9629  0.1492  0.8327
   74MOL   H62647492   2.191   6.703   5.506  1.0965  0.0766  0.1583
   74MOL   H62747493   2.255   6.642   5.345  1.4087  0.3354 -1.2945
   74MOL   H62847494   2.343   6.891   5.495 -2.2000 -0.3058  0.8920
   74MOL   H62947495   2.388   6.861   5.329 -1.0568 -1.1152 -0.3771
   74MOL   H63047496   2.563   6.777   5.464  0.0521 -0.8863 -1.2238
   74MOL   H63147497   2.497   6.632   5.411 -2.0278 -1.5505  1.5486
   74MOL   H63247498   2.521   6.488   5.564  1.6795 -1.9015  1.0664
   74MOL   H63347499   2.514   6.382   5.755 -0.9140 -0.0122  2.5061
   74MOL   H63447500   2.424   6.518   5.830  0.3018  1.0099  0.1643
   74MOL   H63547501   2.730   6.512   5.789 -0.0169  2.1759 -0.4397
   74MOL   H63647502   2.642   6.632   5.867  0.2850  0.1244 -0.4699
   74MOL   H63747503   2.649   6.334   5.937  1.2871 -1.3920  0.2560
   74MOL   H63847504   2.570   6.455   6.034  0.5052  1.3243 -0.6055
   74MOL   H63947505   2.869   6.436   5.967  0.2642  0.0996  0.4653
   74MOL   H64047506   2.788   6.361   6.103  0.9058  2.4676  2.9543
   74MOL   H64147507   2.802   6.645   6.045  0.5048  1.7600  1.2393
   74MOL   H64247508   2.734   6.575   6.178 -0.8067  0.1693 -1.2977
   75MOL     C147509   7.607   2.771   7.295  0.3551 -0.3152 -0.0970
   75MOL     O247510   7.658   2.710   7.204  0.4852  0.3917  0.0832
   75MOL     C347511   7.638   2.914   7.334 -0.1909  0.5603  0.3916
   75MOL     C447512   0.072   2.969   7.289  0.0263  0.9685  0.5064
   75MOL     C547513   0.183   2.884   7.366  0.0943 -0.3031 -1.1254
   75MOL     C647514   0.322   2.942   7.361  0.4049 -0.2574  0.5234
   75MOL     C747515   0.335   3.072   7.437  0.6130 -0.2982  0.1810
   75MOL     O847516   0.267   3.100   7.530 -0.0639  0.0163  0.2059
   75MOL     N947517   0.434   3.149   7.387 -0.0058  0.0737 -0.2630
   75MOL    C1047518   0.450   3.289   7.440 -0.3495  0.6006  0.4317
   75MOL    C1147519   0.538   3.304   7.567  0.6463 -0.6465 -0.0121
   75MOL    C1247520   0.560   3.449   7.626  0.3330 -0.1958  0.4406
   75MOL    C1347521   0.643   3.449   0.059  0.6415  0.1554 -0.2912
   75MOL    N1447522   0.784   3.389   0.032  0.6210 -0.6165 -0.1841
   75MOL    H1547523   7.549   2.971   7.308 -0.0339  0.7319  0.2209
   75MOL    H1647524   7.630   2.914   7.443 -4.7122  1.5273  0.1736
   75MOL    H1747525   0.091   2.964   7.182 -0.5642 -4.2173  0.5203
   75MOL    H1847526   0.068   3.075   7.313 -1.4954  0.7520  1.2775
   75MOL    H1947527   0.191   2.786   7.320  2.1691  0.0121 -1.4714
   75MOL    H2047528   0.142   2.861   7.464 -1.0258  0.1876 -1.4674
   75MOL    H2147529   0.364   2.950   7.261  2.6984 -1.6786  1.3337
   75MOL    H2247530   0.375   2.865   7.417  0.7859 -1.5366 -1.5586
   75MOL    H2347531   0.495   3.114   7.314 -0.6043 -0.3789 -0.5451
   75MOL    H2447532   0.354   3.337   7.458  0.2217  1.7280  0.5470
   75MOL    H2547533   0.509   3.345   7.367 -0.4074 -0.7173 -0.6446
   75MOL    H2647534   0.487   3.251   7.648  0.0540 -0.6181 -0.3679
   75MOL    H2747535   0.631   3.246   7.569  0.3518 -1.1159  0.6704
   75MOL    H2847536   0.467   3.503   7.639  0.4797  0.7367 -2.1270
   75MOL    H2947537   0.600   3.514   7.548  0.7997 -0.5619  0.3679
   75MOL    H3047538   0.588   3.392   0.134  1.8320  0.3236  0.7337
   75MOL    H3147539   0.654   3.548   0.102  2.8179  1.1563 -2.9580
   75MOL    H3247540   0.786   3.349   7.641 -2.0634 -0.9654 -0.1306
   75MOL    H3347541   7.526   2.731   7.356  1.8765 -2.2403  0.7189
   75MOL    C3447542   0.875   3.351   0.125 -0.1382 -0.3912  0.2259
   75MOL    O3547543   0.965   3.265   0.092 -0.4368 -0.0678  0.8458
   75MOL    C3647544   0.866   3.422   0.261  0.2362  0.1020 -0.1528
   75MOL    C3747545   0.868   3.328   0.384 -0.0417  0.0814  0.2642
   75MOL    C3847546   0.739   3.257   0.422  0.2308  0.1403 -0.3952
   75MOL    C3947547   0.738   3.233   0.574 -0.1577  0.2982 -0.3370
   75MOL    C4047548   0.608   3.163   0.626  0.0142  0.3602 -0.0497
   75MOL    O4147549   0.522   3.111   0.553  0.1694  0.1780  0.3003
   75MOL    N4247550   0.604   3.158   0.758 -0.2374 -0.0562 -0.1273
   75MOL    C4347551   0.489   3.097   0.827 -0.7776  0.4006 -0.0864
   75MOL    C4447552   0.378   3.195   0.885  0.2528 -0.2997  0.8913
   75MOL    C4547553   0.437   3.318   0.958  0.5739 -0.5132  0.1667
   75MOL    C4647554   0.320   3.399   1.024 -0.5967 -0.1182  0.4679
   75MOL    N4747555   0.260   3.325   1.135 -0.5041  0.0352 -0.2626
   75MOL    H4847556   0.946   3.494   0.276 -0.6381  0.6153  2.2277
   75MOL    H4947557   0.775   3.483   0.261  1.1914  1.5350  1.0499
   75MOL    H5047558   0.949   3.256   0.378 -0.5332 -0.4911  0.4299
   75MOL    H5147559   0.896   3.387   0.471 -0.6052 -1.4215  1.4814
   75MOL    H5247560   0.733   3.174   0.351 -1.9421 -0.5719  0.5723
   75MOL    H5347561   0.659   3.328   0.402 -0.5376 -0.3882  0.7093
   75MOL    H5447562   0.751   3.322   0.635 -0.6309  0.2137 -0.1117
   75MOL    H5547563   0.818   3.165   0.606  0.3070  1.5300  1.1727
   75MOL    H5647564   0.676   3.189   0.822 -0.0382 -0.3935 -0.1840
   75MOL    H5747565   0.532   3.050   0.915 -0.5893 -0.0235 -0.4020
   75MOL    H5847566   0.435   3.020   0.772 -2.8718  1.5166  0.3412
   75MOL    H5947567   0.306   3.221   0.807  1.7053  0.1701 -0.3088
   75MOL    H6047568   0.317   3.133   0.951 -2.4286  2.5587  1.2399
   75MOL    H6147569   0.487   3.382   0.886 -2.5718  1.7453 -0.0880
   75MOL    H6247570   0.518   3.300   1.030  0.2498 -0.5641  0.5203
   75MOL    H6347571   0.234   3.427   0.963 -0.0598 -0.2865 -0.3783
   75MOL    H6447572   0.362   3.492   1.062 -0.7596 -0.5202  1.6650
   75MOL    H6547573   0.321   3.272   1.195  0.1794  0.1984 -0.8141
   75MOL    C6647574   0.128   3.321   1.166  0.0398  0.0496  0.6587
   75MOL    O6747575   0.047   3.374   1.091 -0.0171  0.2550  0.4637
   75MOL    C6847576   0.075   3.243   1.283 -0.3865 -0.5452 -0.3544
   75MOL    C6947577   7.698   3.314   1.394 -0.6010  0.1101  0.4428
   75MOL    C7047578   0.087   3.394   1.483  0.0416  0.3567  0.0990
   75MOL    C7147579   0.013   3.481   1.590  0.5706 -0.5603  0.0285
   75MOL    C7247580   0.106   3.545   1.700  0.2389 -0.4196 -0.4246
   75MOL    O7347581   0.228   3.540   1.681  0.2637  0.1166 -0.6166
   75MOL    N7447582   0.046   3.608   1.801 -0.0526 -0.1417  0.5227
   75MOL    C7547583   0.110   3.693   1.902 -0.0211 -0.2868 -0.4408
   75MOL    C7647584   0.181   3.608   2.006  0.0313  0.4829  0.3833
   75MOL    C7747585   0.083   3.523   2.091 -0.5893  0.2799  0.3019
   75MOL    C7847586   0.145   3.456   2.211  0.2642 -0.1054  0.0702
   75MOL    N7947587   0.070   3.337   2.235  0.5072  0.0754 -0.2020
   75MOL    H8047588   0.002   3.173   1.242 -0.6758  1.0063 -2.5796
   75MOL    H8147589   0.155   3.178   1.320 -0.4976 -0.1537  0.5781
   75MOL    H8247590   7.620   3.368   1.341 -1.7036 -3.7153 -2.0500
   75MOL    H8347591   7.650   3.239   1.457  0.0691  0.2903  1.1776
   75MOL    H8447592   0.167   3.455   1.441 -0.0957  1.2580  1.1222
   75MOL    H8547593   0.143   3.318   1.537 -0.0512 -0.0413 -0.3636
   75MOL    H8647594   7.639   3.420   1.639 -0.0022 -1.4039 -1.8326
   75MOL    H8747595   7.654   3.561   1.548  0.7702 -0.5114 -0.1648
   75MOL    H8847596   7.647   3.598   1.807 -0.1046  1.1715  2.4170
   75MOL    H8947597   0.042   3.762   1.952  1.4173 -0.2262  1.4825
   75MOL    H9047598   0.196   3.745   1.859 -0.9339  0.3618 -1.5202
   75MOL    H9147599   0.257   3.548   1.958 -1.8172 -2.2836  0.8201
   75MOL    H9247600   0.230   3.678   2.074  0.1519 -1.7329  2.6392
   75MOL    H9347601   0.029   3.451   2.029 -0.3558 -0.5952  1.1090
   75MOL    H9447602   0.012   3.590   2.140  0.0187  0.2473  1.2209
   75MOL    H9547603   0.171   3.512   2.300  1.1738  0.5994 -0.6240
   75MOL    H9647604   0.236   3.410   2.173  0.5326  0.9712 -0.6109
   75MOL    H9747605   0.070   3.260   2.169 -2.6821 -1.3327  1.3186
   75MOL    C9847606   7.701   3.313   2.347 -0.6466  0.7578 -0.1364
   75MOL    O9947607   7.681   3.403   2.433  0.1554  0.1038  0.5456
   75MOL   C10047608   7.654   3.174   2.364  0.3183  0.1292  0.3243
   75MOL   C10147609   7.500   3.159   2.363  0.6374  0.2776 -0.0916
   75MOL   C10247610   7.458   3.033   2.445 -0.2103  0.1247 -0.0904
   75MOL   C10347611   7.305   3.007   2.464  0.1449  0.5077  0.3317
   75MOL   C10447612   7.232   2.944   2.343 -0.8088  0.5121  0.0218
   75MOL   O10547613   7.270   2.961   2.229  0.1855  0.1971  0.0831
   75MOL   N10647614   7.135   2.861   2.379  0.0693 -0.4169 -0.1441
   75MOL   C10747615   7.068   2.773   2.286 -0.1819  0.4569  0.3177
   75MOL   C10847616   7.155   2.651   2.267  0.3286  0.3805 -0.0357
   75MOL   C10947617   7.087   2.530   2.194  0.2842 -0.4398  0.7860
   75MOL   C11047618   6.965   2.476   2.273 -0.7427  0.9620  0.2757
   75MOL   N11147619   6.921   2.350   2.214  0.3467 -0.3601 -0.2490
   75MOL   H11247620   7.698   3.098   2.298  0.7446 -0.9201  1.7805
   75MOL   H11347621   7.691   3.153   2.465 -1.3024 -0.0293  0.8885
   75MOL   H11447622   7.456   3.254   2.392  0.4872  0.5955 -1.3031
   75MOL   H11547623   7.475   3.148   2.257  0.7846  1.6198 -0.2642
   75MOL   H11647624   7.517   3.041   2.536 -0.5511  0.0174  0.1424
   75MOL   H11747625   7.501   2.942   2.403  2.7681 -0.1893  3.3983
   75MOL   H11847626   7.252   3.096   2.500 -0.8825  0.1397 -0.2349
   75MOL   H11947627   7.295   2.937   2.547 -0.6535 -2.0756 -1.8703
   75MOL   H12047628   7.100   2.862   2.474 -0.4253 -1.2979 -0.3061
   75MOL   H12147629   7.056   2.830   2.194  1.3622 -0.0430 -0.2153
   75MOL   H12247630   6.969   2.742   2.319  0.0834 -2.3400 -1.3274
   75MOL   H12347631   7.234   2.681   2.198 -0.4352  0.3128 -0.9432
   75MOL   H12447632   7.204   2.620   2.359  1.4663 -0.1567 -0.8182
   75MOL   H12547633   7.169   2.459   2.182 -0.1249 -0.9933  1.2276
   75MOL   H12647634   7.045   2.576   2.105 -0.7742  2.9783  2.9423
   75MOL   H12747635   6.882   2.546   2.267 -1.5407  0.1998  1.8609
   75MOL   H12847636   7.001   2.461   2.375  0.0917  1.0446  0.0014
   75MOL   H12947637   6.849   2.353   2.143  1.5600 -0.9400 -1.5291
   75MOL   C13047638   6.993   2.236   2.229  0.1378 -0.2073 -0.6699
   75MOL   O13147639   7.078   2.222   2.318  0.5900  0.2023  0.0583
   75MOL   C13247640   6.959   2.118   2.141 -0.0462 -0.5646  0.4154
   75MOL   C13347641   7.048   2.105   2.015 -0.2014  0.6164  0.4079
   75MOL   C13447642   7.017   2.201   1.896  0.1114  0.3206 -0.0210
   75MOL   C13547643   6.868   2.189   1.848 -0.2266  0.2378 -0.1141
   75MOL   C13647644   6.788   2.320   1.862 -0.1483  0.3764  0.0221
   75MOL   O13747645   6.778   2.371   1.971  0.9853 -0.1460  0.2802
   75MOL   N13847646   6.750   2.373   1.747 -0.0223 -0.0633  0.2436
   75MOL   C13947647   6.667   2.494   1.732  0.2492 -0.5535 -0.0721
   75MOL   C14047648   6.522   2.473   1.772 -0.3001 -0.1671  0.2005
   75MOL   C14147649   6.441   2.601   1.758 -0.8447  0.2197 -0.6270
   75MOL   C14247650   6.293   2.591   1.774  0.0093 -0.0293  0.0290
   75MOL   N14347651   6.222   2.705   1.711 -1.4222  0.4969 -0.4552
   75MOL   H14447652   6.963   2.028   2.202  0.1122 -0.6265  0.3133
   75MOL   H14547653   6.853   2.119   2.116  0.2386 -0.9832 -0.8436
   75MOL   H14647654   7.151   2.107   2.053  0.4344 -1.1461 -1.1210
   75MOL   H14747655   7.022   2.013   1.964  0.6949  1.3159 -1.3652
   75MOL   H14847656   7.082   2.166   1.816  0.8974  0.3215  0.6077
   75MOL   H14947657   7.044   2.305   1.913  0.9305  0.3474 -1.5152
   75MOL   H15047658   6.805   2.114   1.897  0.5804 -0.3311  0.0662
   75MOL   H15147659   6.878   2.166   1.742  1.5537  1.8136 -0.3011
   75MOL   H15247660   6.777   2.323   1.664 -1.4531  0.6839 -0.6922
   75MOL   H15347661   6.672   2.509   1.624 -2.8246  0.3513 -0.1438
   75MOL   H15447662   6.704   2.579   1.789 -2.0441 -0.2242  0.9634
   75MOL   H15547663   6.481   2.403   1.699  1.0502 -0.5788 -0.1852
   75MOL   H15647664   6.517   2.421   1.868 -0.0782 -1.0108 -0.2391
   75MOL   H15747665   6.463   2.632   1.655  2.2522 -1.3398 -0.5200
   75MOL   H15847666   6.482   2.677   1.824  0.1357  2.1792 -3.4000
   75MOL   H15947667   6.271   2.586   1.881 -1.5424 -0.0955 -0.2807
   75MOL   H16047668   6.257   2.503   1.720 -1.3652  0.1878  0.5687
   75MOL   H16147669   6.181   2.778   1.767  1.2049  1.3671  0.4442
   75MOL   C16247670   6.211   2.725   1.581  0.1782 -0.2817  0.2072
   75MOL   O16347671   6.246   2.642   1.500  0.0212 -0.0373  0.6846
   75MOL   C16447672   6.149   2.862   1.531  0.5600  0.0774 -0.2476
   75MOL   C16547673   6.222   2.914   1.405  0.3016 -0.1091 -0.2220
   75MOL   C16647674   6.148   2.896   1.274 -0.2088 -0.2221  0.0796
   75MOL   C16747675   6.163   2.756   1.213 -0.3861 -0.8970 -0.0429
   75MOL   C16847676   6.306   2.739   1.162  0.2684 -0.4867 -0.8675
   75MOL   O16947677   6.357   2.824   1.095  0.6696  0.3916  0.0718
   75MOL   N17047678   6.370   2.631   1.192  0.5436 -0.2996  0.8698
   75MOL   C17147679   6.493   2.579   1.136 -0.0184 -0.2333 -0.2051
   75MOL   C17247680   6.517   2.443   1.203  0.1787  0.2918 -0.4661
   75MOL   C17347681   6.546   2.450   1.353  0.5072  0.5148  1.0515
   75MOL   C17447682   6.596   2.319   1.401 -0.8489  0.6978  0.1950
   75MOL   N17547683   6.738   2.316   1.377 -0.2453 -0.0080  0.1337
   75MOL   H17647684   6.047   2.845   1.498  1.3246 -1.8638 -1.6766
   75MOL   H17747685   6.151   2.928   1.618 -1.3626  1.6046 -1.3333
   75MOL   H17847686   6.223   3.023   1.401 -1.5663 -0.1438 -3.5838
   75MOL   H17947687   6.318   2.862   1.407  0.5872  0.4330  0.5779
   75MOL   H18047688   6.173   2.979   1.208  1.0628  0.4088  1.3334
   75MOL   H18147689   6.042   2.913   1.296 -0.0757  2.7496 -1.3248
   75MOL   H18247690   6.096   2.754   1.126 -0.7076 -1.6255  0.2148
   75MOL   H18347691   6.146   2.682   1.291  1.1978 -0.4130  0.7658
   75MOL   H18447692   6.324   2.566   1.253  2.1776 -1.8183  0.5205
   75MOL   H18547693   6.575   2.646   1.162 -0.6875  0.4840  0.0731
   75MOL   H18647694   6.482   2.569   1.028 -2.2986 -0.8697  0.0584
   75MOL   H18747695   6.450   2.366   1.164 -3.5090  1.8540  2.5506
   75MOL   H18847696   6.613   2.425   1.155 -0.1130 -1.1727 -0.5175
   75MOL   H18947697   6.447   2.465   1.396 -0.6237 -0.7011 -1.0542
   75MOL   H19047698   6.614   2.530   1.381 -0.1978  2.0332 -1.5157
   75MOL   H19147699   6.548   2.235   1.351 -0.0873 -0.3745  1.2448
   75MOL   H19247700   6.580   2.318   1.509  2.2049 -0.4293  0.6721
   75MOL   H19347701   6.775   2.378   1.306 -1.3144 -0.6275 -0.9671
   75MOL   C19447702   6.824   2.227   1.432  1.0901  0.1675  0.4028
   75MOL   O19547703   6.785   2.135   1.505 -0.4800  0.0180 -0.2812
   75MOL   C19647704   6.970   2.220   1.390  0.0991 -0.7157  0.8210
   75MOL   C19747705   7.055   2.103   1.434  0.0073 -0.5276 -0.0376
   75MOL   C19847706   7.202   2.131   1.384 -0.4829  0.3692  0.2657
   75MOL   C19947707   7.324   2.041   1.434 -0.4082  0.3068  0.1416
   75MOL   C20047708   7.455   2.124   1.420 -0.1360  0.5786  0.1829
   75MOL   O20147709   7.460   2.215   1.335  0.5089 -0.2194  0.0083
   75MOL   N20247710   7.559   2.086   1.489  0.1464 -0.4095 -0.3176
   75MOL   C20347711   7.689   2.148   1.474 -0.7044  0.3566 -0.1902
   75MOL   C20447712   0.091   2.035   1.453  0.3007 -0.1018 -0.1970
   75MOL   C20547713   0.065   1.953   1.324 -0.1382  0.0403  0.3028
   75MOL   C20647714   0.181   1.860   1.288  0.6404 -0.1760 -0.0436
   75MOL   N20747715   0.305   1.935   1.263  0.0829 -0.6162  0.6679
   75MOL   H20847716   6.977   2.221   1.281 -1.4289 -0.1446  0.7182
   75MOL   H20947717   7.021   2.309   1.427 -0.4369  0.6180 -1.5411
   75MOL   H21047718   7.071   2.093   1.541 -0.3835 -2.1361 -0.1197
   75MOL   H21147719   7.033   2.010   1.382  5.0306 -0.5150 -2.4986
   75MOL   H21247720   7.213   2.237   1.406  2.7853  0.1972 -0.3150
   75MOL   H21347721   7.192   2.122   1.276 -2.0533 -1.1702  0.5189
   75MOL   H21447722   7.331   1.958   1.363  0.1771 -1.6247  2.3866
   75MOL   H21547723   7.330   2.004   1.536 -0.4130  0.6348  0.2601
   75MOL   H21647724   7.551   2.004   1.548  0.1670  0.1205  0.4358
   75MOL   H21747725   0.023   2.201   1.563  2.9454 -1.2493 -0.5927
   75MOL   H21847726   7.698   2.212   1.386 -0.7745 -2.1232 -2.0411
   75MOL   H21947727   0.192   2.075   1.454  0.5683 -0.6457 -2.1670
   75MOL   H22047728   0.097   1.979   1.547  1.0853 -1.4996 -1.0582
   75MOL   H22147729   0.045   2.018   1.238 -1.2702  0.4915  0.9031
   75MOL   H22247730   7.677   1.894   1.343 -1.5238  1.7266 -0.7524
   75MOL   H22347731   0.140   1.810   1.200 -0.5415 -1.4531  1.2184
   75MOL   H22447732   0.199   1.780   1.360 -1.3755  0.1664  0.8516
   75MOL   H22547733   0.380   1.907   1.325  0.8841  1.9228  0.8929
   75MOL   C22647734   0.330   2.031   1.176 -0.5905 -0.4881  0.7084
   75MOL   O22747735   0.241   2.078   1.106 -0.1934 -0.3365 -0.3446
   75MOL   C22847736   0.473   2.089   1.191  0.4469 -0.4704  0.2480
   75MOL   C22947737   0.461   2.238   1.226 -0.2723  0.0962 -0.1451
   75MOL   C23047738   0.592   2.289   1.284 -0.0995 -0.1377  0.4690
   75MOL   C23147739   0.594   2.446   1.296 -0.0693 -0.4342 -0.1226
   75MOL   C23247740   0.690   2.499   1.193 -0.0881 -0.2396  0.5822
   75MOL   O23347741   0.807   2.470   1.201 -0.0184 -0.2742  0.0623
   75MOL   N23447742   0.635   2.595   1.114  0.0623  0.2930 -0.1414
   75MOL   C23547743   0.700   2.668   0.998  0.5641  0.2203 -0.1749
   75MOL   C23647744   0.605   2.662   0.879  0.1279 -0.6296  0.1172
   75MOL   C23747745   0.640   2.740   0.760  0.2101  0.1977  0.3216
   75MOL   C23847746   0.558   2.707   0.636 -0.0508  0.5547 -0.2081
   75MOL   N23947747   0.591   2.798   0.526  0.6183 -0.4387  0.3143
   75MOL   H24047748   0.521   2.035   1.273  0.6135  0.0221  0.4729
   75MOL   H24147749   0.531   2.063   1.103  1.5197  1.5914  0.3190
   75MOL   H24247750   0.448   2.283   1.128  0.6828 -2.5475 -1.5527
   75MOL   H24347751   0.373   2.268   1.283 -0.1427  1.0897 -0.4660
   75MOL   H24447752   0.677   2.243   1.233 -0.5440  2.2505 -2.5579
   75MOL   H24547753   0.592   2.237   1.380 -0.7866  0.9569  1.0662
   75MOL   H24647754   0.635   2.477   1.392  1.0611 -0.0706 -0.7225
   75MOL   H24747755   0.497   2.491   1.274  0.2274 -0.8120 -2.2488
   75MOL   H24847756   0.535   2.588   1.104 -0.1957 -1.9743  3.2609
   75MOL   H24947757   0.800   2.627   0.982  0.1517 -0.2703 -1.5009
   75MOL   H25047758   0.705   2.772   1.030 -0.6081  0.1538  0.2349
   75MOL   H25147759   0.592   2.560   0.844  0.6503 -0.4349 -0.6673
   75MOL   H25247760   0.507   2.694   0.915 -0.1803 -0.5589 -0.7658
   75MOL   H25347761   0.742   2.718   0.728 -0.3046  1.6066 -2.5047
   75MOL   H25447762   0.631   2.848   0.773  1.8893  0.6898 -2.0496
   75MOL   H25547763   0.452   2.707   0.661 -0.4392 -2.8411 -1.5469
   75MOL   H25647764   0.571   2.602   0.609  1.0417  0.9994 -1.4785
   75MOL   H25747765   0.555   2.891   0.540 -1.0964 -1.2372  1.3693
   75MOL   C25847766   0.697   2.790   0.441 -0.0306  0.5393 -0.0482
   75MOL   O25947767   0.774   2.690   0.436 -0.1982 -0.5225 -0.4382
   75MOL   C26047768   0.720   2.910   0.350  0.0095 -0.4940  0.0432
   75MOL   C26147769   0.755   2.880   0.206  0.0164 -0.2304  0.1407
   75MOL   C26247770   0.783   3.005   0.129  0.2585  0.0066 -0.2070
   75MOL   C26347771   0.830   2.972   7.689 -0.1214 -0.3105  0.1506
   75MOL   C26447772   0.972   2.914   7.685 -0.2391  0.0099  0.0252
   75MOL   O26547773   0.985   2.791   7.670  0.0284 -0.1992 -0.2601
   75MOL   N26647774   1.071   2.996   0.010  0.6331 -0.0830  0.1191
   75MOL   C26747775   1.211   2.965   7.699  0.0854  0.2887  0.1715
   75MOL   C26847776   1.272   2.981   0.141 -0.6047  0.3801  0.0846
   75MOL   C26947777   1.218   2.885   0.249 -0.2458  0.3328 -0.1825
   75MOL   C27047778   1.262   2.916   0.388  0.2497  0.3123 -0.2180
   75MOL   N27147779   1.194   2.832   0.488  0.7255 -0.2556  0.5297
   75MOL   H27247780   0.632   2.974   0.355  1.4257  1.5790 -0.8948
   75MOL   H27347781   0.795   2.970   0.402 -1.8693  0.1686  2.0457
   75MOL   H27447782   0.843   2.816   0.200  0.4793  0.5605 -2.0127
   75MOL   H27547783   0.678   2.828   0.148  0.0230  1.1400 -1.1381
   75MOL   H27647784   0.859   3.061   0.184  1.9237 -1.7349 -0.7061
   75MOL   H27747785   0.694   3.064   0.105  0.0152 -0.6227 -0.8778
   75MOL   H27847786   0.831   3.069   7.641  1.2236 -0.4031 -0.0395
   75MOL   H27947787   0.755   2.901   7.653 -0.9385 -0.2014  1.6058
   75MOL   H28047788   1.044   3.089   0.038  2.5132  0.2053  1.0666
   75MOL   H28147789   1.245   3.036   7.624 -1.4254  0.6042 -0.2442
   75MOL   H28247790   1.225   2.868   7.651 -1.7908 -0.6891  1.5183
   75MOL   H28347791   1.381   2.974   0.131 -0.5790 -1.5249  1.5263
   75MOL   H28447792   1.251   3.082   0.175 -0.2627  0.8421 -1.0521
   75MOL   H28547793   1.252   2.786   0.221 -0.2475  0.1863  0.3331
   75MOL   H28647794   1.109   2.877   0.250 -0.3050  0.8290 -1.1804
   75MOL   H28747795   1.250   3.022   0.407 -0.2501  0.0871  0.7291
   75MOL   H28847796   1.371   2.909   0.395  0.1769  0.7801  1.6569
   75MOL   H28947797   1.233   2.741   0.510 -1.3329 -1.4007 -0.4023
   75MOL   C29047798   1.090   2.863   0.563 -0.9691  0.0870 -0.3912
   75MOL   O29147799   1.026   2.969   0.545 -0.3761 -0.4368  0.4936
   75MOL   C29247800   1.050   2.759   0.665  1.0572 -0.3141  0.6088
   75MOL   C29347801   1.063   2.798   0.815 -0.7933  0.3318  0.2575
   75MOL   C29447802   0.983   2.919   0.873 -0.1910 -0.1076 -0.2665
   75MOL   C29547803   1.000   2.923   1.024 -0.1995  0.3939 -0.1204
   75MOL   C29647804   0.918   3.021   1.112 -0.3000  0.2430  0.1385
   75MOL   O29747805   0.823   3.086   1.066  0.2901  0.1965 -0.2009
   75MOL   N29847806   0.967   3.038   1.234 -0.1657  0.1918  0.6346
   75MOL   C29947807   0.904   3.121   1.334  0.4305 -0.6715 -0.0106
   75MOL   C30047808   0.999   3.250   1.360 -0.3017 -0.6104  0.1310
   75MOL   C30147809   0.933   3.336   1.471  0.7430 -0.8226  0.0768
   75MOL   C30247810   1.028   3.452   1.514  0.4824  0.2383 -0.2907
   75MOL   N30347811   0.966   3.533   1.622 -0.2950 -0.2313 -0.2459
   75MOL   H30447812   0.942   2.759   0.654  1.3311  1.2700 -2.5827
   75MOL   H30547813   1.092   2.659   0.652 -1.2618 -1.7273  3.3090
   75MOL   H30647814   1.018   2.711   0.863 -2.2933  0.1336 -1.4531
   75MOL   H30747815   1.167   2.808   0.845 -1.3483 -0.7037  2.6415
   75MOL   H30847816   0.879   2.902   0.845  0.7873 -2.8844 -2.2984
   75MOL   H30947817   1.005   3.018   0.832 -2.7553 -0.0310 -1.5693
   75MOL   H31047818   1.106   2.926   1.051 -0.3561 -3.1367  1.0733
   75MOL   H31147819   0.971   2.823   1.055  1.7968 -0.5868 -1.3199
   75MOL   H31247820   1.054   2.992   1.255 -0.1492  0.8079  1.9775
   75MOL   H31347821   0.890   3.053   1.418 -0.5144  0.4875  0.7827
   75MOL   H31447822   0.802   3.155   1.315  0.1782 -2.0780 -1.2409
   75MOL   H31547823   1.103   3.227   1.381 -0.3025 -0.9718 -0.2588
   75MOL   H31647824   1.004   3.312   1.270  0.8184  1.5423  1.6274
   75MOL   H31747825   0.916   3.270   1.556  1.0630 -2.3062 -0.9794
   75MOL   H31847826   0.839   3.374   1.430  1.0412  0.6072  0.6926
   75MOL   H31947827   1.067   3.514   1.433 -0.4050  0.3434 -0.6378
   75MOL   H32047828   1.117   3.400   1.549 -0.4757  0.8841  3.2887
   75MOL   H32147829   0.875   3.570   1.601 -1.4087 -3.4753 -1.4589
   75MOL   C32247830   1.020   3.556   1.747  0.2749  0.3145  0.3409
   75MOL   O32347831   1.138   3.528   1.780  0.2834 -0.5137 -0.2667
   75MOL   C32447832   0.931   3.623   1.851  0.3639  0.3333  0.2076
   75MOL   C32547833   1.019   3.713   1.936  0.9514  0.3908  1.0902
   75MOL   C32647834   0.954   3.799   2.042  0.4934 -0.3052  0.8905
   75MOL   C32747835   0.890   3.919   1.971 -0.5944 -0.0028 -0.3562
   75MOL   C32847836   0.993   4.036   1.959 -0.4463  0.5816  0.2625
   75MOL   O32947837   1.027   4.102   2.056  0.4717 -0.3192  0.0914
   75MOL   N33047838   1.048   4.061   1.839  0.4068  0.0145 -0.0059
   75MOL   C33147839   1.139   4.169   1.812 -0.6807 -0.5462 -0.1072
   75MOL   C33247840   1.283   4.124   1.832 -0.2932  0.1816  0.6403
   75MOL   C33347841   1.378   4.234   1.800 -0.3410 -0.6961 -0.6682
   75MOL   C33447842   1.518   4.186   1.800  0.1716  0.3038 -0.6890
   75MOL   N33547843   1.563   4.162   1.933  0.0887  0.1060  0.6713
   75MOL   H33647844   0.859   3.683   1.795 -0.4349 -0.9977 -0.2282
   75MOL   H33747845   0.862   3.560   1.907  0.5585  1.1909  1.4288
   75MOL   H33847846   1.076   3.635   1.987 -2.3370 -1.7389  1.6181
   75MOL   H33947847   1.090   3.775   1.881  1.0924  0.2205  1.0792
   75MOL   H34047848   1.028   3.830   2.116  1.8832 -0.7012 -0.3369
   75MOL   H34147849   0.870   3.749   2.091 -1.3664  0.1504 -1.7597
   75MOL   H34247850   0.810   3.951   2.038 -0.3927  0.7838 -0.4859
   75MOL   H34347851   0.850   3.899   1.871  0.3443 -1.4667 -0.4569
   75MOL   H34447852   1.010   4.006   1.763  2.6954 -2.2465  0.3983
   75MOL   H34547853   1.120   4.261   1.866 -2.5140 -0.5110 -0.7613
   75MOL   H34647854   1.132   4.194   1.706  2.9168  0.4562 -0.1786
   75MOL   H34747855   1.291   4.104   1.939  1.7563  0.5955  0.5862
   75MOL   H34847856   1.308   4.034   1.776  1.7987  1.3196 -0.3228
   75MOL   H34947857   1.364   4.310   1.877  1.4918 -1.4297  0.4382
   75MOL   H35047858   1.368   4.277   1.700  0.8112 -1.0624 -0.9467
   75MOL   H35147859   1.584   4.258   1.753 -1.3848  1.6846 -0.8062
   75MOL   H35247860   1.524   4.095   1.740 -1.0997 -0.3268  0.1023
   75MOL   H35347861   1.526   4.083   1.984  0.4297 -1.2086 -1.0525
   75MOL   C35447862   1.679   4.212   1.979  0.6019 -0.9139  0.9698
   75MOL   O35547863   1.744   4.296   1.915 -0.7586  0.6566 -0.8298
   75MOL   C35647864   1.743   4.152   2.113 -0.0321 -0.3467  0.2383
   75MOL   C35747865   1.761   4.253   2.228 -0.6339 -1.0218  0.4731
   75MOL   C35847866   1.865   4.219   2.331  0.5283 -0.3071  0.0796
   75MOL   C35947867   1.866   4.313   2.450  0.4600  0.4848 -0.3333
   75MOL   C36047868   1.969   4.280   2.558  0.1710  0.6590 -0.3854
   75MOL   O36147869   2.067   4.218   2.519 -0.2159  0.0300 -0.5919
   75MOL   N36247870   1.947   4.328   2.683  0.4485  0.0657 -0.5185
   75MOL   C36347871   2.039   4.317   2.791 -0.4004  0.2159 -0.1707
   75MOL   C36447872   2.017   4.186   2.870 -0.7575 -0.9812  0.2003
   75MOL   C36547873   2.062   4.194   3.018 -0.1254 -0.2212 -0.2238
   75MOL   C36647874   2.016   4.069   3.092  0.1588  0.2904 -0.1046
   75MOL   N36747875   2.021   4.086   3.239  0.2243 -0.7729 -0.4174
   75MOL   H36847876   1.681   4.074   2.158 -0.0198  0.1918  1.1943
   75MOL   H36947877   1.842   4.116   2.087  0.5779  0.8205  0.8754
   75MOL   H37047878   1.789   4.347   2.180 -1.6810  0.2445  2.2777
   75MOL   H37147879   1.666   4.272   2.278  0.5659  1.5848  1.8912
   75MOL   H37247880   1.963   4.215   2.284  0.0733 -1.3170 -0.7905
   75MOL   H37347881   1.856   4.115   2.362  0.3801  0.2214  1.8362
   75MOL   H37447882   1.775   4.307   2.510  0.1168  0.9300 -0.8044
   75MOL   H37547883   1.899   4.413   2.422  0.7962  0.7608  0.9866
   75MOL   H37647884   1.883   4.405   2.667  1.2211  0.6975 -0.5744
   75MOL   H37747885   2.042   4.404   2.856 -1.4895  0.0542  0.0985
   75MOL   H37847886   2.137   4.306   2.743  0.2482  0.6160  1.0269
   75MOL   H37947887   1.914   4.149   2.866 -1.4401  0.7186  1.3067
   75MOL   H38047888   2.075   4.113   2.813 -0.3067 -0.7086  0.3102
   75MOL   H38147889   2.017   4.275   3.074 -0.6709  0.1867 -1.2448
   75MOL   H38247890   2.171   4.193   3.022 -0.0976 -0.4157 -0.8759
   75MOL   H38347891   2.082   3.990   3.056 -2.5991 -1.5237 -1.3135
   75MOL   H38447892   1.913   4.039   3.072  1.0582 -1.0305 -3.0511
   75MOL   H38547893   2.008   4.181   3.268 -0.7505 -0.9328 -0.3061
   75MOL   C38647894   2.056   3.998   3.329  0.6779  0.1353 -0.2108
   75MOL   O38747895   2.071   3.882   3.302 -0.2492  0.0804  0.0730
   75MOL   C38847896   2.051   4.045   3.470  0.3538 -0.4594 -0.0675
   75MOL   C38947897   2.009   3.946   3.588 -0.7722 -0.2217  0.4669
   75MOL   C39047898   1.857   3.920   3.596  0.0888  0.2975  0.7816
   75MOL   C39147899   1.798   3.956   3.733 -0.8314  0.4831 -0.1405
   75MOL   C39247900   1.824   4.102   3.773  0.1040  0.1505 -0.2270
   75MOL   O39347901   1.853   4.190   3.697  0.8943  0.0620  0.2131
   75MOL   N39447902   1.804   4.129   3.907 -0.1893 -0.0544  0.8996
   75MOL   C39547903   1.814   4.259   3.974  0.6064  0.2615  0.2454
   75MOL   C39647904   1.946   4.268   4.049 -0.6124  0.0359 -0.6579
   75MOL   C39747905   1.977   4.407   4.114  0.1553  0.0169 -0.8213
   75MOL   C39847906   2.122   4.407   4.157 -0.7416  0.1856  0.5865
   75MOL   N39947907   2.154   4.527   4.230 -0.4215  0.8156 -0.3181
   75MOL   H40047908   2.146   4.096   3.487  0.0774  1.0308 -2.7699
   75MOL   H40147909   1.984   4.130   3.466  0.3890 -0.4594 -0.7214
   75MOL   H40247910   2.061   3.855   3.556  1.4454  1.4283 -0.8007
   75MOL   H40347911   2.050   3.974   3.684  1.5617 -0.9120 -0.2969
   75MOL   H40447912   1.853   3.811   3.595 -0.5970  0.3097  1.5023
   75MOL   H40547913   1.801   3.954   3.508  0.4624  1.0349  0.8208
   75MOL   H40647914   1.855   3.900   3.808 -0.5037  1.9586  0.7382
   75MOL   H40747915   1.697   3.919   3.751 -0.9550  0.3098 -1.1726
   75MOL   H40847916   1.797   4.054   3.974  0.4025  1.3315  2.5676
   75MOL   H40947917   1.739   4.264   4.053  0.5961  2.0249  0.1422
   75MOL   H41047918   1.810   4.349   3.912 -2.5867  1.3401  1.8657
   75MOL   H41147919   1.960   4.192   4.126 -2.5850  0.4129  0.1104
   75MOL   H41247920   2.030   4.270   3.979  0.4986  1.1626  0.6774
   75MOL   H41347921   1.914   4.415   4.203 -1.3354  0.5002 -1.8907
   75MOL   H41447922   1.960   4.490   4.045  0.6261  0.0783 -0.8647
   75MOL   H41547923   2.192   4.396   4.073 -0.8043  1.3300  0.3743
   75MOL   H41647924   2.142   4.322   4.222  1.6408 -0.2299 -0.5966
   75MOL   H41747925   2.188   4.501   4.321 -2.9965  0.3599  0.5516
   75MOL   C41847926   2.149   4.659   4.191 -0.0470 -0.0890  0.1313
   75MOL   O41947927   2.121   4.691   4.081 -0.3542 -0.2779  0.2628
   75MOL   C42047928   2.188   4.763   4.298 -0.4032  0.0585 -0.1336
   75MOL   C42147929   2.341   4.793   4.291  0.7213  0.2004  0.4071
   75MOL   C42247930   2.371   4.891   4.170  0.3965 -0.2496  0.4398
   75MOL   C42347931   2.522   4.921   4.153 -0.5385 -0.3301 -0.0673
   75MOL   C42447932   2.549   5.024   4.042 -0.5097 -0.2513  0.0763
   75MOL   O42547933   2.492   5.127   4.033 -0.3914  0.2390  0.1994
   75MOL   N42647934   2.652   5.002   3.958 -0.2813  0.2696  0.7742
   75MOL   C42747935   2.714   5.087   3.855  0.1250 -0.3157  0.4968
   75MOL   C42847936   2.615   5.123   3.740  0.2662  0.1638  0.9337
   75MOL   C42947937   2.595   5.004   3.650  0.1932  0.2532 -0.3484
   75MOL   C43047938   2.490   5.030   3.533 -0.1842  0.1322  0.5667
   75MOL   N43147939   2.484   4.908   3.459 -0.6287  0.0066  0.6191
   75MOL   H43247940   2.136   4.856   4.275 -0.6788  0.0530  0.4783
   75MOL   H43347941   2.152   4.731   4.395  0.8805  0.8192  0.6077
   75MOL   H43447942   2.379   4.836   4.384  0.8882  0.3920  0.2490
   75MOL   H43547943   2.407   4.706   4.289 -1.7365 -1.7784  1.9140
   75MOL   H43647944   2.322   4.987   4.180  2.6200  1.1018 -1.3989
   75MOL   H43747945   2.325   4.852   4.080  0.4462  1.7421 -0.4665
   75MOL   H43847946   2.586   4.832   4.146  1.2885  0.8340  1.4201
   75MOL   H43947947   2.571   4.972   4.236  0.2593 -1.7443  0.3612
   75MOL   H44047948   2.694   4.910   3.953 -0.6479  0.2089 -2.7590
   75MOL   H44147949   2.803   5.040   3.815 -1.5818 -1.6760 -1.8320
   75MOL   H44247950   2.738   5.182   3.902 -2.4968 -0.1856  1.6713
   75MOL   H44347951   2.523   5.166   3.781  1.0870 -1.0136  4.2086
   75MOL   H44447952   2.652   5.211   3.688 -0.4082  0.8100  1.5397
   75MOL   H44547953   2.561   4.919   3.710 -1.8242  1.9014  0.9086
   75MOL   H44647954   2.693   4.978   3.612  0.5801  0.4667  0.4899
   75MOL   H44747955   2.531   5.110   3.471  0.0745  0.9697  1.7819
   75MOL   H44847956   2.388   5.054   3.562 -0.0134  1.3801  0.1589
   75MOL   H44947957   2.567   4.852   3.451 -1.1199 -0.5433 -0.7672
   75MOL   C45047958   2.372   4.871   3.384 -0.5352 -0.3461 -0.1583
   75MOL   O45147959   2.273   4.944   3.364  0.3346  0.5707 -0.6463
   75MOL   C45247960   2.376   4.734   3.321 -0.4663  0.1183 -0.1927
   75MOL   C45347961   2.474   4.736   3.197  0.1368  0.4417  0.6153
   75MOL   C45447962   2.602   4.668   3.230 -0.0351 -0.4397 -0.2764
   75MOL   C45547963   2.736   4.744   3.189  0.2851  0.5743  0.0661
   75MOL   C45647964   2.792   4.835   3.306  0.0019 -0.4861 -1.2580
   75MOL   O45747965   2.745   4.831   3.419 -0.2575 -0.0959  0.6141
   75MOL   N45847966   2.894   4.919   3.277  0.1896  0.1840  0.5103
   75MOL   C45947967   2.942   5.024   3.367  0.6803  0.1412  0.7652
   75MOL   C46047968   3.055   4.960   3.448 -0.2470  0.0245 -0.4556
   75MOL   C46147969   3.014   4.910   3.589  0.2815  0.1185 -0.0968
   75MOL   C46247970   3.127   4.847   3.673 -0.5273 -0.4585  0.4063
   75MOL   N46347971   3.088   4.839   3.815  0.1461  0.2700 -0.5529
   75MOL   H46447972   2.393   4.650   3.388 -0.4524  0.1957 -0.0985
   75MOL   H46547973   2.277   4.721   3.275 -0.2648  1.4123 -1.0331
   75MOL   H46647974   2.435   4.683   3.110  3.8596 -0.6877 -0.4312
   75MOL   H46747975   2.498   4.839   3.170 -3.0998  0.5442 -2.2539
   75MOL   H46847976   2.604   4.572   3.179 -1.1895  1.1028 -3.3685
   75MOL   H46947977   2.607   4.649   3.337  1.6221  1.0107 -0.0729
   75MOL   H47047978   2.724   4.795   3.093 -0.8050 -1.6217 -1.0041
   75MOL   H47147979   2.814   4.668   3.184  0.3917  0.5392  2.1474
   75MOL   H47247980   2.939   4.919   3.187 -3.9885  0.7867 -1.7255
   75MOL   H47347981   2.857   5.059   3.426 -0.9666 -1.1960 -0.7454
   75MOL   H47447982   2.972   5.110   3.307  0.5654  0.9475  1.8515
   75MOL   H47547983   3.117   4.887   3.398  0.4338 -1.5255  2.5370
   75MOL   H47647984   3.125   5.041   3.467 -2.2015  1.8911 -0.9971
   75MOL   H47747985   2.929   4.841   3.583  0.6326 -0.3534  0.3062
   75MOL   H47847986   2.966   4.993   3.642 -2.2936 -0.0569 -2.0445
   75MOL   H47947987   3.217   4.907   3.665  0.3671 -1.9886 -1.4650
   75MOL   H48047988   3.151   4.746   3.639 -1.7906 -0.6561  0.0558
   75MOL   H48147989   3.072   4.744   3.843  1.4236  0.0770 -0.4615
   75MOL   C48247990   3.076   4.933   3.910  0.5388 -0.2963 -1.0051
   75MOL   O48347991   3.096   5.051   3.889  0.0670  0.0458  0.1797
   75MOL   C48447992   3.035   4.881   4.049 -0.3345  0.0255  0.1464
   75MOL   C48547993   3.103   4.963   4.158 -0.1222  0.5192 -0.0438
   75MOL   C48647994   3.260   4.929   4.181 -0.0501 -0.1823 -0.6669
   75MOL   C48747995   3.329   5.025   4.287 -0.0920  0.2604  1.1141
   75MOL   C48847996   3.481   5.025   4.299 -0.3266 -0.5920 -0.3817
   75MOL   O48947997   3.536   4.942   4.225 -0.3753 -0.1049  0.4917
   75MOL   N49047998   3.537   5.107   4.388  0.0613  0.0055  0.0724
   75MOL   C49147999   3.674   5.100   4.439  0.4362  0.0661  0.1983
   75MOL   C49248000   3.688   5.007   4.563 -0.7127  0.0517 -0.6671
   75MOL   C49348001   3.833   4.950   4.569  0.4255  0.3595 -0.0173
   75MOL   C49448002   3.874   4.900   4.708  0.1236  0.6725 -0.3082
   75MOL   N49548003   4.003   4.828   4.695 -0.1539  0.1321  0.1113
   75MOL   H49648004   2.927   4.878   4.056 -0.2334 -3.2189  1.2700
   75MOL   H49748005   3.063   4.777   4.065 -2.7303 -0.8462 -1.1940
   75MOL   H49848006   3.092   5.069   4.137  1.4644  0.1488 -3.1190
   75MOL   H49948007   3.049   4.951   4.252 -1.9547 -1.4481 -1.2889
   75MOL   H50048008   3.304   4.931   4.081  1.0896 -0.8905 -0.1797
   75MOL   H50148009   3.269   4.826   4.213  0.1987 -0.5592 -1.9231
   75MOL   H50248010   3.277   5.021   4.383  4.1488 -0.0586  3.5687
   75MOL   H50348011   3.311   5.121   4.240  1.1347  0.1794  0.4560
   75MOL   H50448012   3.468   5.168   4.429  0.1996 -0.5141  1.0948
   75MOL   H50548013   3.720   5.198   4.442 -2.0694  1.2872  0.0208
   75MOL   H50648014   3.727   5.046   4.361 -0.4004 -0.7550  0.1846
   75MOL   H50748015   3.656   5.055   4.655 -0.4264 -2.5040  0.8052
   75MOL   H50848016   3.624   4.919   4.558 -2.2135  1.1604 -1.4053
   75MOL   H50948017   3.905   5.028   4.546 -0.0481  0.8377  0.1164
   75MOL   H51048018   3.846   4.878   4.487  0.0740 -0.4447  0.6316
   75MOL   H51148019   3.794   4.835   4.743 -0.0101  0.3387 -1.2171
   75MOL   H51248020   3.887   4.988   4.771 -0.0817  1.1681 -0.9565
   75MOL   H51348021   4.071   4.860   4.628 -1.0867 -1.2927 -1.5572
   75MOL   C51448022   4.041   4.736   4.781  0.2764 -0.1538 -0.3033
   75MOL   O51548023   3.958   4.701   4.864 -0.8565 -0.5217 -0.0964
   75MOL   C51648024   4.183   4.689   4.779 -0.1245  0.7788  0.2407
   75MOL   C51748025   4.210   4.592   4.900  0.6430 -0.5853 -0.4931
   75MOL   C51848026   4.190   4.445   4.855 -0.0837 -0.2642  0.2068
   75MOL   C51948027   4.238   4.345   4.961  0.5436  0.3768 -0.7700
   75MOL   C52048028   4.226   4.197   4.912 -0.8073 -0.0304 -0.3928
   75MOL   O52148029   4.294   4.162   4.814 -0.2522 -0.0249  0.2059
   75MOL   N52248030   4.144   4.119   4.984 -0.4583 -0.1010 -0.0814
   75MOL   C52348031   4.102   3.983   4.949  0.1156 -0.8857 -0.3557
   75MOL   C52448032   4.057   3.912   5.069 -0.0547 -0.2760  0.3303
   75MOL   C52548033   4.167   3.896   5.173 -0.0761  0.0661  0.1563
   75MOL   C52648034   4.187   4.012   5.270  0.0952  0.4164  0.2856
   75MOL   N52748035   4.062   4.063   5.339 -0.0480 -0.3042  0.3347
   75MOL   H52848036   4.210   4.647   4.682 -4.0344 -2.4071  0.3983
   75MOL   H52948037   4.243   4.779   4.793  0.2037  0.3691  1.5417
   75MOL   H53048038   4.312   4.604   4.938 -0.4907  0.6563  2.2628
   75MOL   H53148039   4.156   4.611   4.992 -2.3977 -0.5545 -2.2135
   75MOL   H53248040   4.241   4.413   4.764  1.1938 -1.1393  1.2247
   75MOL   H53348041   4.084   4.432   4.834  0.3449 -0.3431 -2.0589
   75MOL   H53448042   4.191   4.372   5.055 -0.1509 -1.8476 -0.4340
   75MOL   H53548043   4.345   4.363   4.974  0.2367  0.5946  1.7809
   75MOL   H53648044   4.098   4.158   5.064  2.1621  0.9491  0.9685
   75MOL   H53748045   4.191   3.938   4.904  1.7101  1.3989  0.4101
   75MOL   H53848046   4.020   3.969   4.879  1.3991 -0.7210 -1.9482
   75MOL   H53948047   3.966   3.949   5.117 -2.0396  0.1279 -3.5271
   75MOL   H54048048   4.035   3.811   5.033  1.3467  0.1374 -1.7637
   75MOL   H54148049   4.264   3.876   5.127  1.3497 -0.6247  3.3219
   75MOL   H54248050   4.143   3.810   5.235  0.9252 -1.5297 -1.6087
   75MOL   H54348051   4.240   4.096   5.224  2.0388 -0.5474  0.7007
   75MOL   H54448052   4.258   3.976   5.345  2.5553  2.0983 -1.1355
   75MOL   H54548053   4.055   4.041   5.438 -1.0627 -1.5912 -0.0056
   75MOL   C54648054   3.975   4.158   5.295 -0.0191 -0.0569 -0.2086
   75MOL   O54748055   3.974   4.207   5.185 -0.3128 -0.4421  0.2191
   75MOL   C54848056   3.870   4.196   5.402  0.2373  0.0599  0.0416
   75MOL   C54948057   3.738   4.129   5.374 -0.9564 -0.4358 -0.2737
   75MOL   C55048058   3.726   3.976   5.367  0.0852  0.0687 -0.2400
   75MOL   C55148059   3.583   3.927   5.365 -0.6390  0.8657 -0.7959
   75MOL   C55248060   3.506   3.956   5.234 -0.4725  0.0340  0.6620
   75MOL   O55348061   3.566   4.007   5.138 -0.5789 -1.0919 -0.0707
   75MOL   N55448062   3.372   3.946   5.233  0.1781 -0.1416 -0.5343
   75MOL   C55548063   3.292   3.983   5.115 -0.8235 -0.4970 -0.2760
   75MOL   C55648064   3.161   3.906   5.111 -1.4815 -0.1673  0.0208
   75MOL   C55748065   3.064   3.923   4.994 -0.1220 -0.8852  0.0464
   75MOL   C55848066   2.927   3.862   5.022 -0.1995 -0.6189  0.1104
   75MOL   N55948067   2.816   3.916   4.936  0.9860  0.1587 -0.3474
   75MOL   H56048068   3.900   4.153   5.498 -1.5595 -0.5587  0.3404
   75MOL   H56148069   3.861   4.305   5.407  0.9553  0.1188  0.2123
   75MOL   H56248070   3.663   4.161   5.447  0.0656 -0.0415  0.6214
   75MOL   H56348071   3.716   4.170   5.275  0.0173  1.8225  0.4069
   75MOL   H56448072   3.769   3.921   5.450  2.9107  0.2374 -1.5192
   75MOL   H56548073   3.783   3.932   5.285 -1.6696 -1.3732 -0.7169
   75MOL   H56648074   3.539   3.971   5.455 -2.2753  0.7900 -1.5471
   75MOL   H56748075   3.581   3.818   5.369  1.6282  0.7158 -2.5535
   75MOL   H56848076   3.329   3.894   5.308 -0.8486  1.4360 -0.0179
   75MOL   H56948077   3.346   3.954   5.025 -1.5508  1.1145 -1.2430
   75MOL   H57048078   3.273   4.090   5.106  0.8272 -0.1922 -0.3135
   75MOL   H57148079   3.175   3.800   5.132  1.0020  0.1081 -0.0764
   75MOL   H57248080   3.102   3.929   5.200  1.0366 -0.3931  1.8028
   75MOL   H57348081   3.106   3.876   4.906 -0.8538 -0.8996 -0.3000
   75MOL   H57448082   3.067   4.026   4.960  1.1046 -1.5495 -1.8885
   75MOL   H57548083   2.901   3.881   5.127  0.8006 -1.3698  0.5060
   75MOL   H57648084   2.946   3.756   5.006  0.6798 -0.3521 -0.6067
   75MOL   H57748085   2.830   4.009   4.900 -0.4124  0.6186  0.2575
   75MOL   C57848086   2.691   3.882   4.955 -0.4806 -0.3812 -0.3166
   75MOL   O57948087   2.662   3.787   5.023 -0.6332 -0.2978 -0.1740
   75MOL   C58048088   2.587   3.964   4.883  0.0572 -0.0814 -0.6286
   75MOL   C58148089   2.460   3.879   4.848  0.2730 -0.2076 -0.0737
   75MOL   C58248090   2.477   3.761   4.750 -0.4748  0.4427  0.9453
   75MOL   C58348091   2.347   3.672   4.731 -0.1367 -0.0676  1.5119
   75MOL   C58448092   2.365   3.537   4.808 -0.8338  1.2178 -0.8629
   75MOL   O58548093   2.434   3.456   4.751 -0.1553  0.1732  0.0625
   75MOL   N58648094   2.302   3.513   4.924 -0.2450  0.0504  0.1939
   75MOL   C58748095   2.326   3.394   4.998  0.2438 -0.0236 -0.0902
   75MOL   C58848096   2.240   3.274   4.941  0.3825  0.5864  0.1469
   75MOL   C58948097   2.089   3.290   4.939 -0.1535 -0.5083 -0.4282
   75MOL   C59048098   2.020   3.224   4.822 -0.4928 -0.0978  0.6081
   75MOL   N59148099   1.875   3.240   4.821  0.6752 -0.1019  0.8261
   75MOL   H59248100   2.547   4.052   4.934 -1.7450 -0.4237 -1.4091
   75MOL   H59348101   2.621   4.009   4.789  0.0123  1.6109  0.1426
   75MOL   H59448102   2.413   3.841   4.938 -0.6912 -0.7627 -0.8105
   75MOL   H59548103   2.377   3.939   4.811  1.1484  0.5629 -0.8599
   75MOL   H59648104   2.562   3.695   4.771 -2.2931 -2.2932 -0.0379
   75MOL   H59748105   2.497   3.806   4.653 -1.3604  0.7212  0.8882
   75MOL   H59848106   2.345   3.654   4.623  0.3251 -1.2083  1.6886
   75MOL   H59948107   2.252   3.719   4.754 -0.4749 -0.0156  0.0755
   75MOL   H60048108   2.256   3.593   4.965 -0.9842  0.6209 -1.6633
   75MOL   H60148109   2.303   3.415   5.102 -0.8705 -0.4057 -0.2523
   75MOL   H60248110   2.429   3.358   4.999  0.2679  0.0372  1.6024
   75MOL   H60348111   2.286   3.250   4.845  1.1076  3.6848 -0.3342
   75MOL   H60448112   2.263   3.186   5.002  1.3345 -0.1542 -1.2380
   75MOL   H60548113   2.073   3.396   4.922  1.2587  0.2165  2.3467
   75MOL   H60648114   2.052   3.266   5.039  0.0472 -0.1020 -0.2567
   75MOL   H60748115   2.031   3.115   4.823  1.2009  0.0702  1.9209
   75MOL   H60848116   2.066   3.264   4.732  0.4492  0.4456  1.3280
   75MOL   H60948117   1.826   3.157   4.850 -2.6460  1.0068 -1.3902
   75MOL   C61048118   1.819   3.356   4.783 -0.4405 -0.1347  0.2848
   75MOL   O61148119   1.888   3.457   4.767 -0.0899 -0.0107 -0.5399
   75MOL   C61248120   1.666   3.348   4.775  0.4547 -0.5043  0.1410
   75MOL   C61348121   1.587   3.466   4.732  0.1361  0.6168 -0.2127
   75MOL   C61448122   1.604   3.503   4.587 -0.5387 -0.1180 -0.1953
   75MOL   C61548123   1.548   3.402   4.486 -0.5452 -0.4393 -0.3441
   75MOL   C61648124   1.502   3.469   4.358  0.5011  0.5901 -0.0853
   75MOL   O61748125   1.574   3.553   4.301 -0.5873  0.2953  0.2253
   75MOL   N61848126   1.381   3.432   4.316 -0.3974 -0.5693 -0.1833
   75MOL   C61948127   1.313   3.523   4.219  0.4532  0.2408 -0.1008
   75MOL   C62048128   1.379   3.520   4.078 -0.3847  0.3197  0.7391
   75MOL   C62148129   1.423   3.384   4.028 -0.7518 -0.8224  0.8490
   75MOL   C62248130   1.312   3.297   3.969 -0.1149  0.4089 -0.7144
   75MOL   N62348131   1.358   3.160   3.981  0.6412  0.2926  0.5730
   75MOL   H62448132   1.633   3.262   4.717 -0.0900 -0.1323 -0.1104
   75MOL   H62548133   1.632   3.321   4.874 -0.9463  0.5545 -0.0350
   75MOL   H62648134   1.481   3.450   4.751  0.0132  0.6199 -0.9161
   75MOL   H62748135   1.607   3.542   4.808 -0.0215  0.1186  0.3370
   75MOL   H62848136   1.709   3.508   4.558 -0.0939 -1.0633  1.1437
   75MOL   H62948137   1.557   3.600   4.574 -0.0352  0.4045  1.7353
   75MOL   H63048138   1.471   3.345   4.538  0.6415 -0.4089  1.5277
   75MOL   H63148139   1.624   3.327   4.465  0.4295  0.3963  0.1431
   75MOL   H63248140   1.324   3.367   4.369  0.1297 -0.7558  0.1586
   75MOL   H63348141   1.304   3.625   4.257 -5.7666  0.1839 -0.7892
   75MOL   H63448142   1.210   3.486   4.219  1.8407 -3.8792 -1.6484
   75MOL   H63548143   1.324   3.569   3.998  0.5803 -0.1109 -0.2003
   75MOL   H63648144   1.465   3.587   4.079  1.0486 -1.4984  2.4905
   75MOL   H63748145   1.481   3.336   4.107 -1.1665 -2.0448  0.4249
   75MOL   H63848146   1.498   3.385   3.949  0.8080  0.5657  2.3188
   75MOL   H63948147   1.287   3.321   3.866 -0.1776 -0.8576 -1.0088
   75MOL   H64048148   1.226   3.312   4.034  0.7110 -0.3310  0.5741
   75MOL   H64148149   1.394   3.166   4.076 -0.6268 -0.0160  1.0878
   75MOL   H64248150   1.444   3.154   3.927  2.3733  0.5817  3.1846
   76MOL     C148151   2.649   5.233   5.315 -0.4703  0.4739  0.1160
   76MOL     O248152   2.573   5.179   5.233  0.0331  0.2856  0.0812
   76MOL     C348153   2.796   5.189   5.338  0.0783 -1.0305  0.0687
   76MOL     C448154   2.873   5.113   5.227  0.2574  0.8522  0.1650
   76MOL     C548155   2.872   5.174   5.088 -0.2893 -0.2210  1.5614
   76MOL     C648156   2.920   5.077   4.980  0.4350  0.4230 -1.5477
   76MOL     C748157   2.821   4.960   4.949 -0.0882 -0.1159  0.0332
   76MOL     O848158   2.701   4.961   4.974  0.0150 -0.4244 -0.4758
   76MOL     N948159   2.884   4.859   4.881  0.7119  0.4105  0.4817
   76MOL    C1048160   2.816   4.749   4.815 -0.3547  0.1115  0.0473
   76MOL    C1148161   2.810   4.769   4.666  0.0632 -0.4428  0.1233
   76MOL    C1248162   2.773   4.910   4.604  0.8424 -0.1400 -0.1977
   76MOL    C1348163   2.621   4.935   4.615 -0.4161  0.2131  0.1136
   76MOL    N1448164   2.561   4.895   4.746 -0.6413 -0.3879  0.2987
   76MOL    H1548165   2.858   5.274   5.365  1.4611 -1.6901 -0.9608
   76MOL    H1648166   2.789   5.136   5.432  1.0063  1.2448  1.4600
   76MOL    H1748167   2.976   5.104   5.261  0.3678 -0.2308 -0.4250
   76MOL    H1848168   2.836   5.010   5.221  2.3166  0.1711 -1.7242
   76MOL    H1948169   2.935   5.263   5.095 -1.5044  0.8577 -0.7122
   76MOL    H2048170   2.777   5.219   5.061  0.2385  0.2219  0.3911
   76MOL    H2148171   3.006   5.034   5.032 -2.4273 -0.5646  2.6374
   76MOL    H2248172   2.943   5.132   4.889 -1.2484  1.1698 -1.5364
   76MOL    H2348173   2.984   4.859   4.871  0.6259 -0.3518 -0.4179
   76MOL    H2448174   2.715   4.728   4.853 -0.7158  2.0924  0.2442
   76MOL    H2548175   2.882   4.665   4.835 -1.2648 -0.9271 -1.2572
   76MOL    H2648176   2.915   4.751   4.648  0.2492  0.5558  0.1730
   76MOL    H2748177   2.761   4.687   4.613 -0.4709 -2.4987  3.6329
   76MOL    H2848178   2.810   4.918   4.501  1.1361  1.7982  0.0372
   76MOL    H2948179   2.837   4.987   4.649 -1.9442  2.8739 -1.1944
   76MOL    H3048180   2.565   4.874   4.544 -3.6669  1.4890  1.5085
   76MOL    H3148181   2.600   5.037   4.585 -1.5593  0.1883  0.8163
   76MOL    H3248182   2.614   4.902   4.832  0.7872  0.1854 -0.6002
   76MOL    H3348183   2.609   5.312   5.378 -0.5523  1.4167 -1.0831
   76MOL    C3448184   2.431   4.862   4.763 -0.3957  0.3637  0.0926
   76MOL    O3548185   2.346   4.856   4.672 -0.4415 -0.5240  1.2312
   76MOL    C3648186   2.398   4.836   4.910  0.2611 -0.2207 -0.1970
   76MOL    C3748187   2.274   4.748   4.938  0.1979  0.2830 -0.6883
   76MOL    C3848188   2.131   4.799   4.894  0.5281 -0.1537 -0.0658
   76MOL    C3948189   2.079   4.912   4.978  0.6378 -0.3038 -0.2395
   76MOL    C4048190   1.941   4.968   4.936 -0.7167  0.1675 -0.7084
   76MOL    O4148191   1.939   5.068   4.867 -0.2150 -0.6981  0.0712
   76MOL    N4248192   1.830   4.907   4.980 -0.2794  0.2452 -0.1651
   76MOL    C4348193   1.692   4.936   4.929  1.0091 -0.3177 -0.1394
   76MOL    C4448194   1.628   5.037   5.026  0.0686 -0.5882  0.2554
   76MOL    C4548195   1.487   5.082   4.979 -0.2075  0.5625 -0.2556
   76MOL    C4648196   1.391   4.957   4.982 -0.1418 -0.3928  0.2954
   76MOL    N4748197   1.408   4.873   5.106  0.3553 -0.7298  0.8186
   76MOL    H4848198   2.483   4.792   4.962 -0.3293 -0.4307  0.5942
   76MOL    H4948199   2.382   4.931   4.962  0.7586 -0.7787  0.9854
   76MOL    H5048200   2.295   4.659   4.878  0.9134 -0.1074  0.1413
   76MOL    H5148201   2.278   4.721   5.043  0.9430  0.5839 -0.6383
   76MOL    H5248202   2.058   4.721   4.913 -0.8216  0.4914 -2.4485
   76MOL    H5348203   2.128   4.818   4.787  3.4781  1.0292 -0.0065
   76MOL    H5448204   2.143   4.999   4.994  0.7957 -0.8075  1.9972
   76MOL    H5548205   2.058   4.873   5.077 -0.9626 -0.1232 -0.4935
   76MOL    H5648206   1.850   4.820   5.028  2.5804  1.2633  0.5545
   76MOL    H5748207   1.635   4.847   4.905 -0.6528  0.1798  1.8980
   76MOL    H5848208   1.693   4.994   4.836 -1.1350 -0.5120 -0.2963
   76MOL    H5948209   1.615   4.997   5.127  0.4767  1.2274  1.0467
   76MOL    H6048210   1.691   5.125   5.034 -0.8013  0.2393 -1.7036
   76MOL    H6148211   1.481   5.141   4.888 -1.8308  1.3532  0.3553
   76MOL    H6248212   1.458   5.152   5.057 -1.1326 -0.9456  0.7688
   76MOL    H6348213   1.399   4.903   4.888 -0.4204 -0.9027  0.5574
   76MOL    H6448214   1.289   4.991   5.000 -0.8041 -2.9900  1.7537
   76MOL    H6548215   1.407   4.935   5.186 -2.6065  0.5391 -0.1552
   76MOL    C6648216   1.457   4.747   5.121 -0.0609 -0.4798 -0.6847
   76MOL    O6748217   1.483   4.675   5.021 -0.3318 -0.4104 -0.1352
   76MOL    C6848218   1.470   4.691   5.264 -1.0808 -0.8214  0.9657
   76MOL    C6948219   1.395   4.557   5.276  0.2645 -0.7558 -0.1784
   76MOL    C7048220   1.468   4.429   5.229 -0.6820  0.0287 -0.7979
   76MOL    C7148221   1.604   4.411   5.298  1.1165 -0.8448 -0.0123
   76MOL    C7248222   1.669   4.275   5.279  0.6139  0.9384 -0.4785
   76MOL    O7348223   1.660   4.216   5.173 -0.2283  1.0842  0.1131
   76MOL    N7448224   1.734   4.221   5.381 -0.5233  0.4937  0.0433
   76MOL    C7548225   1.822   4.102   5.368  0.1358 -0.4498 -0.1668
   76MOL    C7648226   1.756   3.982   5.443  0.2418 -0.5013  0.3403
   76MOL    C7748227   1.627   3.938   5.376 -1.1884  0.0546  0.3256
   76MOL    C7848228   1.651   3.894   5.232  0.2935 -0.0584 -0.0802
   76MOL    N7948229   1.538   3.815   5.181 -0.0895  0.1173  0.7665
   76MOL    H8048230   1.576   4.684   5.287 -0.5128  0.1009 -1.1912
   76MOL    H8148231   1.443   4.768   5.337  1.7108  1.4380 -0.2782
   76MOL    H8248232   1.370   4.540   5.381  1.0634 -0.3845  0.0755
   76MOL    H8348233   1.296   4.570   5.233  0.5780  1.1825 -0.3553
   76MOL    H8448234   1.476   4.432   5.120 -1.3506  2.0025 -0.8141
   76MOL    H8548235   1.397   4.351   5.255 -0.8136  0.2646 -0.4471
   76MOL    H8648236   1.594   4.455   5.398  0.5603  0.2328 -0.5333
   76MOL    H8748237   1.669   4.488   5.257  1.0712 -1.0414 -0.4501
   76MOL    H8848238   1.748   4.275   5.465  0.4777  0.5633 -0.1552
   76MOL    H8948239   1.923   4.133   5.398  0.3202 -0.6992 -0.5282
   76MOL    H9048240   1.850   4.071   5.268 -2.6882  0.0717 -1.1576
   76MOL    H9148241   1.817   3.894   5.463  0.5474 -0.5449 -0.7907
   76MOL    H9248242   1.724   4.018   5.541  2.2671  2.9060 -0.1608
   76MOL    H9348243   1.554   4.019   5.368 -2.0552 -0.6906  0.5891
   76MOL    H9448244   1.573   3.859   5.429  0.3119 -0.8220  0.5490
   76MOL    H9548245   1.745   3.838   5.228  1.2391  1.3917  1.4286
   76MOL    H9648246   1.671   3.972   5.158  3.6474 -1.0766 -0.3193
   76MOL    H9748247   1.446   3.841   5.214 -1.3762  0.2225 -2.6374
   76MOL    C9848248   1.546   3.708   5.093  0.0458 -0.3435  0.0200
   76MOL    O9948249   1.647   3.657   5.052  0.3940 -0.8020  0.1574
   76MOL   C10048250   1.417   3.657   5.046 -0.2317 -0.2827 -0.6298
   76MOL   C10148251   1.396   3.501   5.068 -0.5670 -0.3097 -0.1630
   76MOL   C10248252   1.271   3.442   5.014  0.1149 -0.8491  0.4835
   76MOL   C10348253   1.146   3.501   5.078 -0.3898 -0.5721  0.1678
   76MOL   C10448254   1.021   3.417   5.039 -0.4695 -0.0867  0.5776
   76MOL   O10548255   1.023   3.345   4.934  0.2511  0.0611 -1.0386
   76MOL   N10648256   0.913   3.415   5.118  0.2039  0.0236  0.3853
   76MOL   C10748257   0.801   3.325   5.110 -0.3300 -0.5644 -0.1987
   76MOL   C10848258   0.848   3.181   5.151  0.5623  0.4393 -0.0916
   76MOL   C10948259   0.732   3.087   5.102  0.4890 -0.0534 -0.2132
   76MOL   C11048260   0.754   2.939   5.114  0.5121 -0.2153  0.5080
   76MOL   N11148261   0.802   2.902   5.246 -0.0330 -0.3554  0.4152
   76MOL   H11248262   1.341   3.699   5.112 -0.3859  1.0959 -1.6770
   76MOL   H11348263   1.398   3.697   4.947  1.3050 -0.0162 -0.8325
   76MOL   H11448264   1.479   3.452   5.017  0.0769 -0.3368  0.8989
   76MOL   H11548265   1.408   3.478   5.173  0.4082 -2.1129 -0.6405
   76MOL   H11648266   1.268   3.336   5.040  0.4653 -0.6167  1.4868
   76MOL   H11748267   1.254   3.458   4.907 -2.0238 -1.2130  0.7440
   76MOL   H11848268   1.143   3.599   5.030  0.7363 -1.2121 -1.2555
   76MOL   H11948269   1.153   3.513   5.186  0.5294  3.0555 -0.2061
   76MOL   H12048270   0.916   3.486   5.190 -3.6912  1.8317 -1.0865
   76MOL   H12148271   0.772   3.333   5.005 -0.3155 -0.4192 -0.1932
   76MOL   H12248272   0.720   3.354   5.177 -0.2422  0.2182 -0.4186
   76MOL   H12348273   0.942   3.152   5.104 -0.6061 -0.9542 -1.5785
   76MOL   H12448274   0.857   3.184   5.260  0.1548 -0.5690 -0.0266
   76MOL   H12548275   0.707   3.123   5.002  1.1872  0.2864 -0.2616
   76MOL   H12648276   0.647   3.113   5.166 -0.6116 -1.7315 -0.9478
   76MOL   H12748277   0.834   2.926   5.040 -0.4714  0.6170 -0.7198
   76MOL   H12848278   0.668   2.879   5.084 -0.3965  0.8624  0.9608
   76MOL   H12948279   0.900   2.914   5.268 -0.3688  0.8246  1.2911
   76MOL   C13048280   0.720   2.870   5.347 -0.4811  0.3395  0.1112
   76MOL   O13148281   0.600   2.846   5.334  0.2655 -0.1960 -0.3064
   76MOL   C13248282   0.798   2.853   5.480 -0.0456 -0.6284 -0.5153
   76MOL   C13348283   0.730   2.770   5.588 -0.0526  0.2711  0.0565
   76MOL   C13448284   0.813   2.706   5.697  0.3384 -0.2491  0.9594
   76MOL   C13548285   0.918   2.792   5.762  0.7460 -0.5365  0.1839
   76MOL   C13648286   0.864   2.914   5.840  0.7507 -0.4313 -0.8721
   76MOL   O13748287   0.771   2.896   5.921 -0.3910 -0.0141  0.1632
   76MOL   N13848288   0.919   3.032   5.831  0.8103 -0.0276 -0.0129
   76MOL   C13948289   0.855   3.153   5.881  0.2748 -0.3634  0.4810
   76MOL   C14048290   0.957   3.265   5.900 -1.0835  0.0544  0.2149
   76MOL   C14148291   0.897   3.396   5.935  0.1257 -0.5592 -0.6680
   76MOL   C14248292   1.017   3.487   5.976  1.1394  0.5237 -1.4159
   76MOL   N14348293   0.966   3.627   5.989 -0.3689  0.0502  0.0610
   76MOL   H14448294   0.900   2.813   5.475 -0.0118 -1.2290  3.2178
   76MOL   H14548295   0.823   2.954   5.513 -1.5269 -0.2544 -0.5389
   76MOL   H14648296   0.665   2.837   5.643 -0.8202 -0.2676 -0.1864
   76MOL   H14748297   0.672   2.686   5.550  0.0700  0.9112 -1.5932
   76MOL   H14848298   0.861   2.617   5.656 -0.7812 -1.1085  1.4802
   76MOL   H14948299   0.749   2.669   5.778 -0.9078  3.0476  1.5495
   76MOL   H15048300   0.978   2.840   5.684  0.5529  1.5698  1.2946
   76MOL   H15148301   0.979   2.727   5.825  2.5942  1.5139  0.5883
   76MOL   H15248302   0.998   3.044   5.769 -0.8950  1.4628 -1.9664
   76MOL   H15348303   0.789   3.130   5.965  1.5723 -0.1032  1.5702
   76MOL   H15448304   0.783   3.191   5.808 -2.5574 -1.9774  2.3170
   76MOL   H15548305   1.026   3.235   5.979  0.8103  0.8981 -1.0781
   76MOL   H15648306   1.017   3.270   5.809  0.1462 -0.4854  0.9862
   76MOL   H15748307   0.819   3.381   6.009  0.4920 -0.3124 -0.2279
   76MOL   H15848308   0.848   3.440   5.848  1.0891 -0.8730 -1.3778
   76MOL   H15948309   1.095   3.469   5.902  1.4968 -1.1238 -0.6485
   76MOL   H16048310   1.057   3.454   6.072 -1.0565  0.7707 -0.3791
   76MOL   H16148311   0.902   3.642   6.066  0.0858  0.7820  0.3044
   76MOL   C16248312   1.013   3.735   5.925 -0.8392  0.8447  1.0046
   76MOL   O16348313   1.116   3.733   5.854 -0.2855  0.6045 -0.1685
   76MOL   C16448314   0.933   3.867   5.951 -0.0464 -0.3218 -0.0803
   76MOL   C16548315   0.842   3.911   5.841 -0.3689  0.2442  0.8721
   76MOL   C16648316   0.733   3.808   5.817  0.9015  0.4152  0.2284
   76MOL   C16748317   0.634   3.855   5.710 -0.6444 -0.1872 -0.6484
   76MOL   C16848318   0.546   3.739   5.671 -0.9155 -0.0865 -0.3904
   76MOL   O16948319   0.585   3.659   5.585  0.1136  0.0630  0.0356
   76MOL   N17048320   0.428   3.724   5.739  0.0137  0.2555 -0.9057
   76MOL   C17148321   0.332   3.617   5.719  0.4053  0.2648 -0.3355
   76MOL   C17248322   0.200   3.684   5.692  0.1288 -0.5687  0.6367
   76MOL   C17348323   0.082   3.584   5.670 -0.6783  0.2672 -0.2100
   76MOL   C17448324   7.656   3.648   5.621  0.0923  0.0704 -0.0146
   76MOL   N17548325   7.547   3.555   5.605 -0.2126  0.0358 -0.4404
   76MOL   H17648326   0.869   3.856   6.038  0.4119  1.8601  0.5613
   76MOL   H17748327   0.997   3.953   5.969 -2.3191  1.6293 -1.0137
   76MOL   H17848328   0.800   4.012   5.845  2.0701  1.3651 -0.6544
   76MOL   H17948329   0.898   3.927   5.748  0.2025  0.6626  1.2845
   76MOL   H18048330   0.679   3.789   5.909  2.4688 -0.7575  0.9361
   76MOL   H18148331   0.783   3.717   5.784 -0.7847 -0.3575 -0.2386
   76MOL   H18248332   0.691   3.877   5.620  0.2000 -0.5993 -0.2185
   76MOL   H18348333   0.575   3.939   5.748 -1.1973 -0.6460 -0.4919
   76MOL   H18448334   0.407   3.803   5.799 -0.2342 -0.5224  0.0403
   76MOL   H18548335   0.320   3.559   5.811 -1.5000 -0.7570 -1.2084
   76MOL   H18648336   0.355   3.555   5.633 -0.3139 -1.4113  0.6396
   76MOL   H18748337   0.172   3.751   5.774  1.4084 -0.5019  1.0293
   76MOL   H18848338   0.208   3.744   5.601 -2.6193 -1.4289 -0.2215
   76MOL   H18948339   0.049   3.530   5.758 -2.9289 -0.4660 -1.4472
   76MOL   H19048340   0.113   3.518   5.589  0.5272  0.1535  0.3344
   76MOL   H19148341   7.677   3.691   5.523 -0.3871 -1.7251 -0.9208
   76MOL   H19248342   7.618   3.723   5.690  0.1830 -0.5168  0.6731
   76MOL   H19348343   7.567   3.484   5.536 -0.7604 -1.5795  1.0306
   76MOL   C19448344   7.456   3.534   5.706 -0.9587  0.5857  0.0720
   76MOL   O19548345   7.459   3.597   5.812  0.0611  0.5344 -0.3775
   76MOL   C19648346   7.366   3.413   5.691  0.3557 -0.7752 -0.0707
   76MOL   C19748347   7.229   3.444   5.748 -0.0670  0.0210  0.5435
   76MOL   C19848348   7.131   3.326   5.751 -0.0381 -0.0313  0.3700
   76MOL   C19948349   7.015   3.345   5.854 -0.4136 -0.1698 -0.4112
   76MOL   C20048350   6.880   3.280   5.818 -1.4087 -0.0323 -0.6225
   76MOL   O20148351   6.878   3.198   5.726  0.0249  0.1332  0.1664
   76MOL   N20248352   6.773   3.316   5.891 -0.3692  0.0632  0.0991
   76MOL   C20348353   6.650   3.233   5.898 -0.2082 -0.2336 -0.7166
   76MOL   C20448354   6.555   3.249   5.780 -0.2448  0.2072  0.2995
   76MOL   C20548355   6.495   3.119   5.737  0.6711 -0.3007  0.0364
   76MOL   C20648356   6.591   3.010   5.700 -0.1135 -0.0659 -0.7012
   76MOL   N20748357   6.526   2.882   5.673  0.7109  0.4502 -0.3349
   76MOL   H20848358   7.359   3.396   5.584 -1.9139  0.6087 -0.1675
   76MOL   H20948359   7.408   3.319   5.729 -0.7670 -1.2410  0.0378
   76MOL   H21048360   7.239   3.485   5.848 -0.7778  1.6039 -0.0145
   76MOL   H21148361   7.184   3.527   5.693 -1.2658 -0.0874  1.3613
   76MOL   H21248362   7.191   3.242   5.784  1.2522  1.1216  0.9865
   76MOL   H21348363   7.096   3.304   5.650  0.0840 -1.7963  0.6857
   76MOL   H21448364   6.993   3.452   5.848  0.2493  0.0012  0.1068
   76MOL   H21548365   7.049   3.322   5.955  2.3975  0.3267 -1.1760
   76MOL   H21648366   6.795   3.382   5.964 -0.5541  4.0017 -3.2181
   76MOL   H21748367   6.589   3.274   5.979  0.8698 -1.4085  0.7084
   76MOL   H21848368   6.681   3.131   5.921 -2.2424 -0.6811  0.2129
   76MOL   H21948369   6.474   3.317   5.805  1.5315  2.1802  0.8476
   76MOL   H22048370   6.611   3.283   5.693  0.0897  0.7472  0.7245
   76MOL   H22148371   6.423   3.130   5.656 -1.7503 -1.8812  1.8913
   76MOL   H22248372   6.430   3.083   5.817 -0.9123  0.3569 -0.9304
   76MOL   H22348373   6.671   2.994   5.772  0.4980  0.6086 -1.2283
   76MOL   H22448374   6.640   3.039   5.607 -0.6097 -3.4425 -2.1084
   76MOL   H22548375   6.500   2.863   5.577  1.3191 -1.2058 -0.1797
   76MOL   C22648376   6.460   2.801   5.761 -0.1543  0.0067 -0.2235
   76MOL   O22748377   6.463   2.818   5.882 -0.5268 -0.1503 -0.0156
   76MOL   C22848378   6.367   2.691   5.698 -0.1747 -0.8867  0.3561
   76MOL   C22948379   6.221   2.717   5.737  0.0264  0.2460 -0.1809
   76MOL   C23048380   6.170   2.858   5.704  0.2030 -0.1314  0.3006
   76MOL   C23148381   6.019   2.882   5.705  0.6288 -0.1187  0.3968
   76MOL   C23248382   5.976   3.027   5.722 -0.0411  0.3722 -0.2131
   76MOL   O23348383   6.030   3.121   5.663 -0.7032  0.4868  0.4853
   76MOL   N23448384   5.873   3.050   5.805  0.9134  0.2056  0.0398
   76MOL   C23548385   5.802   3.181   5.826 -0.2833  0.0717  0.3545
   76MOL   C23648386   5.757   3.192   5.974 -0.1005 -0.0570  0.6377
   76MOL   C23748387   5.672   3.310   6.001  0.0128 -0.1814 -0.1060
   76MOL   C23848388   5.642   3.326   6.148  0.6091  0.5755 -0.1483
   76MOL   N23948389   5.516   3.383   6.181 -0.2117 -0.5881  0.0657
   76MOL   H24048390   6.368   2.687   5.589 -2.1298  1.2519  0.2295
   76MOL   H24148391   6.396   2.595   5.741 -1.4808 -1.4393  0.0599
   76MOL   H24248392   6.156   2.635   5.704  0.4073 -0.5447  1.0256
   76MOL   H24348393   6.217   2.710   5.846  1.5552  0.4175 -0.1050
   76MOL   H24448394   6.214   2.889   5.608 -0.6912 -0.5345 -0.2455
   76MOL   H24548395   6.199   2.921   5.788 -2.0326 -0.5211  1.3730
   76MOL   H24648396   5.977   2.828   5.791 -0.0356 -2.5424 -1.4034
   76MOL   H24748397   5.978   2.841   5.613 -0.5186 -0.0119  0.8474
   76MOL   H24848398   5.826   2.965   5.833 -1.3683  1.6996  0.9392
   76MOL   H24948399   5.734   3.192   5.741  1.0724 -0.1623 -0.7813
   76MOL   H25048400   5.864   3.268   5.803 -1.7198  0.7122 -1.2288
   76MOL   H25148401   5.700   3.101   5.996 -1.7248  0.9738  0.7247
   76MOL   H25248402   5.847   3.184   6.036  0.4007  0.3611 -0.0320
   76MOL   H25348403   5.583   3.327   5.941  1.0363  0.8674 -1.3639
   76MOL   H25448404   5.732   3.394   5.966 -1.1963  0.8644  0.2821
   76MOL   H25548405   5.722   3.392   6.181  1.0575  0.4423 -0.9488
   76MOL   H25648406   5.649   3.233   6.204 -0.2354  1.1744  0.9816
   76MOL   H25748407   5.479   3.462   6.130 -0.0765 -0.2772  0.4460
   76MOL   C25848408   5.441   3.350   6.284 -0.1165 -0.2906  1.0014
   76MOL   O25948409   5.477   3.274   6.372 -0.2249  0.7785 -0.3794
   76MOL   C26048410   5.302   3.417   6.305 -0.2193 -0.5493  0.8393
   76MOL   C26148411   5.200   3.309   6.267  0.0221 -0.6403 -1.1203
   76MOL   C26248412   5.050   3.350   6.260 -0.4878 -0.2318 -0.6927
   76MOL   C26348413   4.947   3.245   6.223 -0.4138 -0.1637 -0.1971
   76MOL   C26448414   4.927   3.208   6.076 -0.2803  0.8283  0.5948
   76MOL   O26548415   4.979   3.277   5.986 -0.0245  0.6280  0.4145
   76MOL   N26648416   4.852   3.097   6.054  0.1478  0.5701  0.3472
   76MOL   C26748417   4.835   3.014   5.933  0.1040 -0.2059 -0.5120
   76MOL   C26848418   4.774   2.880   5.971  0.6904 -0.2468 -0.1069
   76MOL   C26948419   4.760   2.789   5.852 -0.4683 -0.4861  0.4205
   76MOL   C27048420   4.693   2.651   5.881 -0.3863  0.0077 -0.1028
   76MOL   N27148421   4.786   2.575   5.957 -0.0738 -0.0478 -0.5609
   76MOL   H27248422   5.287   3.453   6.407  0.7349  2.9724 -0.1923
   76MOL   H27348423   5.306   3.512   6.251 -1.9250 -1.0672 -0.2450
   76MOL   H27448424   5.215   3.278   6.164  1.8988  1.7607 -1.6135
   76MOL   H27548425   5.212   3.219   6.327 -0.4029  1.3369  2.0518
   76MOL   H27648426   5.058   3.434   6.191 -0.2019  0.4322  0.1322
   76MOL   H27748427   5.033   3.386   6.362 -2.2819 -1.5204 -0.5050
   76MOL   H27848428   4.850   3.279   6.257  0.1001 -0.1278  1.3002
   76MOL   H27948429   4.958   3.151   6.278  0.4562 -1.8398 -3.1246
   76MOL   H28048430   4.811   3.057   6.137  3.3521  0.0505  1.7766
   76MOL   H28148431   4.929   3.000   5.881 -0.0362  0.6532 -1.0133
   76MOL   H28248432   4.764   3.056   5.862  0.2880 -0.0363 -0.5953
   76MOL   H28348433   4.850   2.836   6.035  0.4854 -1.5474 -0.7225
   76MOL   H28448434   4.679   2.902   6.020  2.2858  0.6607  2.6511
   76MOL   H28548435   4.858   2.760   5.813 -0.3251 -0.1477  0.5332
   76MOL   H28648436   4.701   2.826   5.768  1.3152  0.0200 -0.6224
   76MOL   H28748437   4.682   2.590   5.791 -1.8414  0.2182 -0.0903
   76MOL   H28848438   4.599   2.675   5.931 -0.7005 -0.4181 -0.4834
   76MOL   H28948439   4.883   2.588   5.934 -0.2434 -0.0026 -1.2712
   76MOL   C29048440   4.757   2.507   6.066  0.1606 -0.1769  0.3450
   76MOL   O29148441   4.640   2.487   6.103 -0.1906 -0.3554  0.0515
   76MOL   C29248442   4.865   2.431   6.133  0.0793 -0.1425 -0.2403
   76MOL   C29348443   4.858   2.275   6.128 -0.1305 -1.0752 -0.1683
   76MOL   C29448444   4.922   2.210   6.012 -0.4107  1.3378  0.2134
   76MOL   C29548445   4.833   2.208   5.885  0.1419  0.2387 -0.4183
   76MOL   C29648446   4.898   2.270   5.766  0.8887  0.1302 -0.2504
   76MOL   O29748447   4.982   2.353   5.777 -0.0730 -0.3138 -0.8367
   76MOL   N29848448   4.857   2.230   5.649  0.1574  0.4462  0.6445
   76MOL   C29948449   4.911   2.260   5.517  0.2397 -0.2377 -0.5864
   76MOL   C30048450   4.986   2.146   5.451  0.1977  0.3868 -0.7734
   76MOL   C30148451   4.916   2.009   5.470  0.1385 -1.3223 -0.0427
   76MOL   C30248452   4.965   1.888   5.389 -0.5868 -0.1075  0.5559
   76MOL   N30348453   4.889   1.769   5.429  0.1831 -0.0807  0.0687
   76MOL   H30448454   4.966   2.455   6.101  0.3136 -0.2361  0.4305
   76MOL   H30548455   4.866   2.470   6.235 -0.6776  0.3768 -0.4254
   76MOL   H30648456   4.904   2.236   6.218 -2.7446 -0.2218  1.5932
   76MOL   H30748457   4.751   2.252   6.129 -0.7109  1.4754  0.3192
   76MOL   H30848458   4.939   2.103   6.029 -2.2614  0.6596 -2.0298
   76MOL   H30948459   5.026   2.242   6.008 -0.0332  0.1726  0.4136
   76MOL   H31048460   4.739   2.260   5.900 -1.7233 -2.5146 -2.2006
   76MOL   H31148461   4.811   2.104   5.861 -3.4256  1.1381 -1.3156
   76MOL   H31248462   4.780   2.163   5.644 -0.7808  1.6579 -2.3968
   76MOL   H31348463   4.972   2.350   5.525 -2.8809  2.2114 -3.0694
   76MOL   H31448464   4.830   2.275   5.446  0.6606  0.5832 -0.9047
   76MOL   H31548465   4.988   2.160   5.343  2.0847  1.1149 -0.6712
   76MOL   H31648466   5.090   2.138   5.481 -0.3446  0.0178  1.0609
   76MOL   H31748467   4.810   2.016   5.446  0.5638  1.6399 -1.3183
   76MOL   H31848468   4.912   1.991   5.578 -1.3656 -0.8065 -0.0009
   76MOL   H31948469   5.066   1.864   5.423 -1.1286 -1.0796  1.5178
   76MOL   H32048470   4.973   1.916   5.284  3.9971  1.4933  1.2161
   76MOL   H32148471   4.806   1.750   5.373 -0.3000  0.5298  0.5639
   76MOL   C32248472   4.904   1.692   5.537 -0.1442 -0.0043  0.3460
   76MOL   O32348473   4.995   1.703   5.622  0.3643  0.5155  0.2341
   76MOL   C32448474   4.809   1.570   5.547  0.1494 -0.0719  0.0910
   76MOL   C32548475   4.781   1.524   5.690 -0.2145  0.7565 -0.8609
   76MOL   C32648476   4.708   1.386   5.697 -0.5320 -0.5037 -0.0905
   76MOL   C32748477   4.643   1.340   5.828 -0.2792  0.0204  0.2782
   76MOL   C32848478   4.500   1.382   5.868  0.3752 -0.4165 -0.1035
   76MOL   O32948479   4.427   1.439   5.786 -0.2248 -0.3590  0.2055
   76MOL   N33048480   4.465   1.354   5.992 -0.2802 -0.0651 -0.5415
   76MOL   C33148481   4.348   1.425   6.045  0.3287  0.5703 -0.1960
   76MOL   C33248482   4.322   1.370   6.185  0.9286 -0.0785 -0.3937
   76MOL   C33348483   4.345   1.220   6.204 -0.4523  0.0045  0.9942
   76MOL   C33448484   4.269   1.163   6.324  1.0076 -0.0149  0.2248
   76MOL   N33548485   4.125   1.152   6.301  0.4665 -0.3624  0.2372
   76MOL   H33648486   4.719   1.591   5.489 -0.1046  2.1989  1.2642
   76MOL   H33748487   4.862   1.486   5.501 -0.2852 -0.6296  0.5992
   76MOL   H33848488   4.877   1.523   5.741  0.5378  1.1077 -2.2307
   76MOL   H33948489   4.716   1.600   5.734 -2.0710 -1.1202 -0.3082
   76MOL   H34048490   4.781   1.310   5.671 -0.3992 -0.8159  1.1552
   76MOL   H34148491   4.639   1.381   5.614 -2.2454  0.9419  1.1999
   76MOL   H34248492   4.703   1.376   5.912 -0.9858  1.0747  0.3494
   76MOL   H34348493   4.641   1.231   5.830  2.4281 -0.0549  0.3668
   76MOL   H34448494   4.521   1.297   6.054 -2.1895 -1.7772 -0.3207
   76MOL   H34548495   4.266   1.412   5.973  0.2296  1.0718 -0.1759
   76MOL   H34648496   4.369   1.532   6.045  0.8916  0.5201 -3.1860
   76MOL   H34748497   4.391   1.407   6.260  0.8749 -0.7693  0.0040
   76MOL   H34848498   4.223   1.397   6.221  0.6729  0.1827 -1.2862
   76MOL   H34948499   4.452   1.209   6.220 -0.2072 -1.8865 -1.5666
   76MOL   H35048500   4.323   1.160   6.115 -2.8368  3.1132 -0.6139
   76MOL   H35148501   4.292   1.220   6.414  1.6870  0.3137 -0.1561
   76MOL   H35248502   4.302   1.061   6.344  0.1220  0.0199  1.9635
   76MOL   H35348503   4.085   1.082   6.240 -2.8075 -0.3934  2.2936
   76MOL   C35448504   4.030   1.235   6.352 -0.6769  0.0759 -0.3820
   76MOL   O35548505   4.046   1.324   6.436  0.3873  0.2326 -0.2070
   76MOL   C35648506   3.890   1.203   6.304  0.7176  0.0836  0.2013
   76MOL   C35748507   3.816   1.133   6.421 -0.3060 -0.6988  0.0871
   76MOL   C35848508   3.881   0.997   6.442  0.4553 -0.8491 -0.0940
   76MOL   C35948509   3.815   0.907   6.557  0.2683 -0.2401 -0.2517
   76MOL   C36048510   3.696   0.810   6.524 -0.1217 -0.4518  0.1817
   76MOL   O36148511   3.706   0.716   6.443  0.1732  0.0602 -0.4202
   76MOL   N36248512   3.581   0.845   6.587 -0.3749  0.0934 -0.1407
   76MOL   C36348513   3.468   0.750   6.600 -0.1305 -0.5452  0.2781
   76MOL   C36448514   3.491   0.655   6.712  0.1560 -0.3927 -0.1405
   76MOL   C36548515   3.371   0.557   6.734 -0.3318 -0.5221  0.3102
   76MOL   C36648516   3.385   0.448   6.846  0.8778  0.2597  0.1836
   76MOL   N36748517   3.375   0.504   6.981 -0.0530  0.0175  0.1396
   76MOL   H36848518   3.840   1.297   6.280  1.0583 -0.0134 -0.8837
   76MOL   H36948519   3.886   1.137   6.217  3.1225  2.4638 -1.7945
   76MOL   H37048520   3.826   1.197   6.509  2.5399  0.2868 -0.8917
   76MOL   H37148521   3.708   1.118   6.419 -0.4304 -0.1276  1.6509
   76MOL   H37248522   3.983   1.010   6.477  0.1752 -1.8742  1.1382
   76MOL   H37348523   3.909   0.939   6.354  1.8304 -2.0862  1.1301
   76MOL   H37448524   3.792   0.962   6.648 -1.5638  0.2884 -1.0096
   76MOL   H37548525   3.885   0.829   6.588  0.3850 -0.5637 -1.3086
   76MOL   H37648526   3.586   0.923   6.651  1.5765  0.1814 -0.3710
   76MOL   H37748527   3.444   0.701   6.506 -1.1788 -1.1147  0.8248
   76MOL   H37848528   3.376   0.807   6.617  2.1374  2.9554  1.4189
   76MOL   H37948529   3.579   0.594   6.689  0.1823 -1.3480  2.2948
   76MOL   H38048530   3.513   0.708   6.804 -1.1205  2.6978 -1.5592
   76MOL   H38148531   3.352   0.503   6.641  2.4510 -0.4918 -0.3034
   76MOL   H38248532   3.285   0.623   6.747 -1.8793 -2.2065 -1.0288
   76MOL   H38348533   3.478   0.393   6.830  1.1799  0.7936  0.0985
   76MOL   H38448534   3.303   0.380   6.825  0.6189 -0.6619  3.8592
   76MOL   H38548535   3.459   0.494   7.037 -0.7288  1.2159  1.4059
   76MOL   C38648536   3.253   0.531   7.026  0.4915 -0.6462  0.1277
   76MOL   O38748537   3.152   0.534   6.951  0.5649  0.2399  1.0425
   76MOL   C38848538   3.243   0.579   7.175 -0.1588 -1.2171  0.4505
   76MOL   C38948539   3.134   0.690   7.202 -0.2684  0.2119  0.7635
   76MOL   C39048540   3.155   0.819   7.114 -0.3804 -0.3980  0.3289
   76MOL   C39148541   3.058   0.941   7.119 -0.7320  0.5624  0.2874
   76MOL   C39248542   3.065   1.011   7.252  0.2270  0.3884  0.1475
   76MOL   O39348543   3.041   0.944   7.353 -0.2125  0.5230  0.2397
   76MOL   N39448544   3.107   1.131   7.266  0.7091  0.7082  0.5603
   76MOL   C39548545   3.128   1.204   7.383  0.7148  0.2611 -0.3263
   76MOL   C39648546   3.110   1.359   7.350  0.0762  0.0673  0.6176
   76MOL   C39748547   3.092   1.438   7.480 -0.4585 -0.2408  0.0426
   76MOL   C39848548   3.073   1.587   7.455 -0.2544  0.6085 -0.4383
   76MOL   N39948549   3.020   1.656   7.572 -0.0373 -0.8009  0.1397
   76MOL   H40048550   3.229   0.491   7.238  4.1987 -2.4104 -0.1087
   76MOL   H40148551   3.341   0.617   7.205  0.1037 -1.6787  0.1950
   76MOL   H40248552   3.035   0.646   7.187 -0.8453  1.9695 -0.7228
   76MOL   H40348553   3.133   0.709   7.309  2.2902 -0.3879  0.9249
   76MOL   H40448554   3.135   0.775   7.016 -1.4946 -0.2967  0.4996
   76MOL   H40548555   3.261   0.845   7.112 -0.0145 -1.8835 -1.2556
   76MOL   H40648556   2.964   0.902   7.082  0.9959 -0.1715 -3.5967
   76MOL   H40748557   3.084   1.010   7.038  1.4304  0.8688  1.1968
   76MOL   H40848558   3.136   1.182   7.183  0.8666  0.2152  0.3116
   76MOL   H40948559   3.223   1.187   7.435 -0.3095 -1.0427  1.1778
   76MOL   H41048560   3.061   1.172   7.463 -0.3455  2.0616 -0.4778
   76MOL   H41148561   3.200   1.392   7.298  0.1249 -1.4023 -0.2510
   76MOL   H41248562   3.025   1.382   7.286 -0.1341  0.0276  0.8808
   76MOL   H41348563   3.179   1.432   7.545 -0.0038  1.0094 -0.4476
   76MOL   H41448564   3.004   1.394   7.527 -0.3373 -1.7570 -1.1170
   76MOL   H41548565   3.010   1.590   7.366 -2.8568  0.2860  1.3263
   76MOL   H41648566   3.164   1.638   7.426 -0.7415  0.7599 -1.7349
   76MOL   H41748567   3.086   1.699   7.634  1.1298 -1.9470 -0.2837
   76MOL   C41848568   2.890   1.673   7.595 -0.3767 -0.0834 -0.6937
   76MOL   O41948569   2.805   1.633   7.514  0.1152 -0.0638 -0.2047
   76MOL   C42048570   2.855   1.755   0.023  0.0190 -0.0783  0.3759
   76MOL   C42148571   2.732   1.702   0.096 -1.2449  0.1148 -0.5965
   76MOL   C42248572   2.763   1.593   0.199 -0.9057  0.8933 -0.2039
   76MOL   C42348573   2.636   1.517   0.235  0.2262  1.0824  0.4457
   76MOL   C42448574   2.537   1.597   0.327  0.0544  0.1244  0.0896
   76MOL   O42548575   2.544   1.718   0.349  0.4627  0.8372  0.0880
   76MOL   N42648576   2.438   1.523   0.371  0.2852  0.0134  0.5170
   76MOL   C42748577   2.327   1.562   0.460  0.1494 -0.5583 -0.4782
   76MOL   C42848578   2.258   1.433   0.501  0.1186  0.0227  0.0950
   76MOL   C42948579   2.133   1.454   0.594 -0.7552 -0.1041 -0.1288
   76MOL   C43048580   2.053   1.326   0.618 -0.1920 -0.6159  0.0266
   76MOL   N43148581   1.914   1.347   0.674 -0.5045 -0.4437  0.4315
   76MOL   H43248582   2.946   1.777   0.078  1.6545 -0.8549 -1.9395
   76MOL   H43348583   2.818   1.852   7.691 -0.3222 -0.9187 -1.7840
   76MOL   H43448584   2.685   1.778   0.158  0.6942 -1.0093  2.3676
   76MOL   H43548585   2.662   1.670   0.018 -2.7160  1.6444  0.0577
   76MOL   H43648586   2.818   1.641   0.280 -2.0698  1.1374  0.4535
   76MOL   H43748587   2.849   1.540   0.156 -0.3749  0.7982  0.9563
   76MOL   H43848588   2.656   1.428   0.294 -1.1203  0.8013  0.4832
   76MOL   H43948589   2.579   1.476   0.151 -0.2939  0.1422  1.2509
   76MOL   H44048590   2.429   1.431   0.331  0.3887 -0.2793  1.1743
   76MOL   H44148591   2.256   1.636   0.425  0.7267  0.7432  1.0783
   76MOL   H44248592   2.370   1.600   0.553 -0.1409 -3.1019  0.7413
   76MOL   H44348593   2.225   1.382   0.411 -1.4690  0.5397  0.3793
   76MOL   H44448594   2.342   1.382   0.550 -0.0327 -1.3354 -1.0437
   76MOL   H44548595   2.071   1.528   0.544 -0.8781  0.2074  0.4882
   76MOL   H44648596   2.179   1.494   0.684 -2.4233 -0.3405  0.8427
   76MOL   H44748597   2.115   1.259   0.677  0.1667 -1.7141 -1.5832
   76MOL   H44848598   2.041   1.271   0.525  1.6691 -1.3353  0.1832
   76MOL   H44948599   1.897   1.329   0.772  2.9815 -1.4053  0.9376
   76MOL   C45048600   1.822   1.424   0.611 -0.6587  0.1486  0.2851
   76MOL   O45148601   1.846   1.484   0.502 -0.4254 -0.5617 -0.1896
   76MOL   C45248602   1.691   1.445   0.690 -0.6957 -0.4199 -0.0802
   76MOL   C45348603   1.612   1.564   0.653  0.4647 -0.6234  0.3943
   76MOL   C45448604   1.568   1.655   0.766  0.5485  0.3100 -0.2707
   76MOL   C45548605   1.494   1.780   0.731 -0.1919  0.3885  0.5715
   76MOL   C45648606   1.442   1.866   0.847 -0.4935 -0.3213  0.2265
   76MOL   O45748607   1.440   1.820   0.962 -0.8384  0.9192  0.7168
   76MOL   N45848608   1.417   1.998   0.822  0.2104 -0.1130  0.1452
   76MOL   C45948609   1.346   2.088   0.920  0.4067 -0.1141 -0.0324
   76MOL   C46048610   1.364   2.241   0.899 -0.6639  0.1075  0.1969
   76MOL   C46148611   1.364   2.300   0.755  0.9347 -0.0858  0.1086
   76MOL   C46248612   1.226   2.311   0.694 -0.2032  0.6775 -0.6338
   76MOL   N46348613   1.227   2.368   0.566 -0.1345 -0.1837 -0.1825
   76MOL   H46448614   1.628   1.357   0.682  2.0220 -2.3826 -0.6009
   76MOL   H46548615   1.711   1.451   0.797  1.7376  0.0800 -0.5334
   76MOL   H46648616   1.656   1.635   0.583 -1.7044  1.9634  1.5278
   76MOL   H46748617   1.522   1.540   0.595  0.2818  3.9064 -1.4461
   76MOL   H46848618   1.652   1.704   0.814 -0.2691  1.6729 -0.1903
   76MOL   H46948619   1.523   1.592   0.844  1.1729 -2.3398 -1.9745
   76MOL   H47048620   1.405   1.754   0.673 -0.7934  2.5675  0.4589
   76MOL   H47148621   1.553   1.839   0.660 -2.4325  2.1724  0.1130
   76MOL   H47248622   1.434   2.032   0.728  1.0963  1.9393  1.0245
   76MOL   H47348623   1.374   2.059   1.021 -0.7289 -0.4078  0.1986
   76MOL   H47448624   1.241   2.061   0.914  0.6923 -1.7173  1.6799
   76MOL   H47548625   1.288   2.295   0.954 -2.3392 -1.3996 -0.5778
   76MOL   H47648626   1.460   2.257   0.948 -0.6171 -0.5020  0.3018
   76MOL   H47748627   1.430   2.238   0.695  1.4766  2.7745 -2.3640
   76MOL   H47848628   1.409   2.399   0.765 -0.6655  0.4336  2.7447
   76MOL   H47948629   1.174   2.373   0.768 -1.9635  1.0217 -2.1089
   76MOL   H48048630   1.179   2.213   0.684 -0.6983  0.9468 -0.9998
   76MOL   H48148631   1.187   2.312   0.492  0.1289 -4.2634  2.5665
   76MOL   C48248632   1.284   2.484   0.520 -0.2385  0.7999 -0.1498
   76MOL   O48348633   1.350   2.564   0.583 -0.4245  0.0926 -0.1513
   76MOL   C48448634   1.260   2.505   0.373  0.8605  0.5296 -0.0607
   76MOL   C48548635   1.291   2.381   0.294  0.0720 -0.5281 -0.6065
   76MOL   C48648636   1.323   2.438   0.156 -0.4599 -0.4882  0.1156
   76MOL   C48748637   1.471   2.467   0.116 -0.0355 -0.3817 -0.3761
   76MOL   C48848638   1.580   2.354   0.110 -0.4960 -0.6172  0.7111
   76MOL   O48948639   1.587   2.270   0.201  0.0938  0.3655  0.1990
   76MOL   N49048640   1.662   2.357   0.000 -0.3858  0.4297 -0.0748
   76MOL   C49148641   1.751   2.243   7.672  0.9865  0.1768  0.2442
   76MOL   C49248642   1.887   2.256   0.042 -0.0532 -0.8522  0.8481
   76MOL   C49348643   1.986   2.136   0.019 -0.4374 -0.2597 -0.6304
   76MOL   C49448644   2.117   2.166   0.094 -0.6690 -0.3620 -0.1751
   76MOL   N49548645   2.200   2.047   0.120  0.4037  0.1497  0.1921
   76MOL   H49648646   1.167   2.554   0.345 -2.1114 -4.3589  0.5398
   76MOL   H49748647   1.325   2.588   0.344  1.6010 -0.5073 -1.4217
   76MOL   H49848648   1.370   2.320   0.337  0.2733  1.4295  1.8639
   76MOL   H49948649   1.199   2.324   0.278 -0.0430 -0.4780 -0.1055
   76MOL   H50048650   1.259   2.524   0.136 -0.4616 -0.3206  0.8288
   76MOL   H50148651   1.288   2.364   0.084 -0.6983 -0.1926 -0.0711
   76MOL   H50248652   1.512   2.547   0.177 -1.5108  0.3065 -0.2768
   76MOL   H50348653   1.465   2.501   0.012  2.1813 -2.8924 -1.3786
   76MOL   H50448654   1.654   2.434   7.637 -0.0980 -0.9388 -1.7805
   76MOL   H50548655   1.749   2.246   7.563 -1.5571 -1.5662  0.2012
   76MOL   H50648656   1.711   2.146   7.701  1.5641  0.1301  0.8864
   76MOL   H50748657   1.932   2.350   0.011 -1.2202 -1.1231 -1.8233
   76MOL   H50848658   1.873   2.266   0.149  0.2462  0.0500  0.8020
   76MOL   H50948659   2.008   2.118   7.615  2.0201 -2.6695  0.2613
   76MOL   H51048660   1.936   2.049   0.061 -0.4229 -0.0913 -0.2641
   76MOL   H51148661   2.111   2.217   0.190  2.6356 -1.7540  0.8684
   76MOL   H51248662   2.171   2.237   0.031  4.2874 -1.3010  2.7775
   76MOL   H51348663   2.148   1.964   0.146  1.1717 -0.7248 -1.0621
   76MOL   C51448664   2.333   2.033   0.098 -0.4313  0.7359 -0.9500
   76MOL   O51548665   2.412   2.129   0.083  0.5274 -0.8072  0.0244
   76MOL   C51648666   2.385   1.892   0.125 -0.8217 -0.2120  0.1737
   76MOL   C51748667   2.436   1.824   7.699  0.2780 -0.6336 -0.1800
   76MOL   C51848668   2.337   1.788   7.586  0.6799  0.0211 -0.0107
   76MOL   C51948669   2.404   1.706   7.479  0.7115  0.3043 -0.1905
   76MOL   C52048670   2.423   1.556   7.507 -0.6558 -0.4479 -0.3551
   76MOL   O52148671   2.329   1.488   7.532  0.3977  0.4362  0.4796
   76MOL   N52248672   2.544   1.509   7.485  0.0402  0.4092  0.5035
   76MOL   C52348673   2.588   1.373   7.459  0.2444 -0.4867  0.0103
   76MOL   C52448674   2.652   1.368   7.326  0.2460 -0.5336 -0.0843
   76MOL   C52548675   2.715   1.235   7.292  0.2921  0.1987 -0.3764
   76MOL   C52648676   2.735   1.197   7.144 -0.2203 -0.0956  0.2429
   76MOL   N52748677   2.758   1.312   7.058 -0.0647 -0.8921 -0.2266
   76MOL   H52848678   2.464   1.910   0.197 -0.5925 -0.4197 -0.0244
   76MOL   H52948679   2.316   1.830   0.181 -0.0249  1.0532  2.6276
   76MOL   H53048680   2.519   1.878   7.653 -0.8439  1.2916 -0.0097
   76MOL   H53148681   2.491   1.735   0.029 -1.5260 -2.5306 -2.1608
   76MOL   H53248682   2.294   1.874   7.535  1.6249  0.3506 -0.2533
   76MOL   H53348683   2.255   1.733   7.634  1.4096  1.6686  3.2503
   76MOL   H53448684   2.500   1.750   7.450  0.4388  2.3152  1.7980
   76MOL   H53548685   2.340   1.720   7.392  1.3380  1.1325 -0.5300
   76MOL   H53648686   2.621   1.574   7.481  0.6961 -0.2764  1.8044
   76MOL   H53748687   2.500   1.309   7.470  0.7740 -1.1532  0.3705
   76MOL   H53848688   2.658   1.349   7.540 -1.1234 -1.1474  1.0253
   76MOL   H53948689   2.570   1.389   7.257  0.4893 -1.5224 -0.6892
   76MOL   H54048690   2.720   1.452   7.315 -0.0536 -0.3338 -0.4469
   76MOL   H54148691   2.659   1.152   7.335  0.3769  0.7187  0.7330
   76MOL   H54248692   2.813   1.248   7.339 -1.1058  2.1436  2.1145
   76MOL   H54348693   2.644   1.147   7.110 -0.0728 -0.3091  0.1635
   76MOL   H54448694   2.813   1.121   7.140 -0.3112 -0.0689 -2.2820
   76MOL   H54548695   2.679   1.368   7.028  2.4280  1.5509 -2.4744
   76MOL   C54648696   2.870   1.333   6.986 -0.5084 -0.2886 -0.4927
   76MOL   O54748697   2.975   1.271   7.006 -0.0182  0.3989 -0.2962
   76MOL   C54848698   2.872   1.462   6.906  0.0177 -0.2079 -0.1343
   76MOL   C54948699   2.904   1.439   6.750 -0.3202 -0.2827  0.5342
   76MOL   C55048700   2.902   1.576   6.672 -0.2400  0.0364 -0.1028
   76MOL   C55148701   2.954   1.558   6.528 -0.6623  0.8631  0.3493
   76MOL   C55248702   2.962   1.676   6.428 -0.1701  0.3140 -0.1790
   76MOL   O55348703   2.871   1.754   6.419  0.2594 -0.1371 -0.4021
   76MOL   N55448704   3.059   1.682   6.343 -0.1251 -0.6010 -0.3622
   76MOL   C55548705   3.053   1.752   6.209  0.6251 -0.5915  0.2980
   76MOL   C55648706   3.189   1.750   6.133 -0.2109 -0.1758  0.3216
   76MOL   C55748707   3.221   1.610   6.079  0.0662  0.6358  0.6563
   76MOL   C55848708   3.163   1.576   5.946 -0.0923 -0.2287 -0.6748
   76MOL   N55948709   3.204   1.439   5.910  0.2850  0.2250 -0.0651
   76MOL   H56048710   2.782   1.522   6.916 -1.3317 -1.8045 -2.1688
   76MOL   H56148711   2.957   1.515   6.948  1.6902 -0.9084 -2.4829
   76MOL   H56248712   3.002   1.390   6.745  0.5627  1.6164 -1.7318
   76MOL   H56348713   2.833   1.365   6.712  0.2957 -0.3376 -0.5472
   76MOL   H56448714   2.957   1.655   6.723  0.6669 -0.6847  0.0548
   76MOL   H56548715   2.804   1.624   6.674 -0.3898 -0.2548 -0.5242
   76MOL   H56648716   2.878   1.494   6.484  0.4416  0.2819 -0.7221
   76MOL   H56748717   3.046   1.502   6.542 -1.4951 -0.5100  0.3516
   76MOL   H56848718   3.142   1.624   6.352  0.8071  0.8977  0.9001
   76MOL   H56948719   3.027   1.857   6.222 -1.5602 -0.9587 -0.8204
   76MOL   H57048720   2.976   1.698   6.155  0.4001  0.4822 -0.4747
   76MOL   H57148721   3.183   1.822   6.051  3.6239 -0.3469 -0.1923
   76MOL   H57248722   3.276   1.790   6.184  0.2243 -1.3231  0.4927
   76MOL   H57348723   3.188   1.534   6.150  0.6524  0.5915  0.8874
   76MOL   H57448724   3.328   1.588   6.067  0.1485  0.5670  1.5052
   76MOL   H57548725   3.187   1.652   5.872 -0.1411 -0.6832 -1.1535
   76MOL   H57648726   3.055   1.578   5.957 -0.0256 -1.9838  0.6644
   76MOL   H57748727   3.257   1.380   5.973  1.8886  0.7778 -0.8777
   76MOL   C57848728   3.194   1.397   5.786 -0.6280 -0.0061 -0.5792
   76MOL   O57948729   3.156   1.461   5.693  0.0193  0.3048 -0.1925
   76MOL   C58048730   3.249   1.260   5.746 -0.1453 -0.1957 -0.2792
   76MOL   C58148731   3.140   1.176   5.672 -0.5256  1.3517 -0.7146
   76MOL   C58248732   3.129   1.199   5.517 -0.2635 -0.8121 -0.0790
   76MOL   C58348733   3.028   1.109   5.442  0.3895 -0.1322 -0.0517
   76MOL   C58448734   3.047   1.105   5.287 -0.0494 -0.0929  0.3577
   76MOL   O58548735   3.092   1.203   5.229 -0.0077 -0.0802 -0.1537
   76MOL   N58648736   3.002   0.990   5.225 -0.2162  0.0305  0.2631
   76MOL   C58748737   3.036   0.939   5.095  0.4080 -1.3409  0.0557
   76MOL   C58848738   2.999   0.791   5.069  0.6677  0.4332 -0.9411
   76MOL   C58948739   3.030   0.729   4.927  0.2289  0.4110 -0.2240
   76MOL   C59048740   2.969   0.807   4.809 -0.4539  1.2920  0.0887
   76MOL   N59148741   2.837   0.846   4.844 -0.2140 -0.0341 -1.0978
   76MOL   H59248742   3.336   1.281   5.684  1.0313 -1.5902  0.8666
   76MOL   H59348743   3.288   1.205   5.832  2.1388 -0.5988 -1.5362
   76MOL   H59448744   3.166   1.071   5.681 -0.0245  1.3769 -1.8465
   76MOL   H59548745   3.042   1.182   5.719 -0.8054 -0.5236 -1.0298
   76MOL   H59648746   3.222   1.187   5.463  0.3791  0.8908  0.6195
   76MOL   H59748747   3.091   1.301   5.509 -0.5901 -0.8707  0.6512
   76MOL   H59848748   2.924   1.135   5.463  0.8074  1.3500  0.1951
   76MOL   H59948749   3.041   1.006   5.477  1.2298 -0.6172 -1.7463
   76MOL   H60048750   2.932   0.940   5.278 -0.5027  1.2523  1.0529
   76MOL   H60148751   3.141   0.946   5.068  0.2090  2.5420 -0.0504
   76MOL   H60248752   2.991   1.010   5.025 -0.1917 -2.3316 -0.5819
   76MOL   H60348753   3.044   0.732   5.149 -0.0508  2.2082  0.8089
   76MOL   H60448754   2.893   0.778   5.093  1.0012 -1.0380 -0.1682
   76MOL   H60548755   2.982   0.631   4.923 -0.0352  0.4210  2.1265
   76MOL   H60648756   3.137   0.721   4.907  0.4020  1.3848  0.3071
   76MOL   H60748757   2.978   0.745   4.720  0.0471 -1.1264  1.7753
   76MOL   H60848758   3.027   0.895   4.779 -0.1513  0.6592 -1.2269
   76MOL   H60948759   2.807   0.942   4.851  1.7341  0.4916  1.0185
   76MOL   C61048760   2.734   0.757   4.856  0.2627  0.6782 -0.3600
   76MOL   O61148761   2.756   0.634   4.843  0.4370 -0.1953  0.0542
   76MOL   C61248762   2.598   0.802   4.902  0.2502 -0.1502  0.0681
   76MOL   C61348763   2.475   0.724   4.848  0.0844  0.0904  0.3137
   76MOL   C61448764   2.337   0.777   4.903 -0.3140  0.3169 -1.0191
   76MOL   C61548765   2.211   0.728   4.835  0.4600 -0.5810  0.2426
   76MOL   C61648766   2.178   0.816   4.710  0.4822 -0.0802 -0.1087
   76MOL   O61748767   2.124   0.925   4.742 -0.0390  0.2321 -0.1807
   76MOL   N61848768   2.183   0.770   4.591  0.7173  0.2218 -0.3496
   76MOL   C61948769   2.120   0.818   4.468  0.2242  0.1183  0.2628
   76MOL   C62048770   2.210   0.788   4.344 -0.5403 -0.0355  0.0688
   76MOL   C62148771   2.157   0.843   4.211  0.6932  0.1021  0.3226
   76MOL   C62248772   2.244   0.812   4.089  0.0299 -1.2331 -0.4790
   76MOL   N62348773   2.185   0.874   3.974 -1.5162 -0.2948 -0.5133
   76MOL   H62448774   2.587   0.792   5.011 -1.9100  0.2591 -0.0775
   76MOL   H62548775   2.586   0.907   4.874  0.8518  0.6174  2.4877
   76MOL   H62648776   2.478   0.724   4.739  0.5246 -0.0747  0.3224
   76MOL   H62748777   2.487   0.618   4.870 -1.2472 -0.0876  0.2050
   76MOL   H62848778   2.342   0.885   4.891 -1.2806  0.5242  0.3183
   76MOL   H62948779   2.323   0.751   5.008  1.2052  0.0646 -0.8595
   76MOL   H63048780   2.123   0.731   4.898  0.1745  0.9831 -0.1981
   76MOL   H63148781   2.228   0.623   4.813  0.4193 -0.7892  1.1673
   76MOL   H63248782   2.239   0.686   4.590 -1.1856 -1.0699  0.5175
   76MOL   H63348783   2.104   0.925   4.486 -0.4635  0.2170 -0.9135
   76MOL   H63448784   2.018   0.779   4.469  0.0648  0.5415  0.8041
   76MOL   H63548785   2.303   0.843   4.358  0.1812 -1.1994 -0.1156
   76MOL   H63648786   2.232   0.685   4.318  1.5673  0.6310 -0.8454
   76MOL   H63748787   2.144   0.948   4.236 -1.2933 -0.0696  0.0759
   76MOL   H63848788   2.056   0.804   4.199  0.9637 -0.4226 -0.2980
   76MOL   H63948789   2.263   0.705   4.085 -1.4678 -1.4673 -1.4578
   76MOL   H64048790   2.341   0.863   4.095 -1.1821  0.8901  2.9253
   76MOL   H64148791   2.177   0.973   3.991 -0.5689 -0.4622  0.9568
   76MOL   H64248792   2.091   0.837   3.964 -1.2542 -0.6674 -1.6948
   77MOL     C148793   0.551   7.078   4.961 -0.8278  0.5264  0.7322
   77MOL     O248794   0.465   7.101   4.881 -0.3645  0.0023  0.6427
   77MOL     C348795   0.589   7.177   5.069  0.1924  0.7256  0.5714
   77MOL     C448796   0.467   7.262   5.113 -0.9381  0.4059 -0.1441
   77MOL     C548797   0.458   7.397   5.044 -0.1658  0.1326  0.3140
   77MOL     C648798   0.438   7.409   4.893  0.2146  0.2469  0.4012
   77MOL     C748799   0.425   7.553   4.846  0.4104  0.3182  0.6218
   77MOL     O848800   0.318   7.612   4.864 -0.5239 -0.3398 -0.5212
   77MOL     N948801   0.533   7.601   4.779  0.0093  0.1477  0.3333
   77MOL    C1048802   0.545   0.026   4.716 -0.0000 -0.4176  0.8491
   77MOL    C1148803   0.483   0.018   4.575  0.1013  0.1427  0.0458
   77MOL    C1248804   0.481   0.145   4.497  0.1604  0.6893  0.3094
   77MOL    C1348805   0.401   0.133   4.368 -0.2276  0.8020 -0.1783
   77MOL    N1448806   0.408   0.247   4.274  0.3604 -0.2147  0.5135
   77MOL    H1548807   0.630   7.118   5.151 -1.2127  0.4191  1.0759
   77MOL    H1648808   0.669   7.236   5.025 -0.3501  0.7612 -0.3906
   77MOL    H1748809   0.369   7.219   5.095 -0.7179 -0.5518  0.9093
   77MOL    H1848810   0.465   7.270   5.221 -1.7045 -0.7481 -0.0608
   77MOL    H1948811   0.547   7.452   5.074  0.4436  0.5043 -2.0739
   77MOL    H2048812   0.370   7.454   5.074  0.3540 -0.3561  2.9380
   77MOL    H2148813   0.350   7.348   4.870  2.1292 -2.1240 -0.8021
   77MOL    H2248814   0.513   7.354   4.836 -1.4793 -0.3063 -1.3688
   77MOL    H2348815   0.616   7.545   4.767 -0.4492  0.0269 -2.6834
   77MOL    H2448816   0.650   0.055   4.717 -0.6427  2.0347 -0.0732
   77MOL    H2548817   0.493   0.103   4.772  0.4854 -0.3805  1.2556
   77MOL    H2648818   0.537   7.653   4.508  0.3950 -1.2765  1.6568
   77MOL    H2748819   0.380   7.685   4.575 -0.2202  1.0574 -2.1650
   77MOL    H2848820   0.583   0.178   4.477 -0.2167  1.3855 -0.4699
   77MOL    H2948821   0.449   0.236   4.546 -1.7044  1.0789 -1.5402
   77MOL    H3048822   0.305   0.089   4.395  0.6771 -1.5290 -0.6483
   77MOL    H3148823   0.445   0.058   4.302  0.6149  1.5113 -0.4327
   77MOL    H3248824   0.477   0.319   4.294  0.0428  1.5593 -4.1804
   77MOL    H3348825   0.602   6.982   4.960 -0.8884  0.4882 -1.3031
   77MOL    C3448826   0.311   0.266   4.181 -0.4677 -0.0672 -0.0565
   77MOL    O3548827   0.225   0.183   4.160  1.0093 -0.2597  0.0335
   77MOL    C3648828   0.307   0.396   4.097  0.1915 -0.5564 -0.1255
   77MOL    C3748829   0.301   0.528   4.182  0.2362 -0.1326 -0.0545
   77MOL    C3848830   0.173   0.542   4.263 -0.0629  0.4719 -0.0269
   77MOL    C3948831   0.155   0.678   4.319 -0.0297 -0.1620  0.6080
   77MOL    C4048832   0.231   0.710   4.447  0.2745 -1.0883  0.2688
   77MOL    O4148833   0.304   0.622   4.496 -0.0899  0.5298  0.0863
   77MOL    N4248834   0.192   0.824   4.513  0.3422  0.0781  0.7758
   77MOL    C4348835   0.259   0.860   4.639 -0.6933  0.7685  0.4818
   77MOL    C4448836   0.182   0.807   4.760  0.1031 -0.1555 -0.4821
   77MOL    C4548837   0.249   0.827   4.898  0.6025  0.0921  0.3795
   77MOL    C4648838   0.171   0.757   5.009 -0.6201 -0.6905  0.4329
   77MOL    N4748839   0.245   0.778   5.137  0.1097 -0.0274 -0.4600
   77MOL    H4848840   0.400   0.400   4.039 -1.2400 -1.3544 -2.5316
   77MOL    H4948841   0.228   0.394   4.023  0.4900  0.6824 -0.4957
   77MOL    H5048842   0.395   0.535   4.236  0.6330 -0.5108 -0.6883
   77MOL    H5148843   0.295   0.600   4.100 -1.1515 -0.8107 -0.5694
   77MOL    H5248844   0.167   0.461   4.336  1.7708 -0.0303 -0.4051
   77MOL    H5348845   0.084   0.506   4.210  0.1827 -1.7485  1.0241
   77MOL    H5448846   0.051   0.699   4.345  0.3153  0.8392  1.2174
   77MOL    H5548847   0.175   0.757   4.246 -0.2234  1.5067  2.3068
   77MOL    H5648848   0.137   0.892   4.463  1.6852  0.6126 -0.0130
   77MOL    H5748849   0.267   0.967   4.656 -0.0358  0.6550  0.9012
   77MOL    H5848850   0.364   0.830   4.643 -1.4971 -2.4885 -1.2412
   77MOL    H5948851   0.075   0.826   4.758  0.5372  2.4973 -0.3523
   77MOL    H6048852   0.180   0.701   4.736 -0.9389 -0.2270 -0.0878
   77MOL    H6148853   0.251   0.932   4.927  0.3001 -0.3163  1.9503
   77MOL    H6248854   0.350   0.786   4.895 -0.1986 -1.8787 -0.5863
   77MOL    H6348855   0.156   0.653   4.983  1.8427 -0.5529 -1.7298
   77MOL    H6448856   0.074   0.804   5.027 -1.2787 -2.5778  1.9331
   77MOL    H6548857   0.337   0.741   5.159  0.2134 -0.2772 -1.2679
   77MOL    C6648858   0.203   0.857   5.243  0.0977 -0.5011  0.6915
   77MOL    O6748859   0.093   0.905   5.250 -0.6980  0.3462  0.0114
   77MOL    C6848860   0.314   0.898   5.355  0.2038  0.1838  0.0635
   77MOL    C6948861   0.328   1.049   5.371  0.3123 -0.1187  0.7432
   77MOL    C7048862   0.440   1.122   5.298 -0.3257 -0.6133 -0.2239
   77MOL    C7148863   0.439   1.268   5.300 -0.1388 -0.2970  0.4107
   77MOL    C7248864   0.570   1.333   5.250 -0.1701 -0.2188 -0.6970
   77MOL    O7348865   0.639   1.268   5.177  0.2228 -0.1356 -0.4008
   77MOL    N7448866   0.617   1.453   5.294 -0.2993  0.3273  0.4119
   77MOL    C7548867   0.744   1.503   5.239 -0.2378 -0.3267  0.2433
   77MOL    C7648868   0.874   1.460   5.319 -0.0211  0.2011  0.6172
   77MOL    C7748869   0.993   1.525   5.259  0.1062 -0.0503  0.2858
   77MOL    C7848870   1.128   1.491   5.328 -0.3177 -0.1299 -0.4520
   77MOL    N7948871   1.247   1.529   5.251 -0.2869 -0.1772  0.1118
   77MOL    H8048872   0.272   0.856   5.446  2.0342  0.5302  1.0888
   77MOL    H8148873   0.405   0.842   5.334 -0.0909 -0.1623 -0.3005
   77MOL    H8248874   0.231   1.087   5.339  1.4669  1.4868 -0.9287
   77MOL    H8348875   0.333   1.064   5.479 -0.6642  0.2826  0.7324
   77MOL    H8448876   0.432   1.103   5.191  0.4862 -0.6555 -0.2811
   77MOL    H8548877   0.534   1.082   5.335  0.7966  2.4082  0.3360
   77MOL    H8648878   0.429   1.292   5.406 -0.3353 -1.8283  0.7508
   77MOL    H8748879   0.351   1.312   5.252  0.1868 -0.4801 -0.3667
   77MOL    H8848880   0.556   1.512   5.349  0.6611  1.9431 -0.2031
   77MOL    H8948881   0.740   1.612   5.237  1.5457 -0.2722 -1.4211
   77MOL    H9048882   0.750   1.475   5.134  1.3054  0.5502  0.0754
   77MOL    H9148883   0.878   1.477   5.426 -0.1391 -3.4696  1.2810
   77MOL    H9248884   0.880   1.353   5.299 -1.2439  0.1571  0.4481
   77MOL    H9348885   0.973   1.631   5.271  3.3260  0.5939  0.4137
   77MOL    H9448886   0.995   1.517   5.150  2.2336 -0.3231  0.3186
   77MOL    H9548887   1.137   1.383   5.335 -0.6376 -0.2126 -1.2418
   77MOL    H9648888   1.119   1.537   5.427 -0.5403 -0.5107 -0.2976
   77MOL    H9748889   1.260   1.495   5.156  1.9817 -0.1122  0.3577
   77MOL    C9848890   1.352   1.592   5.304  0.4967  1.1209 -0.3145
   77MOL    O9948891   1.341   1.648   5.414 -0.1066 -0.0400  0.6925
   77MOL   C10048892   1.480   1.557   5.229  0.0216 -0.4334  0.0224
   77MOL   C10148893   1.579   1.473   5.314  0.4794  0.6515 -0.3180
   77MOL   C10248894   1.682   1.396   5.237  0.1589 -0.5031 -0.5439
   77MOL   C10348895   1.765   1.296   5.314  0.0972 -0.3736 -0.6017
   77MOL   C10448896   1.864   1.351   5.420 -0.2736 -0.5060  0.5266
   77MOL   O10548897   1.826   1.420   5.510  0.1579  0.4941  0.2594
   77MOL   N10648898   1.995   1.319   5.400  0.7230 -0.7729  0.5072
   77MOL   C10748899   2.102   1.358   5.495 -0.3843 -0.1520  0.2185
   77MOL   C10848900   2.229   1.378   5.416  0.3624 -0.2268 -0.7628
   77MOL   C10948901   2.226   1.494   5.325 -0.2438 -0.9514 -0.2128
   77MOL   C11048902   2.367   1.533   5.269  0.2973 -0.8294  0.7696
   77MOL   N11148903   2.356   1.603   5.140 -0.5266 -0.2948 -0.4988
   77MOL   H11248904   1.462   1.503   5.136  0.6108  0.3193 -0.5278
   77MOL   H11348905   1.525   1.648   5.191 -1.0116 -0.2362 -0.7446
   77MOL   H11448906   1.634   1.541   5.379 -0.5125  1.0821  0.0799
   77MOL   H11548907   1.517   1.413   5.380 -0.5874  0.0885 -1.7843
   77MOL   H11648908   1.746   1.450   5.166  2.3743 -2.3980 -0.0505
   77MOL   H11748909   1.620   1.334   5.173 -0.0144  0.1059 -0.9716
   77MOL   H11848910   1.815   1.229   5.243  0.8298 -1.8077  1.2156
   77MOL   H11948911   1.691   1.241   5.371  1.1458  0.5326  1.7080
   77MOL   H12048912   2.022   1.272   5.315 -0.4757  2.4520 -1.7437
   77MOL   H12148913   2.125   1.280   5.568  0.6352  0.1395  0.2151
   77MOL   H12248914   2.078   1.449   5.550  0.5699  0.2616 -0.0405
   77MOL   H12348915   2.308   1.399   5.489 -2.7212  2.5638  1.9732
   77MOL   H12448916   2.249   1.288   5.358 -3.1434 -1.3244 -0.4324
   77MOL   H12548917   2.185   1.579   5.380  1.9372 -0.7390  1.1712
   77MOL   H12648918   2.158   1.483   5.241 -0.8081 -1.1919  0.2731
   77MOL   H12748919   2.409   1.435   5.248 -0.5260 -0.7260 -1.4570
   77MOL   H12848920   2.411   1.596   5.347 -2.3829  0.4961  1.2593
   77MOL   H12948921   2.422   1.567   5.073  0.1623 -1.7489  0.9236
   77MOL   C13048922   2.333   1.733   5.122 -0.2453  0.2766  0.5319
   77MOL   O13148923   2.289   1.803   5.208  0.0225 -0.3604 -0.0094
   77MOL   C13248924   2.357   1.794   4.982 -0.5885 -0.9210 -0.2891
   77MOL   C13348925   2.249   1.902   4.952  0.2259  0.3408  0.5983
   77MOL   C13448926   2.302   2.010   4.847 -0.3156 -0.2110  0.7557
   77MOL   C13548927   2.394   2.125   4.898  0.3937  0.3744 -0.1194
   77MOL   C13648928   2.436   2.222   4.791 -0.3787 -0.5271  0.7936
   77MOL   O13748929   2.369   2.253   4.691 -0.0278  0.2611  0.1785
   77MOL   N13848930   2.553   2.284   4.820 -0.3809  0.9584  0.5623
   77MOL   C13948931   2.624   2.368   4.727 -0.5559 -0.1359  0.0156
   77MOL   C14048932   2.776   2.337   4.730 -0.1843  0.3791 -0.1470
   77MOL   C14148933   2.860   2.407   4.622 -0.1770 -0.1054  0.0704
   77MOL   C14248934   2.865   2.344   4.479  0.0003 -0.2881 -0.4860
   77MOL   N14348935   2.913   2.212   4.489 -0.0852 -0.2166 -0.1014
   77MOL   H14448936   2.450   1.849   4.993  0.2150 -1.9636 -1.7266
   77MOL   H14548937   2.361   1.718   4.904  1.5213 -2.1276  0.9611
   77MOL   H14648938   2.149   1.866   4.927  1.0808 -1.4426 -0.3340
   77MOL   H14748939   2.237   1.961   5.043  1.8962  1.0634  0.3747
   77MOL   H14848940   2.223   2.058   4.791 -0.0538 -0.7220 -0.0499
   77MOL   H14948941   2.341   1.943   4.771 -3.0197  1.0400 -1.8076
   77MOL   H15048942   2.475   2.081   4.957 -2.1618 -1.2253  2.3392
   77MOL   H15148943   2.338   2.183   4.972 -1.1092 -0.0673 -0.9050
   77MOL   H15248944   2.618   2.244   4.887 -1.0618 -1.1397  0.0276
   77MOL   H15348945   2.599   2.471   4.754  1.4956  0.4688 -0.3484
   77MOL   H15448946   2.585   2.350   4.627 -1.5602  1.1688  0.1595
   77MOL   H15548947   2.813   2.353   4.832  0.8089 -0.5550 -0.3552
   77MOL   H15648948   2.805   2.232   4.726  0.3892  0.3873  2.3540
   77MOL   H15748949   2.963   2.416   4.658 -0.2557  0.0081  0.2675
   77MOL   H15848950   2.818   2.507   4.614 -1.3363 -0.8139 -3.3217
   77MOL   H15948951   2.935   2.398   4.416  0.0801 -0.9671 -0.9795
   77MOL   H16048952   2.772   2.361   4.424  1.2593 -1.9478 -3.1967
   77MOL   H16148953   2.916   2.171   4.581  0.6162  1.6608  0.7387
   77MOL   C16248954   2.936   2.146   4.375 -0.1467  0.0771 -0.2045
   77MOL   O16348955   2.891   2.180   4.265 -0.2557  0.3373 -0.0842
   77MOL   C16448956   3.011   2.009   4.385 -1.0812 -0.6336 -0.2371
   77MOL   C16548957   3.165   2.019   4.355  0.4602  0.1303 -0.2214
   77MOL   C16648958   3.221   1.889   4.294  0.4457  0.3297 -0.4238
   77MOL   C16748959   3.185   1.858   4.149 -0.0541 -0.3885  0.2478
   77MOL   C16848960   3.250   1.732   4.097  0.2888 -0.5967 -0.0475
   77MOL   O16948961   3.205   1.625   4.146 -0.0776 -0.9040  0.1776
   77MOL   N17048962   3.344   1.739   4.007  0.0257  0.0914  0.1055
   77MOL   C17148963   3.432   1.628   3.992 -0.1676  0.2561 -0.4271
   77MOL   C17248964   3.394   1.528   3.883  0.0462  0.2840  0.2079
   77MOL   C17348965   3.248   1.475   3.898 -0.5088  0.4487 -0.2201
   77MOL   C17448966   3.206   1.356   3.813  0.4154  0.0197 -0.3632
   77MOL   N17548967   3.064   1.321   3.838 -0.0314  0.1418  0.2029
   77MOL   H17648968   2.993   1.961   4.481  0.0154 -1.7967 -0.5957
   77MOL   H17748969   2.966   1.943   4.311 -3.5156  0.0956  0.5356
   77MOL   H17848970   3.183   2.098   4.281  0.9575  0.1626 -0.0634
   77MOL   H17948971   3.219   2.052   4.443  0.2117 -0.9837  0.3508
   77MOL   H18048972   3.198   1.806   4.361 -1.5176  2.6312  1.8089
   77MOL   H18148973   3.329   1.872   4.300  0.1281 -2.0923 -0.8158
   77MOL   H18248974   3.216   1.942   4.087  0.5147 -0.5299  0.3353
   77MOL   H18348975   3.077   1.856   4.136 -0.1141 -2.1935  0.9048
   77MOL   H18448976   3.360   1.826   3.958  1.1994  0.9600  1.9944
   77MOL   H18548977   3.448   1.574   4.085 -0.0826  3.0181  1.2158
   77MOL   H18648978   3.534   1.665   3.979 -0.5316  1.4091 -0.0156
   77MOL   H18748979   3.397   1.581   3.787  0.3119  0.2891  0.2189
   77MOL   H18848980   3.472   1.453   3.872 -0.1436  0.4125 -2.3951
   77MOL   H18948981   3.178   1.555   3.875  0.3828  1.4020  0.3567
   77MOL   H19048982   3.232   1.443   4.001  2.2510 -0.5205 -0.0418
   77MOL   H19148983   3.276   1.273   3.820 -0.4881 -0.8220 -1.1195
   77MOL   H19248984   3.218   1.394   3.711 -0.5531  0.9994 -0.1276
   77MOL   H19348985   3.011   1.399   3.877  1.0097 -0.4219  2.8650
   77MOL   C19448986   3.005   1.204   3.824 -0.1366 -0.1171 -0.5147
   77MOL   O19548987   3.069   1.103   3.797  0.0042  0.3653  0.1222
   77MOL   C19648988   2.848   1.198   3.853  0.1781 -0.3623  0.3291
   77MOL   C19748989   2.782   1.064   3.884  0.4495  0.4510  0.9643
   77MOL   C19848990   2.631   1.060   3.883 -0.6752  0.5774 -0.1747
   77MOL   C19948991   2.564   1.141   3.988  1.0545 -0.2202 -1.0014
   77MOL   C20048992   2.549   1.080   4.128  0.1780  0.5320  0.2258
   77MOL   O20148993   2.598   0.969   4.160 -0.3979 -0.3788  0.2253
   77MOL   N20248994   2.474   1.145   4.219 -0.0169  0.7522 -0.1038
   77MOL   C20348995   2.463   1.109   4.358  0.1213 -0.6928  1.0476
   77MOL   C20448996   2.564   1.181   4.445 -0.4469  0.1622 -0.0885
   77MOL   C20548997   2.525   1.169   4.593  1.0494 -0.1531 -0.5849
   77MOL   C20648998   2.619   1.263   4.677 -0.7023 -0.6302  0.7010
   77MOL   N20748999   2.759   1.241   4.643  0.2678  0.2981  0.0035
   77MOL   H20849000   2.823   1.265   3.935 -2.7018 -1.1427  0.1170
   77MOL   H20949001   2.809   1.227   3.756 -1.6451 -0.5234  1.0050
   77MOL   H21049002   2.813   0.988   3.811 -1.6431  0.0324  0.4893
   77MOL   H21149003   2.805   1.016   3.979 -0.9809  0.6575  1.4159
   77MOL   H21249004   2.587   0.960   3.886  1.9238 -0.7224 -2.8333
   77MOL   H21349005   2.591   1.096   3.788 -4.5962 -0.0201  1.1618
   77MOL   H21449006   2.465   1.177   3.959  1.9207  2.3956 -0.8094
   77MOL   H21549007   2.621   1.232   4.006 -1.7557  1.5523 -0.6346
   77MOL   H21649008   2.441   1.233   4.181  0.3776  0.5523 -0.9237
   77MOL   H21749009   2.478   1.003   4.375  1.7093 -1.0004 -1.9492
   77MOL   H21849010   2.364   1.141   4.389  0.5955  0.7877  1.0806
   77MOL   H21949011   2.667   1.150   4.428 -0.3501  1.7012 -2.5727
   77MOL   H22049012   2.564   1.286   4.414 -0.1108 -0.0610 -0.8460
   77MOL   H22149013   2.539   1.065   4.619 -0.1787  0.0742  1.0494
   77MOL   H22249014   2.425   1.210   4.610  0.0581 -3.2559  1.4300
   77MOL   H22349015   2.600   1.242   4.782  0.7698  0.9949  1.3185
   77MOL   H22449016   2.602   1.370   4.682  1.9733 -0.2412  3.0187
   77MOL   H22549017   2.787   1.281   4.555  1.8746  0.2050  0.4575
   77MOL   C22649018   2.850   1.181   4.718  0.3408 -0.0616 -0.1999
   77MOL   O22749019   2.823   1.127   4.823  0.2638  0.0222 -0.3780
   77MOL   C22849020   2.997   1.186   4.667 -0.3525 -0.0190 -0.0041
   77MOL   C22949021   3.091   1.210   4.778 -0.4709 -0.1741 -0.0182
   77MOL   C23049022   3.052   1.323   4.876  0.0449 -0.1552 -0.0130
   77MOL   C23149023   3.168   1.367   4.979  0.2674  0.0698 -0.3277
   77MOL   C23249024   3.133   1.487   5.061  0.0976 -0.3048 -0.0914
   77MOL   O23349025   3.082   1.585   5.004 -1.3864  0.1691  0.1982
   77MOL   N23449026   3.152   1.479   5.192 -0.2213 -0.3392 -0.1886
   77MOL   C23549027   3.105   1.571   5.292  0.1898  0.4443  0.6899
   77MOL   C23649028   3.212   1.684   5.324 -0.8601 -0.1295  0.0707
   77MOL   C23749029   3.155   1.813   5.396  0.2010 -0.9621 -0.4117
   77MOL   C23849030   3.090   1.788   5.530 -0.1503 -0.2297  0.4406
   77MOL   N23949031   3.055   1.921   5.588  0.1809 -0.0922  0.2646
   77MOL   H24049032   3.026   1.084   4.640  0.4441  0.7090 -1.9850
   77MOL   H24149033   3.014   1.269   4.598  1.4162  1.4543  2.1127
   77MOL   H24249034   3.112   1.125   4.844  1.5874 -1.3775 -2.1162
   77MOL   H24349035   3.187   1.225   4.727 -1.1601 -1.9489 -1.9340
   77MOL   H24449036   2.965   1.295   4.936 -0.2468 -0.7134 -0.6895
   77MOL   H24549037   3.020   1.413   4.823 -2.8750 -0.8430  0.4672
   77MOL   H24649038   3.258   1.391   4.922  2.0134 -3.8841  0.5385
   77MOL   H24749039   3.204   1.280   5.035 -1.1024 -1.3845 -1.6767
   77MOL   H24849040   3.149   1.381   5.215 -0.8450 -0.4096 -0.5779
   77MOL   H24949041   3.086   1.517   5.385  0.2864  1.6057  1.3950
   77MOL   H25049042   3.015   1.618   5.252  0.7338  0.4518 -0.5427
   77MOL   H25149043   3.297   1.645   5.378  0.6856  3.6351  0.5249
   77MOL   H25249044   3.249   1.720   5.228 -2.5013 -0.2991 -0.6452
   77MOL   H25349045   3.092   1.871   5.329  2.0122  1.2221 -0.2672
   77MOL   H25449046   3.234   1.885   5.420 -3.5290  2.7107  1.5185
   77MOL   H25549047   3.149   1.734   5.604  1.0035 -0.8899 -0.9476
   77MOL   H25649048   2.995   1.737   5.517 -2.4414  3.9904 -0.5400
   77MOL   H25749049   3.091   1.997   5.531  2.2540  0.5283  2.3110
   77MOL   C25849050   2.980   1.959   5.692 -0.5159 -0.6094 -0.0803
   77MOL   O25949051   2.979   2.073   5.733 -0.3707 -0.2378  0.5389
   77MOL   C26049052   2.922   1.839   5.776  0.1783 -0.8019  0.6573
   77MOL   C26149053   2.826   1.870   5.886 -0.4013 -0.3934  0.3750
   77MOL   C26249054   2.748   1.750   5.937 -0.1172 -0.6195  0.5722
   77MOL   C26349055   2.676   1.785   6.074 -0.5703 -0.7436  0.4640
   77MOL   C26449056   2.602   1.669   6.132  0.8512 -0.2629 -0.0274
   77MOL   O26549057   2.558   1.586   6.058  0.2196 -0.2981 -0.1001
   77MOL   N26649058   2.582   1.673   6.267  0.4826  0.5665  0.2291
   77MOL   C26749059   2.496   1.579   6.342 -0.4755  0.4999  0.1004
   77MOL   C26849060   2.561   1.543   6.481  0.0411  0.0281 -0.4282
   77MOL   C26949061   2.466   1.471   6.576  0.2446  0.5443 -0.0044
   77MOL   C27049062   2.517   1.451   6.718 -0.4593 -0.2729  0.3319
   77MOL   N27149063   2.409   1.403   6.810  0.0193  0.1037  0.0502
   77MOL   H27249064   2.885   1.763   5.707 -0.0575 -0.6902  0.6605
   77MOL   H27349065   3.010   1.782   5.803  2.5745  2.6247  0.4328
   77MOL   H27449066   2.879   1.921   5.967  1.4454 -1.2454 -0.2612
   77MOL   H27549067   2.753   1.945   5.857 -1.2549 -0.8928  1.2255
   77MOL   H27649068   2.816   1.667   5.959  0.4822  0.2342  2.0850
   77MOL   H27749069   2.667   1.725   5.869  1.2890  1.4921 -1.9755
   77MOL   H27849070   2.602   1.864   6.072  0.3002  0.0839  0.6491
   77MOL   H27949071   2.755   1.823   6.139 -1.1465 -1.0073  1.3284
   77MOL   H28049072   2.630   1.742   6.324  1.2324  1.0849 -1.0058
   77MOL   H28149073   2.471   1.488   6.288  0.8939  0.8171 -1.0810
   77MOL   H28249074   2.396   1.623   6.346 -0.5345  0.5979 -1.9848
   77MOL   H28349075   2.645   1.478   6.458  1.9350  2.1713  0.1690
   77MOL   H28449076   2.600   1.634   6.527  1.2845  0.1246 -1.6220
   77MOL   H28549077   2.431   1.373   6.542  1.5161 -0.7687  2.3164
   77MOL   H28649078   2.375   1.531   6.580 -1.5029 -2.0729  1.5111
   77MOL   H28749079   2.548   1.552   6.743  0.1795 -0.2028 -0.6982
   77MOL   H28849080   2.608   1.391   6.724 -1.4702 -1.8659  0.0999
   77MOL   H28949081   2.335   1.352   6.764  0.9717 -1.0283 -0.2571
   77MOL   C29049082   2.422   1.403   6.944 -0.1620  0.1175 -0.0708
   77MOL   O29149083   2.532   1.441   6.996  0.4073 -0.2825  0.0553
   77MOL   C29249084   2.304   1.365   7.030  0.5508  0.1884  0.1318
   77MOL   C29349085   2.276   1.468   7.140 -0.3146 -1.1691 -0.3072
   77MOL   C29449086   2.179   1.576   7.093 -0.0995 -0.0580  0.2709
   77MOL   C29549087   2.241   1.685   7.001  0.0167  0.4642 -0.1813
   77MOL   C29649088   2.347   1.774   7.074 -0.3425  0.1198  0.2142
   77MOL   O29749089   2.315   1.878   7.129  0.1009 -0.0135  0.2927
   77MOL   N29849090   2.470   1.734   7.074 -0.4500 -0.3804 -0.4933
   77MOL   C29949091   2.583   1.820   7.117 -0.4508 -0.1625  0.1625
   77MOL   C30049092   2.730   1.770   7.074  0.6069  0.0680  0.3084
   77MOL   C30149093   2.845   1.853   7.136 -0.2413 -0.1509 -0.2829
   77MOL   C30249094   2.984   1.795   7.108 -0.3287 -0.0206 -0.4976
   77MOL   N30349095   3.087   1.864   7.180 -0.2568  0.2460 -0.1365
   77MOL   H30449096   2.212   1.352   6.972  0.4531 -0.5918  0.4681
   77MOL   H30549097   2.330   1.272   7.079  1.0049 -0.3239 -1.0556
   77MOL   H30649098   2.232   1.412   7.222 -1.9121  0.4139 -0.0651
   77MOL   H30749099   2.366   1.513   7.183 -1.2676 -0.3671  0.8695
   77MOL   H30849100   2.146   1.619   7.188  0.0328 -2.2883  1.3489
   77MOL   H30949101   2.091   1.533   7.046  0.3753 -0.5824 -0.1376
   77MOL   H31049102   2.164   1.753   6.965 -0.1154  0.2701 -0.2644
   77MOL   H31149103   2.282   1.649   6.907 -0.4976 -2.3236  0.6020
   77MOL   H31249104   2.494   1.642   7.039 -0.6484 -0.7358  0.2844
   77MOL   H31349105   2.581   1.812   7.226  1.4012 -1.7450  0.1125
   77MOL   H31449106   2.576   1.927   7.102  1.2796 -0.1467 -0.6419
   77MOL   H31549107   2.738   1.664   7.101 -0.2313  0.2818  1.4182
   77MOL   H31649108   2.737   1.771   6.965  2.8380 -0.5241  0.4176
   77MOL   H31749109   2.830   1.857   7.244  0.6526  1.6387 -0.2007
   77MOL   H31849110   2.836   1.959   7.113  2.7276  0.4506  1.1023
   77MOL   H31949111   3.006   1.800   7.001  2.1483 -0.9673 -0.0532
   77MOL   H32049112   2.980   1.689   7.132  0.9728 -0.1261 -0.7232
   77MOL   H32149113   3.053   1.926   7.252 -1.5262 -0.1555 -0.3655
   77MOL   C32249114   3.216   1.828   7.176  0.8911 -0.0025  0.3017
   77MOL   O32349115   3.252   1.734   7.114  0.6608 -0.1041  0.5410
   77MOL   C32449116   3.306   1.919   7.249 -0.3476  1.2928 -0.8477
   77MOL   C32549117   3.408   1.836   7.345  0.9776 -0.1613 -0.2849
   77MOL   C32649118   3.483   1.930   7.438 -0.3685 -0.0335  0.4071
   77MOL   C32749119   3.630   1.899   7.469 -0.0612 -0.0794  0.1637
   77MOL   C32849120   3.654   1.801   7.582  0.0356 -0.2359  0.2395
   77MOL   O32949121   3.662   1.678   7.566 -0.7576  0.0956  0.7245
   77MOL   N33049122   3.679   1.862   0.001  0.3897  0.0104 -0.1953
   77MOL   C33149123   3.729   1.800   0.125  0.3129  0.2863 -0.1164
   77MOL   C33249124   3.872   1.813   0.138 -0.2527 -0.0492  0.2359
   77MOL   C33349125   3.936   1.734   0.251 -0.0900  0.0981  0.1298
   77MOL   C33449126   4.093   1.741   0.236  0.8872 -0.1465 -1.2338
   77MOL   N33549127   4.152   1.652   0.340 -0.1928 -0.0724 -0.4437
   77MOL   H33649128   3.364   1.978   7.177  1.2482  1.6956  0.7387
   77MOL   H33749129   3.252   1.984   7.317 -0.0554 -1.1181  1.7856
   77MOL   H33849130   3.351   1.763   7.403 -0.9779  0.9693 -0.7417
   77MOL   H33949131   3.486   1.774   7.298  1.9067 -0.5859  1.7687
   77MOL   H34049132   3.427   1.935   7.531 -0.8458  0.9028  0.0826
   77MOL   H34149133   3.486   2.028   7.389  0.2668 -0.0794  0.3490
   77MOL   H34249134   3.675   1.993   7.501 -1.0820  0.7544 -0.8165
   77MOL   H34349135   3.675   1.869   7.374  2.3822  0.3736  1.1423
   77MOL   H34449136   3.678   1.963   0.004 -2.7461  0.0134  0.5073
   77MOL   H34549137   3.704   1.695   0.140  1.5601  0.3928  3.1009
   77MOL   H34649138   3.700   1.858   0.212  1.4236  0.6391  0.0156
   77MOL   H34749139   3.924   1.790   0.045  0.4805  0.2979  0.5632
   77MOL   H34849140   3.896   1.919   0.150  0.2169 -0.0856 -0.3910
   77MOL   H34949141   3.918   1.626   0.255  1.0252 -0.0313  2.5513
   77MOL   H35049142   3.906   1.783   0.343 -0.9089  1.0254 -0.6265
   77MOL   H35149143   4.122   1.845   0.245  2.7916 -0.7752  0.2074
   77MOL   H35249144   4.119   1.702   0.137  1.1313 -0.5453 -1.0142
   77MOL   H35349145   4.089   1.592   0.391 -1.6125  0.8975 -1.0332
   77MOL   C35449146   4.284   1.640   0.370 -0.2778  0.1463  0.1527
   77MOL   O35549147   4.365   1.689   0.290  0.3530 -0.0612  0.0020
   77MOL   C35649148   4.337   1.556   0.486  0.1995  0.2559  0.1294
   77MOL   C35749149   4.419   1.642   0.580 -0.1866 -0.7234  0.1122
   77MOL   C35849150   4.459   1.585   0.716 -0.3077  0.0716  0.2094
   77MOL   C35949151   4.533   1.685   0.809  0.0210 -0.2959 -0.8328
   77MOL   C36049152   4.530   1.636   0.957  0.3156 -0.7118  0.4939
   77MOL   O36149153   4.425   1.631   1.018 -0.0145  0.4202 -0.4109
   77MOL   N36249154   4.646   1.602   1.016 -0.2479  0.1235  0.5423
   77MOL   C36349155   4.666   1.545   1.148  0.5465  0.3250 -0.2673
   77MOL   C36449156   4.626   1.633   1.275  0.9250 -0.0450 -0.5407
   77MOL   C36549157   4.660   1.565   1.412  0.4982  0.5820 -0.4400
   77MOL   C36649158   4.654   1.669   1.531  0.5657 -0.1890  0.0030
   77MOL   N36749159   4.517   1.721   1.552 -0.1237  0.6016 -0.4677
   77MOL   H36849160   4.267   1.493   0.541  1.3497  0.4786  1.8638
   77MOL   H36949161   4.408   1.488   0.439  0.7901  2.3799 -2.1379
   77MOL   H37049162   4.508   1.680   0.531  0.0373 -1.5154 -0.0948
   77MOL   H37149163   4.351   1.725   0.601 -1.6108 -2.1000  1.1252
   77MOL   H37249164   4.514   1.491   0.715  0.9262  0.7894  0.4580
   77MOL   H37349165   4.369   1.554   0.770 -1.1361  0.4519 -0.9379
   77MOL   H37449166   4.492   1.786   0.808  1.5231  0.3517  0.7039
   77MOL   H37549167   4.633   1.695   0.766 -0.5803  0.4902 -2.0932
   77MOL   H37649168   4.727   1.632   0.963  0.2086  0.0964  1.2105
   77MOL   H37749169   4.773   1.528   1.153  0.5574  0.9437  2.2244
   77MOL   H37849170   4.622   1.445   1.156 -2.0394  1.2924 -1.5625
   77MOL   H37949171   4.681   1.727   1.269 -1.6475  1.5210 -0.2352
   77MOL   H38049172   4.520   1.660   1.271  0.8847  0.1644  1.1904
   77MOL   H38149173   4.761   1.524   1.407  0.1200 -0.1265 -2.7108
   77MOL   H38249174   4.583   1.490   1.433  1.1959  0.2417  1.0014
   77MOL   H38349175   4.731   1.746   1.519 -0.2055  0.0668 -3.9250
   77MOL   H38449176   4.684   1.603   1.613 -0.0463 -0.6782 -0.1657
   77MOL   H38549177   4.473   1.677   1.631  1.5850 -0.8337 -0.2899
   77MOL   C38649178   4.467   1.829   1.484 -0.2474  0.4087 -0.1746
   77MOL   O38749179   4.529   1.899   1.402  0.4911 -0.7948  0.3108
   77MOL   C38849180   4.327   1.880   1.517 -1.3145  0.5238  0.0875
   77MOL   C38949181   4.216   1.794   1.457  0.8048 -0.3487  0.8267
   77MOL   C39049182   4.163   1.832   1.309  0.4931  0.5975 -0.6347
   77MOL   C39149183   4.107   1.965   1.291 -0.3736  0.6381  0.0903
   77MOL   C39249184   4.002   2.006   1.396 -0.3262 -0.6237  0.8324
   77MOL   O39349185   3.889   1.956   1.405 -0.1383  0.0065 -0.0670
   77MOL   N39449186   4.048   2.104   1.474  0.0889  0.0880  0.6186
   77MOL   C39549187   3.964   2.185   1.559 -0.3837  0.0648  0.5715
   77MOL   C39649188   3.852   2.254   1.488  0.0434 -0.0403  0.2778
   77MOL   C39749189   3.785   2.355   1.582 -0.0700  0.4457  0.6008
   77MOL   C39849190   3.671   2.423   1.508 -0.4949 -0.0555  0.2818
   77MOL   N39949191   3.716   2.526   1.413  0.1394 -0.3158  0.1187
   77MOL   H40049192   4.322   1.880   1.626  0.9666 -2.8179  0.2610
   77MOL   H40149193   4.321   1.986   1.492 -1.4875  0.0002 -2.1879
   77MOL   H40249194   4.255   1.692   1.460 -1.0907 -1.0747  1.0469
   77MOL   H40349195   4.132   1.794   1.525 -0.1350  0.2609 -0.3066
   77MOL   H40449196   4.088   1.757   1.285  1.1826  0.0864 -1.1998
   77MOL   H40549197   4.244   1.817   1.237  0.9382 -1.4340  0.2671
   77MOL   H40649198   4.061   1.963   1.193  1.4038 -1.1585 -0.7683
   77MOL   H40749199   4.183   2.043   1.292 -0.0639  0.3385  0.0579
   77MOL   H40849200   4.136   2.148   1.452 -1.2009  2.6538  0.3566
   77MOL   H40949201   4.032   2.248   1.616  0.4174  1.1460 -1.5206
   77MOL   H41049202   3.902   2.123   1.623 -0.6773 -1.0835 -0.7953
   77MOL   H41149203   3.894   2.308   1.403  0.0097  1.1655  1.0114
   77MOL   H41249204   3.782   2.181   1.447  0.0359 -0.3127  0.7734
   77MOL   H41349205   3.853   2.432   1.619  1.6118 -0.0151 -1.4369
   77MOL   H41449206   3.739   2.305   1.666  0.9246 -0.0074  0.8856
   77MOL   H41549207   3.594   2.462   1.576 -1.6301  1.5708 -1.8838
   77MOL   H41649208   3.623   2.344   1.450  0.8925 -1.7134  1.3098
   77MOL   H41749209   3.808   2.564   1.430 -0.1005 -0.2212  1.2568
   77MOL   C41849210   3.639   2.596   1.322 -0.0403 -0.2595 -0.5965
   77MOL   O41949211   3.519   2.559   1.305 -0.2632  0.4207  0.1700
   77MOL   C42049212   3.699   2.729   1.270  0.2003 -0.4970 -0.0846
   77MOL   C42149213   3.616   2.778   1.152  0.2994  1.3906  0.6138
   77MOL   C42249214   3.677   2.909   1.094 -0.1566  0.5375 -0.0556
   77MOL   C42349215   3.583   2.979   0.996 -0.1065 -0.5468  0.2126
   77MOL   C42449216   3.567   2.907   0.865  0.4667  0.0610  0.6827
   77MOL   O42549217   3.662   2.903   0.783  0.6626 -0.1873  0.6234
   77MOL   N42649218   3.452   2.842   0.837 -0.0796  0.0663 -0.4617
   77MOL   C42749219   3.409   2.784   0.705  0.1032  0.5081 -0.5877
   77MOL   C42849220   3.477   2.650   0.689  0.3876  0.1646  0.3221
   77MOL   C42949221   3.444   2.586   0.565 -0.7324  0.1792  0.0521
   77MOL   C43049222   3.536   2.634   0.445  0.7438  0.1098  0.0467
   77MOL   N43149223   3.486   2.575   0.321  0.0853  0.5587 -0.1337
   77MOL   H43249224   3.686   2.803   1.348  0.1621 -0.4883 -0.0993
   77MOL   H43349225   3.804   2.708   1.247 -0.0091 -0.8264 -0.7442
   77MOL   H43449226   3.601   2.706   1.072  0.5031  1.1227  0.8142
   77MOL   H43549227   3.513   2.790   1.186  0.3301  0.6033  1.0037
   77MOL   H43649228   3.776   2.889   1.053  0.0709 -1.9319  1.6020
   77MOL   H43749229   3.706   2.986   1.166  1.1655 -0.7234  0.8041
   77MOL   H43849230   3.625   3.078   0.978 -1.1930 -0.4678 -2.1434
   77MOL   H43949231   3.484   3.001   1.035  0.2268  2.7730 -0.6680
   77MOL   H44049232   3.383   2.840   0.911  0.2779  0.1540 -0.1258
   77MOL   H44149233   3.433   2.866   0.637  0.3765 -0.2751 -1.4550
   77MOL   H44249234   3.300   2.779   0.700  0.0162  1.5127  0.2658
   77MOL   H44349235   3.585   2.653   0.706  0.4529  3.3969 -0.2699
   77MOL   H44449236   3.445   2.587   0.772 -1.7158 -1.7833 -1.8888
   77MOL   H44549237   3.339   2.611   0.545 -0.9410  1.9643  3.1206
   77MOL   H44649238   3.458   2.478   0.555 -0.7664  0.3597 -2.2687
   77MOL   H44749239   3.642   2.614   0.460  0.4038 -3.8466 -2.1353
   77MOL   H44849240   3.531   2.743   0.434 -1.4504  0.1479  1.2126
   77MOL   H44949241   3.486   2.475   0.309  1.3822  0.4778  0.4175
   77MOL   C45049242   3.414   2.645   0.235  0.2057  0.8574  0.1143
   77MOL   O45149243   3.399   2.771   0.230 -0.3020 -0.4541 -0.4143
   77MOL   C45249244   3.314   2.562   0.152  0.0127  0.0031 -0.0417
   77MOL   C45349245   3.177   2.630   0.134  0.1466 -0.5324  0.9360
   77MOL   C45449246   3.086   2.554   0.035 -0.4152  0.5671  0.2238
   77MOL   C45549247   2.955   2.635   0.004  0.0955 -0.0787  0.4744
   77MOL   C45649248   2.867   2.558   7.596 -0.0959  0.0540  0.2683
   77MOL   O45749249   2.892   2.436   7.580 -0.0264 -0.2203  0.2244
   77MOL   N45849250   2.771   2.628   7.538 -0.1493  0.0256 -0.1431
   77MOL   C45949251   2.662   2.574   7.462  0.4565  0.1131 -0.6684
   77MOL   C46049252   2.706   2.544   7.317  0.2689  0.2145 -0.4322
   77MOL   C46149253   2.606   2.472   7.225  0.5537 -0.9202 -0.2429
   77MOL   C46249254   2.672   2.430   7.096  0.0948 -0.2383  0.1114
   77MOL   N46349255   2.584   2.348   7.016 -0.7145  0.8222 -0.0478
   77MOL   H46449256   3.365   2.537   0.058 -3.5145  2.5582 -2.7828
   77MOL   H46549257   3.298   2.468   0.205 -1.0343  1.2137  1.7985
   77MOL   H46649258   3.126   2.651   0.228 -0.7343  0.0970  0.3173
   77MOL   H46749259   3.197   2.719   0.074 -1.2441 -1.1444 -0.4560
   77MOL   H46849260   3.067   2.455   0.078 -0.6498  0.0491 -1.0579
   77MOL   H46949261   3.141   2.544   7.643  0.6835  1.1227  0.7985
   77MOL   H47049262   2.975   2.734   7.663 -1.3116  0.2816  0.6492
   77MOL   H47149263   2.892   2.655   0.090 -0.6649  3.6215 -0.8630
   77MOL   H47249264   2.765   2.725   7.567 -0.7227  0.1115 -0.5209
   77MOL   H47349265   2.571   2.634   7.467  0.7693  0.6009 -0.8076
   77MOL   H47449266   2.626   2.487   7.517 -0.9754 -0.0673 -1.8567
   77MOL   H47549267   2.732   2.644   7.283 -1.2091  1.2426  1.4010
   77MOL   H47649268   2.800   2.489   7.323 -0.2457 -0.9590 -2.4534
   77MOL   H47749269   2.509   2.522   7.216  1.4587  0.8398 -0.3974
   77MOL   H47849270   2.565   2.385   7.277 -1.0693  0.6173  1.1397
   77MOL   H47949271   2.769   2.385   7.115  0.0214 -0.6780 -0.5467
   77MOL   H48049272   2.699   2.516   7.034  0.3082  0.4055  1.0914
   77MOL   H48149273   2.497   2.393   6.991 -0.7692  0.9608  0.3719
   77MOL   C48249274   2.603   2.217   6.993  0.5747 -0.5892 -0.3451
   77MOL   O48349275   2.701   2.153   7.041  0.6852 -0.5932 -0.2684
   77MOL   C48449276   2.510   2.141   6.895 -0.3973  0.4971 -0.1109
   77MOL   C48549277   2.581   2.029   6.813  0.2477 -0.5175  0.5476
   77MOL   C48649278   2.707   2.060   6.738  0.5211 -0.0521  0.5433
   77MOL   C48749279   2.734   1.953   6.622  0.1049 -0.1043  0.2295
   77MOL   C48849280   2.720   2.018   6.485  0.4381  0.7048  0.0691
   77MOL   O48949281   2.605   1.992   6.437  0.1146 -0.3993 -0.3223
   77MOL   N49049282   2.819   2.084   6.426  0.3205 -0.0446 -0.9833
   77MOL   C49149283   2.815   2.165   6.307  0.6111  0.3117  0.4553
   77MOL   C49249284   2.752   2.303   6.330 -0.0371 -0.6036  0.7438
   77MOL   C49349285   2.803   2.378   6.442  0.2024 -0.5228  0.1641
   77MOL   C49449286   2.747   2.520   6.430 -0.3604  0.0416  0.2914
   77MOL   N49549287   2.762   2.586   6.557  0.2331  0.2488 -0.6549
   77MOL   H49649288   2.435   2.082   6.949  1.6299 -1.5181  0.5686
   77MOL   H49749289   2.467   2.212   6.823 -0.6064  0.2896 -0.1924
   77MOL   H49849290   2.614   1.954   6.885 -1.4643 -2.3989 -0.5620
   77MOL   H49949291   2.512   1.985   6.741  0.0510  0.0604  0.3789
   77MOL   H50049292   2.794   2.058   6.803 -0.5201 -1.1876  1.9377
   77MOL   H50149293   2.708   2.164   6.707  1.1154  0.6374  2.7668
   77MOL   H50249294   2.671   1.865   6.634 -1.2036  1.0307  1.9414
   77MOL   H50349295   2.832   1.911   6.645 -0.8602 -1.4562  1.9782
   77MOL   H50449296   2.905   2.091   6.478  0.8601  3.2881 -2.1702
   77MOL   H50549297   2.768   2.110   6.225 -0.3572  0.4391  0.9233
   77MOL   H50649298   2.918   2.175   6.271  0.6299  0.5128  0.5645
   77MOL   H50749299   2.761   2.358   6.236  2.1787  1.4702  2.1285
   77MOL   H50849300   2.644   2.287   6.341  0.0025 -0.9274  0.6944
   77MOL   H50949301   2.911   2.367   6.453  0.0028 -0.0539  2.8337
   77MOL   H51049302   2.757   2.320   6.522 -1.3691 -2.4172 -2.0356
   77MOL   H51149303   2.640   2.523   6.407 -0.7771 -0.0430  2.1376
   77MOL   H51249304   2.804   2.578   6.358  1.7094  0.3238  2.0922
   77MOL   H51349305   2.842   2.563   6.614 -1.9121 -1.7976  1.7454
   77MOL   C51449306   2.684   2.679   6.607  0.3825  0.4357  0.4800
   77MOL   O51549307   2.583   2.719   6.550 -0.3631  0.3207  0.1323
   77MOL   C51649308   2.720   2.724   6.745 -0.0153  0.2551 -0.2739
   77MOL   C51749309   2.594   2.762   6.832  0.3094  0.1914  0.0491
   77MOL   C51849310   2.619   2.811   6.974  0.1410 -0.0052  0.2336
   77MOL   C51949311   2.689   2.951   6.989 -0.2984  0.3701  0.4755
   77MOL   C52049312   2.700   3.000   7.137 -0.2096 -0.0364 -0.1070
   77MOL   O52149313   2.672   2.928   7.235  0.1879 -0.0581  0.4058
   77MOL   N52249314   2.732   3.133   7.154 -0.1045 -0.0133 -0.2070
   77MOL   C52349315   2.757   3.204   7.277 -0.6776 -0.3961 -0.0540
   77MOL   C52449316   2.697   3.342   7.263 -0.3965  0.2626  0.4033
   77MOL   C52549317   2.675   3.410   7.401 -0.5205 -0.2577  0.5851
   77MOL   C52649318   2.625   3.552   7.409 -0.5222  0.0621 -0.2635
   77MOL   N52749319   2.638   3.605   7.545  0.3093  0.2860  0.4643
   77MOL   H52849320   2.759   2.631   6.787  0.7084  1.3150  1.4274
   77MOL   H52949321   2.805   2.791   6.745  0.0874  0.1466 -1.5501
   77MOL   H53049322   2.521   2.822   6.777 -0.4659  0.3590  1.2285
   77MOL   H53149323   2.544   2.666   6.848 -1.5285  0.8854 -1.2885
   77MOL   H53249324   2.683   2.746   7.035 -0.0996  0.1815  0.6904
   77MOL   H53349325   2.522   2.822   7.022 -1.4576 -0.2926 -2.8343
   77MOL   H53449326   2.632   3.020   6.927 -0.3201  0.9635  1.1561
   77MOL   H53549327   2.789   2.954   6.946 -0.0438 -1.3604  0.9270
   77MOL   H53649328   2.732   3.199   7.078 -1.6026  1.0601  0.7007
   77MOL   H53749329   2.864   3.210   7.294 -1.0901  1.4603  2.1109
   77MOL   H53849330   2.715   3.151   7.363 -0.1471  0.1064  0.5141
   77MOL   H53949331   2.759   3.400   7.194 -1.6810  0.3258 -0.7276
   77MOL   H54049332   2.606   3.343   7.204  0.1857 -0.7831 -0.5532
   77MOL   H54149333   2.771   3.409   7.451  0.8749 -2.7004 -2.0108
   77MOL   H54249334   2.614   3.346   7.464  1.7130 -1.7209  1.3166
   77MOL   H54349335   2.529   3.557   7.358 -1.1516 -0.9333  0.8096
   77MOL   H54449336   2.687   3.612   7.342 -0.6122  0.5266  0.0632
   77MOL   H54549337   2.673   3.546   7.620  0.6860 -1.1230 -0.7896
   77MOL   C54649338   2.603   3.727   7.578  0.3090  0.2843 -0.7191
   77MOL   O54749339   2.561   3.809   7.496 -0.1244 -0.2771 -0.0309
   77MOL   C54849340   2.622   3.780   0.020  1.0379  0.3554 -1.0320
   77MOL   C54949341   2.635   3.927   0.045 -0.1847 -0.5565 -0.4125
   77MOL   C55049342   2.735   3.987   7.651  0.1612 -0.1165 -0.9712
   77MOL   C55149343   2.786   4.128   7.699  0.7061 -0.4207  0.1576
   77MOL   C55249344   2.926   4.163   7.658  0.1719 -0.2661  0.9902
   77MOL   O55349345   2.943   4.257   7.583 -0.4883 -0.1278 -0.0460
   77MOL   N55449346   3.020   4.078   0.001 -0.0008 -0.2311 -0.3664
   77MOL   C55549347   3.158   4.090   7.659 -0.0687  0.1894 -0.6511
   77MOL   C55649348   3.234   3.963   7.668 -0.3246  0.5880 -0.2192
   77MOL   C55749349   3.383   3.969   7.625  0.7116 -0.1755  0.4917
   77MOL   C55849350   3.451   3.835   7.594 -0.0009  0.9609  0.6072
   77MOL   N55949351   3.423   3.744   0.004 -0.6074 -0.6170  0.5123
   77MOL   H56049352   2.533   3.756   0.079  0.1821  2.3615 -1.4637
   77MOL   H56149353   2.713   3.740   0.064  0.1947 -0.2536  0.1948
   77MOL   H56249354   2.539   3.975   0.033 -0.0043 -0.3988 -1.2545
   77MOL   H56349355   2.672   3.958   0.143  1.4259 -1.7339 -0.6127
   77MOL   H56449356   2.690   3.994   7.552 -0.2601 -1.8856 -0.9231
   77MOL   H56549357   2.822   3.921   7.642 -0.7901 -1.3319 -1.2891
   77MOL   H56649358   2.780   4.134   0.106  1.8821  2.2273  0.1308
   77MOL   H56749359   2.720   4.198   7.647 -0.3258 -1.5046 -0.0174
   77MOL   H56849360   3.002   3.998   0.060 -0.5106 -0.3917 -0.7304
   77MOL   H56949361   3.205   4.171   0.014 -0.5528  0.0047  0.0139
   77MOL   H57049362   3.160   4.112   7.552  0.4715  1.2723 -0.4332
   77MOL   H57149363   3.225   3.931   0.071  0.9179 -1.3923 -0.6922
   77MOL   H57249364   3.191   3.891   7.598  1.0443  0.0044 -0.4701
   77MOL   H57349365   3.430   4.010   0.013  1.4980  0.3862 -0.1769
   77MOL   H57449366   3.392   4.033   7.537 -3.3769  0.8676  0.6833
   77MOL   H57549367   3.559   3.849   7.593  0.6954 -3.6115 -0.0938
   77MOL   H57649368   3.426   3.798   7.494  1.1239 -0.0624  0.6855
   77MOL   H57749369   3.429   3.785   0.097  2.2156  1.2474 -0.4085
   77MOL   C57849370   3.370   3.619   0.004 -0.0849 -0.1728  0.3802
   77MOL   O57949371   3.347   3.558   7.608 -0.5812 -0.4506  0.1672
   77MOL   C58049372   3.341   3.555   0.143 -0.8877  0.3630  0.9951
   77MOL   C58149373   3.185   3.528   0.170 -0.0915 -0.6195 -0.3139
   77MOL   C58249374   3.103   3.660   0.182  0.0525  0.4468  0.8313
   77MOL   C58349375   2.967   3.637   0.244  0.1151  0.4761 -0.0400
   77MOL   C58449376   2.897   3.765   0.296 -0.2556 -0.1089 -0.3822
   77MOL   O58549377   2.905   3.872   0.238 -0.0295 -0.4136  0.1585
   77MOL   N58649378   2.820   3.738   0.401  0.3092  0.0126  0.0131
   77MOL   C58749379   2.701   3.813   0.438  0.9522 -0.2781 -0.0115
   77MOL   C58849380   2.580   3.723   0.418  0.3812  0.8917 -0.3484
   77MOL   C58949381   2.450   3.800   0.375 -0.1946 -0.2741  0.4214
   77MOL   C59049382   2.342   3.701   0.316 -0.0266 -0.4586  0.1442
   77MOL   N59149383   2.292   3.614   0.424 -0.1694 -0.1173  0.3629
   77MOL   H59249384   3.399   3.464   0.157 -1.4315  0.2696  2.8155
   77MOL   H59349385   3.382   3.618   0.221  0.0591  1.4112 -0.3273
   77MOL   H59449386   3.149   3.468   0.086 -0.2553 -0.1265 -0.5986
   77MOL   H59549387   3.177   3.465   0.258 -1.8282 -0.1696 -0.1330
   77MOL   H59649388   3.090   3.705   0.084 -0.1084  1.7645  1.4302
   77MOL   H59749389   3.157   3.742   0.231  1.8103 -1.1684  1.6505
   77MOL   H59849390   2.967   3.557   0.318  1.3136  1.2464  0.8161
   77MOL   H59949391   2.902   3.604   0.163 -1.1715  2.1666  0.2577
   77MOL   H60049392   2.833   3.651   0.452  2.0562  0.8227  0.9955
   77MOL   H60149393   2.682   3.900   0.375 -0.1873 -0.2942  0.2962
   77MOL   H60249394   2.708   3.839   0.544 -0.0272  1.2255 -0.3069
   77MOL   H60349395   2.584   3.639   0.349 -0.5258 -0.1226  0.8149
   77MOL   H60449396   2.580   3.677   0.517 -1.8244  0.3381 -0.5879
   77MOL   H60549397   2.473   3.870   0.294 -1.8405  1.4926  1.4407
   77MOL   H60649398   2.421   3.854   0.465  0.2875 -0.3024  0.5931
   77MOL   H60749399   2.386   3.643   0.235 -0.4201 -0.5003 -0.0417
   77MOL   H60849400   2.251   3.750   0.281  0.4680  0.0336 -0.4643
   77MOL   H60949401   2.350   3.603   0.506  0.5579 -0.2421 -0.1620
   77MOL   C61049402   2.165   3.567   0.431  0.2962 -0.4007 -0.2920
   77MOL   O61149403   2.085   3.567   0.338  0.0865  0.5888 -0.1174
   77MOL   C61249404   2.136   3.510   0.571  0.1115 -0.3942  0.1246
   77MOL   C61349405   2.156   3.361   0.567  0.0299 -0.1747  0.3289
   77MOL   C61449406   2.305   3.340   0.595 -0.5526  0.1453  0.3883
   77MOL   C61549407   2.347   3.187   0.618 -0.2672 -0.4539  0.0785
   77MOL   C61649408   2.363   3.147   0.761  0.4239 -0.0941 -0.0986
   77MOL   O61749409   2.268   3.170   0.834 -0.0595 -0.0956  0.0160
   77MOL   N61849410   2.478   3.106   0.806  0.4981 -0.3379  0.3434
   77MOL   C61949411   2.516   3.075   0.944  0.3383 -0.4327 -0.3939
   77MOL   C62049412   2.645   3.137   0.983 -0.5843  0.4117 -0.6841
   77MOL   C62149413   2.640   3.293   0.991  0.0346 -0.0798  0.3490
   77MOL   C62249414   2.674   3.356   0.859 -0.3370  0.1765 -0.1555
   77MOL   N62349415   2.642   3.496   0.851 -0.0576 -0.2697 -0.2272
   77MOL   H62449416   2.197   3.560   0.645  0.2817 -0.8895  0.3210
   77MOL   H62549417   2.029   3.522   0.592  0.3799  1.4039  0.5245
   77MOL   H62649418   2.095   3.310   0.642  1.8323 -0.4532  1.6470
   77MOL   H62749419   2.126   3.326   0.469  0.8151  0.9876 -0.3454
   77MOL   H62849420   2.336   3.392   0.686 -0.2874 -0.3101  0.5653
   77MOL   H62949421   2.370   3.379   0.517  3.0449 -1.3050  2.5074
   77MOL   H63049422   2.443   3.176   0.567 -1.5608 -1.2885 -2.2738
   77MOL   H63149423   2.283   3.122   0.559  1.3596  0.3017 -2.6200
   77MOL   H63249424   2.546   3.093   0.733  0.9377 -0.0382  0.6994
   77MOL   H63349425   2.534   2.968   0.953  1.0799 -0.2628  0.2396
   77MOL   H63449426   2.445   3.106   1.021  0.7357 -0.2198 -0.1144
   77MOL   H63549427   2.665   3.106   1.085 -3.0834  0.0392 -0.2845
   77MOL   H63649428   2.726   3.099   0.920  1.2797  2.1452  0.5769
   77MOL   H63749429   2.721   3.321   1.059  1.6715 -2.4801 -0.5434
   77MOL   H63849430   2.540   3.320   1.024 -0.1217  0.1009 -0.2642
   77MOL   H63949431   2.627   3.306   0.774  1.0298 -0.5710 -0.4861
   77MOL   H64049432   2.781   3.336   0.848 -0.7215 -0.9318 -2.0672
   77MOL   H64149433   2.648   3.522   0.754 -2.1175  0.9967 -0.0285
   77MOL   H64249434   2.548   3.519   0.878 -1.1985 -1.9009 -2.6434
   7.70131   7.70131   7.70131
