;
; Gromacs include topology (itp) file.
; For Molecular Group XYZ
; Force field scheme: opls2005
; Produced from DL_FIELD v4.11
;


[ moleculetype ]
; name    nrexcl
XYZ    3

[ atoms ]
; nr   type   resnr   residu    atom    cgnr    charge    mass
    1       CO4    1  MOL      C1     1   0.4500000   12.0115
    2         O    1  MOL      O2     2  -0.4500000   15.9994
    3        CT    1  MOL      C3     3  -0.1200000   12.0115
    4        CT    1  MOL      C4     4  -0.1200000   12.0115
    5        CT    1  MOL      C5     5  -0.1200000   12.0115
    6        CT    1  MOL      C6     6  -0.1200000   12.0115
    7         C    1  MOL      C7     7   0.5000000   12.0115
    8         O    1  MOL      O8     8  -0.5000000   15.9994
    9         N    1  MOL      N9     9  -0.5000000   14.0067
   10        CT    1  MOL     C10    10   0.0800000   12.0115
   11        CT    1  MOL     C11    11  -0.1200000   12.0115
   12        CT    1  MOL     C12    12  -0.1200000   12.0115
   13        CT    1  MOL     C13    13   0.0800000   12.0115
   14         N    1  MOL     N14    14  -0.5000000   14.0067
   15       HAE    1  MOL     H15    15   0.0600000    1.0080
   16       HAE    1  MOL     H16    16   0.0600000    1.0080
   17        HC    1  MOL     H17    17   0.0600000    1.0080
   18        HC    1  MOL     H18    18   0.0600000    1.0080
   19        HC    1  MOL     H19    19   0.0600000    1.0080
   20        HC    1  MOL     H20    20   0.0600000    1.0080
   21        HC    1  MOL     H21    21   0.0600000    1.0080
   22        HC    1  MOL     H22    22   0.0600000    1.0080
   23         H    1  MOL     H23    23   0.3000000    1.0080
   24        HC    1  MOL     H24    24   0.0600000    1.0080
   25        HC    1  MOL     H25    25   0.0600000    1.0080
   26        HC    1  MOL     H26    26   0.0600000    1.0080
   27        HC    1  MOL     H27    27   0.0600000    1.0080
   28        HC    1  MOL     H28    28   0.0600000    1.0080
   29        HC    1  MOL     H29    29   0.0600000    1.0080
   30        HC    1  MOL     H30    30   0.0600000    1.0080
   31        HC    1  MOL     H31    31   0.0600000    1.0080
   32         H    1  MOL     H32    32   0.3000000    1.0080
   33       HAE    1  MOL     H33    33   0.0000000    1.0080
   34         C    1  MOL     C34    34   0.5000000   12.0115
   35         O    1  MOL     O35    35  -0.5000000   15.9994
   36        CT    1  MOL     C36    36  -0.1200000   12.0115
   37        CT    1  MOL     C37    37  -0.1200000   12.0115
   38        CT    1  MOL     C38    38  -0.1200000   12.0115
   39        CT    1  MOL     C39    39  -0.1200000   12.0115
   40         C    1  MOL     C40    40   0.5000000   12.0115
   41         O    1  MOL     O41    41  -0.5000000   15.9994
   42         N    1  MOL     N42    42  -0.5000000   14.0067
   43        CT    1  MOL     C43    43   0.0800000   12.0115
   44        CT    1  MOL     C44    44  -0.1200000   12.0115
   45        CT    1  MOL     C45    45  -0.1200000   12.0115
   46        CT    1  MOL     C46    46   0.0800000   12.0115
   47         N    1  MOL     N47    47  -0.5000000   14.0067
   48        HC    1  MOL     H48    48   0.0600000    1.0080
   49        HC    1  MOL     H49    49   0.0600000    1.0080
   50        HC    1  MOL     H50    50   0.0600000    1.0080
   51        HC    1  MOL     H51    51   0.0600000    1.0080
   52        HC    1  MOL     H52    52   0.0600000    1.0080
   53        HC    1  MOL     H53    53   0.0600000    1.0080
   54        HC    1  MOL     H54    54   0.0600000    1.0080
   55        HC    1  MOL     H55    55   0.0600000    1.0080
   56         H    1  MOL     H56    56   0.3000000    1.0080
   57        HC    1  MOL     H57    57   0.0600000    1.0080
   58        HC    1  MOL     H58    58   0.0600000    1.0080
   59        HC    1  MOL     H59    59   0.0600000    1.0080
   60        HC    1  MOL     H60    60   0.0600000    1.0080
   61        HC    1  MOL     H61    61   0.0600000    1.0080
   62        HC    1  MOL     H62    62   0.0600000    1.0080
   63        HC    1  MOL     H63    63   0.0600000    1.0080
   64        HC    1  MOL     H64    64   0.0600000    1.0080
   65         H    1  MOL     H65    65   0.3000000    1.0080
   66         C    1  MOL     C66    66   0.5000000   12.0115
   67         O    1  MOL     O67    67  -0.5000000   15.9994
   68        CT    1  MOL     C68    68  -0.1200000   12.0115
   69        CT    1  MOL     C69    69  -0.1200000   12.0115
   70        CT    1  MOL     C70    70  -0.1200000   12.0115
   71        CT    1  MOL     C71    71  -0.1200000   12.0115
   72         C    1  MOL     C72    72   0.5000000   12.0115
   73         O    1  MOL     O73    73  -0.5000000   15.9994
   74         N    1  MOL     N74    74  -0.5000000   14.0067
   75        CT    1  MOL     C75    75   0.0800000   12.0115
   76        CT    1  MOL     C76    76  -0.1200000   12.0115
   77        CT    1  MOL     C77    77  -0.1200000   12.0115
   78        CT    1  MOL     C78    78   0.0800000   12.0115
   79         N    1  MOL     N79    79  -0.5000000   14.0067
   80        HC    1  MOL     H80    80   0.0600000    1.0080
   81        HC    1  MOL     H81    81   0.0600000    1.0080
   82        HC    1  MOL     H82    82   0.0600000    1.0080
   83        HC    1  MOL     H83    83   0.0600000    1.0080
   84        HC    1  MOL     H84    84   0.0600000    1.0080
   85        HC    1  MOL     H85    85   0.0600000    1.0080
   86        HC    1  MOL     H86    86   0.0600000    1.0080
   87        HC    1  MOL     H87    87   0.0600000    1.0080
   88         H    1  MOL     H88    88   0.3000000    1.0080
   89        HC    1  MOL     H89    89   0.0600000    1.0080
   90        HC    1  MOL     H90    90   0.0600000    1.0080
   91        HC    1  MOL     H91    91   0.0600000    1.0080
   92        HC    1  MOL     H92    92   0.0600000    1.0080
   93        HC    1  MOL     H93    93   0.0600000    1.0080
   94        HC    1  MOL     H94    94   0.0600000    1.0080
   95        HC    1  MOL     H95    95   0.0600000    1.0080
   96        HC    1  MOL     H96    96   0.0600000    1.0080
   97         H    1  MOL     H97    97   0.3000000    1.0080
   98         C    1  MOL     C98    98   0.5000000   12.0115
   99         O    1  MOL     O99    99  -0.5000000   15.9994
  100        CT    1  MOL    C100   100  -0.1200000   12.0115
  101        CT    1  MOL    C101   101  -0.1200000   12.0115
  102        CT    1  MOL    C102   102  -0.1200000   12.0115
  103        CT    1  MOL    C103   103  -0.1200000   12.0115
  104         C    1  MOL    C104   104   0.5000000   12.0115
  105         O    1  MOL    O105   105  -0.5000000   15.9994
  106         N    1  MOL    N106   106  -0.5000000   14.0067
  107        CT    1  MOL    C107   107   0.0800000   12.0115
  108        CT    1  MOL    C108   108  -0.1200000   12.0115
  109        CT    1  MOL    C109   109  -0.1200000   12.0115
  110        CT    1  MOL    C110   110   0.0800000   12.0115
  111         N    1  MOL    N111   111  -0.5000000   14.0067
  112        HC    1  MOL    H112   112   0.0600000    1.0080
  113        HC    1  MOL    H113   113   0.0600000    1.0080
  114        HC    1  MOL    H114   114   0.0600000    1.0080
  115        HC    1  MOL    H115   115   0.0600000    1.0080
  116        HC    1  MOL    H116   116   0.0600000    1.0080
  117        HC    1  MOL    H117   117   0.0600000    1.0080
  118        HC    1  MOL    H118   118   0.0600000    1.0080
  119        HC    1  MOL    H119   119   0.0600000    1.0080
  120         H    1  MOL    H120   120   0.3000000    1.0080
  121        HC    1  MOL    H121   121   0.0600000    1.0080
  122        HC    1  MOL    H122   122   0.0600000    1.0080
  123        HC    1  MOL    H123   123   0.0600000    1.0080
  124        HC    1  MOL    H124   124   0.0600000    1.0080
  125        HC    1  MOL    H125   125   0.0600000    1.0080
  126        HC    1  MOL    H126   126   0.0600000    1.0080
  127        HC    1  MOL    H127   127   0.0600000    1.0080
  128        HC    1  MOL    H128   128   0.0600000    1.0080
  129         H    1  MOL    H129   129   0.3000000    1.0080
  130         C    1  MOL    C130   130   0.5000000   12.0115
  131         O    1  MOL    O131   131  -0.5000000   15.9994
  132        CT    1  MOL    C132   132  -0.1200000   12.0115
  133        CT    1  MOL    C133   133  -0.1200000   12.0115
  134        CT    1  MOL    C134   134  -0.1200000   12.0115
  135        CT    1  MOL    C135   135  -0.1200000   12.0115
  136         C    1  MOL    C136   136   0.5000000   12.0115
  137         O    1  MOL    O137   137  -0.5000000   15.9994
  138         N    1  MOL    N138   138  -0.5000000   14.0067
  139        CT    1  MOL    C139   139   0.0800000   12.0115
  140        CT    1  MOL    C140   140  -0.1200000   12.0115
  141        CT    1  MOL    C141   141  -0.1200000   12.0115
  142        CT    1  MOL    C142   142   0.0800000   12.0115
  143         N    1  MOL    N143   143  -0.5000000   14.0067
  144        HC    1  MOL    H144   144   0.0600000    1.0080
  145        HC    1  MOL    H145   145   0.0600000    1.0080
  146        HC    1  MOL    H146   146   0.0600000    1.0080
  147        HC    1  MOL    H147   147   0.0600000    1.0080
  148        HC    1  MOL    H148   148   0.0600000    1.0080
  149        HC    1  MOL    H149   149   0.0600000    1.0080
  150        HC    1  MOL    H150   150   0.0600000    1.0080
  151        HC    1  MOL    H151   151   0.0600000    1.0080
  152         H    1  MOL    H152   152   0.3000000    1.0080
  153        HC    1  MOL    H153   153   0.0600000    1.0080
  154        HC    1  MOL    H154   154   0.0600000    1.0080
  155        HC    1  MOL    H155   155   0.0600000    1.0080
  156        HC    1  MOL    H156   156   0.0600000    1.0080
  157        HC    1  MOL    H157   157   0.0600000    1.0080
  158        HC    1  MOL    H158   158   0.0600000    1.0080
  159        HC    1  MOL    H159   159   0.0600000    1.0080
  160        HC    1  MOL    H160   160   0.0600000    1.0080
  161         H    1  MOL    H161   161   0.3000000    1.0080
  162         C    1  MOL    C162   162   0.5000000   12.0115
  163         O    1  MOL    O163   163  -0.5000000   15.9994
  164        CT    1  MOL    C164   164  -0.1200000   12.0115
  165        CT    1  MOL    C165   165  -0.1200000   12.0115
  166        CT    1  MOL    C166   166  -0.1200000   12.0115
  167        CT    1  MOL    C167   167  -0.1200000   12.0115
  168         C    1  MOL    C168   168   0.5000000   12.0115
  169         O    1  MOL    O169   169  -0.5000000   15.9994
  170         N    1  MOL    N170   170  -0.5000000   14.0067
  171        CT    1  MOL    C171   171   0.0800000   12.0115
  172        CT    1  MOL    C172   172  -0.1200000   12.0115
  173        CT    1  MOL    C173   173  -0.1200000   12.0115
  174        CT    1  MOL    C174   174   0.0800000   12.0115
  175         N    1  MOL    N175   175  -0.5000000   14.0067
  176        HC    1  MOL    H176   176   0.0600000    1.0080
  177        HC    1  MOL    H177   177   0.0600000    1.0080
  178        HC    1  MOL    H178   178   0.0600000    1.0080
  179        HC    1  MOL    H179   179   0.0600000    1.0080
  180        HC    1  MOL    H180   180   0.0600000    1.0080
  181        HC    1  MOL    H181   181   0.0600000    1.0080
  182        HC    1  MOL    H182   182   0.0600000    1.0080
  183        HC    1  MOL    H183   183   0.0600000    1.0080
  184         H    1  MOL    H184   184   0.3000000    1.0080
  185        HC    1  MOL    H185   185   0.0600000    1.0080
  186        HC    1  MOL    H186   186   0.0600000    1.0080
  187        HC    1  MOL    H187   187   0.0600000    1.0080
  188        HC    1  MOL    H188   188   0.0600000    1.0080
  189        HC    1  MOL    H189   189   0.0600000    1.0080
  190        HC    1  MOL    H190   190   0.0600000    1.0080
  191        HC    1  MOL    H191   191   0.0600000    1.0080
  192        HC    1  MOL    H192   192   0.0600000    1.0080
  193         H    1  MOL    H193   193   0.3000000    1.0080
  194         C    1  MOL    C194   194   0.5000000   12.0115
  195         O    1  MOL    O195   195  -0.5000000   15.9994
  196        CT    1  MOL    C196   196  -0.1200000   12.0115
  197        CT    1  MOL    C197   197  -0.1200000   12.0115
  198        CT    1  MOL    C198   198  -0.1200000   12.0115
  199        CT    1  MOL    C199   199  -0.1200000   12.0115
  200         C    1  MOL    C200   200   0.5000000   12.0115
  201         O    1  MOL    O201   201  -0.5000000   15.9994
  202         N    1  MOL    N202   202  -0.5000000   14.0067
  203        CT    1  MOL    C203   203   0.0800000   12.0115
  204        CT    1  MOL    C204   204  -0.1200000   12.0115
  205        CT    1  MOL    C205   205  -0.1200000   12.0115
  206        CT    1  MOL    C206   206   0.0800000   12.0115
  207         N    1  MOL    N207   207  -0.5000000   14.0067
  208        HC    1  MOL    H208   208   0.0600000    1.0080
  209        HC    1  MOL    H209   209   0.0600000    1.0080
  210        HC    1  MOL    H210   210   0.0600000    1.0080
  211        HC    1  MOL    H211   211   0.0600000    1.0080
  212        HC    1  MOL    H212   212   0.0600000    1.0080
  213        HC    1  MOL    H213   213   0.0600000    1.0080
  214        HC    1  MOL    H214   214   0.0600000    1.0080
  215        HC    1  MOL    H215   215   0.0600000    1.0080
  216         H    1  MOL    H216   216   0.3000000    1.0080
  217        HC    1  MOL    H217   217   0.0600000    1.0080
  218        HC    1  MOL    H218   218   0.0600000    1.0080
  219        HC    1  MOL    H219   219   0.0600000    1.0080
  220        HC    1  MOL    H220   220   0.0600000    1.0080
  221        HC    1  MOL    H221   221   0.0600000    1.0080
  222        HC    1  MOL    H222   222   0.0600000    1.0080
  223        HC    1  MOL    H223   223   0.0600000    1.0080
  224        HC    1  MOL    H224   224   0.0600000    1.0080
  225         H    1  MOL    H225   225   0.3000000    1.0080
  226         C    1  MOL    C226   226   0.5000000   12.0115
  227         O    1  MOL    O227   227  -0.5000000   15.9994
  228        CT    1  MOL    C228   228  -0.1200000   12.0115
  229        CT    1  MOL    C229   229  -0.1200000   12.0115
  230        CT    1  MOL    C230   230  -0.1200000   12.0115
  231        CT    1  MOL    C231   231  -0.1200000   12.0115
  232         C    1  MOL    C232   232   0.5000000   12.0115
  233         O    1  MOL    O233   233  -0.5000000   15.9994
  234         N    1  MOL    N234   234  -0.5000000   14.0067
  235        CT    1  MOL    C235   235   0.0800000   12.0115
  236        CT    1  MOL    C236   236  -0.1200000   12.0115
  237        CT    1  MOL    C237   237  -0.1200000   12.0115
  238        CT    1  MOL    C238   238   0.0800000   12.0115
  239         N    1  MOL    N239   239  -0.5000000   14.0067
  240        HC    1  MOL    H240   240   0.0600000    1.0080
  241        HC    1  MOL    H241   241   0.0600000    1.0080
  242        HC    1  MOL    H242   242   0.0600000    1.0080
  243        HC    1  MOL    H243   243   0.0600000    1.0080
  244        HC    1  MOL    H244   244   0.0600000    1.0080
  245        HC    1  MOL    H245   245   0.0600000    1.0080
  246        HC    1  MOL    H246   246   0.0600000    1.0080
  247        HC    1  MOL    H247   247   0.0600000    1.0080
  248         H    1  MOL    H248   248   0.3000000    1.0080
  249        HC    1  MOL    H249   249   0.0600000    1.0080
  250        HC    1  MOL    H250   250   0.0600000    1.0080
  251        HC    1  MOL    H251   251   0.0600000    1.0080
  252        HC    1  MOL    H252   252   0.0600000    1.0080
  253        HC    1  MOL    H253   253   0.0600000    1.0080
  254        HC    1  MOL    H254   254   0.0600000    1.0080
  255        HC    1  MOL    H255   255   0.0600000    1.0080
  256        HC    1  MOL    H256   256   0.0600000    1.0080
  257         H    1  MOL    H257   257   0.3000000    1.0080
  258         C    1  MOL    C258   258   0.5000000   12.0115
  259         O    1  MOL    O259   259  -0.5000000   15.9994
  260        CT    1  MOL    C260   260  -0.1200000   12.0115
  261        CT    1  MOL    C261   261  -0.1200000   12.0115
  262        CT    1  MOL    C262   262  -0.1200000   12.0115
  263        CT    1  MOL    C263   263  -0.1200000   12.0115
  264         C    1  MOL    C264   264   0.5000000   12.0115
  265         O    1  MOL    O265   265  -0.5000000   15.9994
  266         N    1  MOL    N266   266  -0.5000000   14.0067
  267        CT    1  MOL    C267   267   0.0800000   12.0115
  268        CT    1  MOL    C268   268  -0.1200000   12.0115
  269        CT    1  MOL    C269   269  -0.1200000   12.0115
  270        CT    1  MOL    C270   270   0.0800000   12.0115
  271         N    1  MOL    N271   271  -0.5000000   14.0067
  272        HC    1  MOL    H272   272   0.0600000    1.0080
  273        HC    1  MOL    H273   273   0.0600000    1.0080
  274        HC    1  MOL    H274   274   0.0600000    1.0080
  275        HC    1  MOL    H275   275   0.0600000    1.0080
  276        HC    1  MOL    H276   276   0.0600000    1.0080
  277        HC    1  MOL    H277   277   0.0600000    1.0080
  278        HC    1  MOL    H278   278   0.0600000    1.0080
  279        HC    1  MOL    H279   279   0.0600000    1.0080
  280         H    1  MOL    H280   280   0.3000000    1.0080
  281        HC    1  MOL    H281   281   0.0600000    1.0080
  282        HC    1  MOL    H282   282   0.0600000    1.0080
  283        HC    1  MOL    H283   283   0.0600000    1.0080
  284        HC    1  MOL    H284   284   0.0600000    1.0080
  285        HC    1  MOL    H285   285   0.0600000    1.0080
  286        HC    1  MOL    H286   286   0.0600000    1.0080
  287        HC    1  MOL    H287   287   0.0600000    1.0080
  288        HC    1  MOL    H288   288   0.0600000    1.0080
  289         H    1  MOL    H289   289   0.3000000    1.0080
  290         C    1  MOL    C290   290   0.5000000   12.0115
  291         O    1  MOL    O291   291  -0.5000000   15.9994
  292        CT    1  MOL    C292   292  -0.1200000   12.0115
  293        CT    1  MOL    C293   293  -0.1200000   12.0115
  294        CT    1  MOL    C294   294  -0.1200000   12.0115
  295        CT    1  MOL    C295   295  -0.1200000   12.0115
  296         C    1  MOL    C296   296   0.5000000   12.0115
  297         O    1  MOL    O297   297  -0.5000000   15.9994
  298         N    1  MOL    N298   298  -0.5000000   14.0067
  299        CT    1  MOL    C299   299   0.0800000   12.0115
  300        CT    1  MOL    C300   300  -0.1200000   12.0115
  301        CT    1  MOL    C301   301  -0.1200000   12.0115
  302        CT    1  MOL    C302   302   0.0800000   12.0115
  303         N    1  MOL    N303   303  -0.5000000   14.0067
  304        HC    1  MOL    H304   304   0.0600000    1.0080
  305        HC    1  MOL    H305   305   0.0600000    1.0080
  306        HC    1  MOL    H306   306   0.0600000    1.0080
  307        HC    1  MOL    H307   307   0.0600000    1.0080
  308        HC    1  MOL    H308   308   0.0600000    1.0080
  309        HC    1  MOL    H309   309   0.0600000    1.0080
  310        HC    1  MOL    H310   310   0.0600000    1.0080
  311        HC    1  MOL    H311   311   0.0600000    1.0080
  312         H    1  MOL    H312   312   0.3000000    1.0080
  313        HC    1  MOL    H313   313   0.0600000    1.0080
  314        HC    1  MOL    H314   314   0.0600000    1.0080
  315        HC    1  MOL    H315   315   0.0600000    1.0080
  316        HC    1  MOL    H316   316   0.0600000    1.0080
  317        HC    1  MOL    H317   317   0.0600000    1.0080
  318        HC    1  MOL    H318   318   0.0600000    1.0080
  319        HC    1  MOL    H319   319   0.0600000    1.0080
  320        HC    1  MOL    H320   320   0.0600000    1.0080
  321         H    1  MOL    H321   321   0.3000000    1.0080
  322         C    1  MOL    C322   322   0.5000000   12.0115
  323         O    1  MOL    O323   323  -0.5000000   15.9994
  324        CT    1  MOL    C324   324  -0.1200000   12.0115
  325        CT    1  MOL    C325   325  -0.1200000   12.0115
  326        CT    1  MOL    C326   326  -0.1200000   12.0115
  327        CT    1  MOL    C327   327  -0.1200000   12.0115
  328         C    1  MOL    C328   328   0.5000000   12.0115
  329         O    1  MOL    O329   329  -0.5000000   15.9994
  330         N    1  MOL    N330   330  -0.5000000   14.0067
  331        CT    1  MOL    C331   331   0.0800000   12.0115
  332        CT    1  MOL    C332   332  -0.1200000   12.0115
  333        CT    1  MOL    C333   333  -0.1200000   12.0115
  334        CT    1  MOL    C334   334   0.0800000   12.0115
  335         N    1  MOL    N335   335  -0.5000000   14.0067
  336        HC    1  MOL    H336   336   0.0600000    1.0080
  337        HC    1  MOL    H337   337   0.0600000    1.0080
  338        HC    1  MOL    H338   338   0.0600000    1.0080
  339        HC    1  MOL    H339   339   0.0600000    1.0080
  340        HC    1  MOL    H340   340   0.0600000    1.0080
  341        HC    1  MOL    H341   341   0.0600000    1.0080
  342        HC    1  MOL    H342   342   0.0600000    1.0080
  343        HC    1  MOL    H343   343   0.0600000    1.0080
  344         H    1  MOL    H344   344   0.3000000    1.0080
  345        HC    1  MOL    H345   345   0.0600000    1.0080
  346        HC    1  MOL    H346   346   0.0600000    1.0080
  347        HC    1  MOL    H347   347   0.0600000    1.0080
  348        HC    1  MOL    H348   348   0.0600000    1.0080
  349        HC    1  MOL    H349   349   0.0600000    1.0080
  350        HC    1  MOL    H350   350   0.0600000    1.0080
  351        HC    1  MOL    H351   351   0.0600000    1.0080
  352        HC    1  MOL    H352   352   0.0600000    1.0080
  353         H    1  MOL    H353   353   0.3000000    1.0080
  354         C    1  MOL    C354   354   0.5000000   12.0115
  355         O    1  MOL    O355   355  -0.5000000   15.9994
  356        CT    1  MOL    C356   356  -0.1200000   12.0115
  357        CT    1  MOL    C357   357  -0.1200000   12.0115
  358        CT    1  MOL    C358   358  -0.1200000   12.0115
  359        CT    1  MOL    C359   359  -0.1200000   12.0115
  360         C    1  MOL    C360   360   0.5000000   12.0115
  361         O    1  MOL    O361   361  -0.5000000   15.9994
  362         N    1  MOL    N362   362  -0.5000000   14.0067
  363        CT    1  MOL    C363   363   0.0800000   12.0115
  364        CT    1  MOL    C364   364  -0.1200000   12.0115
  365        CT    1  MOL    C365   365  -0.1200000   12.0115
  366        CT    1  MOL    C366   366   0.0800000   12.0115
  367         N    1  MOL    N367   367  -0.5000000   14.0067
  368        HC    1  MOL    H368   368   0.0600000    1.0080
  369        HC    1  MOL    H369   369   0.0600000    1.0080
  370        HC    1  MOL    H370   370   0.0600000    1.0080
  371        HC    1  MOL    H371   371   0.0600000    1.0080
  372        HC    1  MOL    H372   372   0.0600000    1.0080
  373        HC    1  MOL    H373   373   0.0600000    1.0080
  374        HC    1  MOL    H374   374   0.0600000    1.0080
  375        HC    1  MOL    H375   375   0.0600000    1.0080
  376         H    1  MOL    H376   376   0.3000000    1.0080
  377        HC    1  MOL    H377   377   0.0600000    1.0080
  378        HC    1  MOL    H378   378   0.0600000    1.0080
  379        HC    1  MOL    H379   379   0.0600000    1.0080
  380        HC    1  MOL    H380   380   0.0600000    1.0080
  381        HC    1  MOL    H381   381   0.0600000    1.0080
  382        HC    1  MOL    H382   382   0.0600000    1.0080
  383        HC    1  MOL    H383   383   0.0600000    1.0080
  384        HC    1  MOL    H384   384   0.0600000    1.0080
  385         H    1  MOL    H385   385   0.3000000    1.0080
  386         C    1  MOL    C386   386   0.5000000   12.0115
  387         O    1  MOL    O387   387  -0.5000000   15.9994
  388        CT    1  MOL    C388   388  -0.1200000   12.0115
  389        CT    1  MOL    C389   389  -0.1200000   12.0115
  390        CT    1  MOL    C390   390  -0.1200000   12.0115
  391        CT    1  MOL    C391   391  -0.1200000   12.0115
  392         C    1  MOL    C392   392   0.5000000   12.0115
  393         O    1  MOL    O393   393  -0.5000000   15.9994
  394         N    1  MOL    N394   394  -0.5000000   14.0067
  395        CT    1  MOL    C395   395   0.0800000   12.0115
  396        CT    1  MOL    C396   396  -0.1200000   12.0115
  397        CT    1  MOL    C397   397  -0.1200000   12.0115
  398        CT    1  MOL    C398   398   0.0800000   12.0115
  399         N    1  MOL    N399   399  -0.5000000   14.0067
  400        HC    1  MOL    H400   400   0.0600000    1.0080
  401        HC    1  MOL    H401   401   0.0600000    1.0080
  402        HC    1  MOL    H402   402   0.0600000    1.0080
  403        HC    1  MOL    H403   403   0.0600000    1.0080
  404        HC    1  MOL    H404   404   0.0600000    1.0080
  405        HC    1  MOL    H405   405   0.0600000    1.0080
  406        HC    1  MOL    H406   406   0.0600000    1.0080
  407        HC    1  MOL    H407   407   0.0600000    1.0080
  408         H    1  MOL    H408   408   0.3000000    1.0080
  409        HC    1  MOL    H409   409   0.0600000    1.0080
  410        HC    1  MOL    H410   410   0.0600000    1.0080
  411        HC    1  MOL    H411   411   0.0600000    1.0080
  412        HC    1  MOL    H412   412   0.0600000    1.0080
  413        HC    1  MOL    H413   413   0.0600000    1.0080
  414        HC    1  MOL    H414   414   0.0600000    1.0080
  415        HC    1  MOL    H415   415   0.0600000    1.0080
  416        HC    1  MOL    H416   416   0.0600000    1.0080
  417         H    1  MOL    H417   417   0.3000000    1.0080
  418         C    1  MOL    C418   418   0.5000000   12.0115
  419         O    1  MOL    O419   419  -0.5000000   15.9994
  420        CT    1  MOL    C420   420  -0.1200000   12.0115
  421        CT    1  MOL    C421   421  -0.1200000   12.0115
  422        CT    1  MOL    C422   422  -0.1200000   12.0115
  423        CT    1  MOL    C423   423  -0.1200000   12.0115
  424         C    1  MOL    C424   424   0.5000000   12.0115
  425         O    1  MOL    O425   425  -0.5000000   15.9994
  426         N    1  MOL    N426   426  -0.5000000   14.0067
  427        CT    1  MOL    C427   427   0.0800000   12.0115
  428        CT    1  MOL    C428   428  -0.1200000   12.0115
  429        CT    1  MOL    C429   429  -0.1200000   12.0115
  430        CT    1  MOL    C430   430   0.0800000   12.0115
  431         N    1  MOL    N431   431  -0.5000000   14.0067
  432        HC    1  MOL    H432   432   0.0600000    1.0080
  433        HC    1  MOL    H433   433   0.0600000    1.0080
  434        HC    1  MOL    H434   434   0.0600000    1.0080
  435        HC    1  MOL    H435   435   0.0600000    1.0080
  436        HC    1  MOL    H436   436   0.0600000    1.0080
  437        HC    1  MOL    H437   437   0.0600000    1.0080
  438        HC    1  MOL    H438   438   0.0600000    1.0080
  439        HC    1  MOL    H439   439   0.0600000    1.0080
  440         H    1  MOL    H440   440   0.3000000    1.0080
  441        HC    1  MOL    H441   441   0.0600000    1.0080
  442        HC    1  MOL    H442   442   0.0600000    1.0080
  443        HC    1  MOL    H443   443   0.0600000    1.0080
  444        HC    1  MOL    H444   444   0.0600000    1.0080
  445        HC    1  MOL    H445   445   0.0600000    1.0080
  446        HC    1  MOL    H446   446   0.0600000    1.0080
  447        HC    1  MOL    H447   447   0.0600000    1.0080
  448        HC    1  MOL    H448   448   0.0600000    1.0080
  449         H    1  MOL    H449   449   0.3000000    1.0080
  450         C    1  MOL    C450   450   0.5000000   12.0115
  451         O    1  MOL    O451   451  -0.5000000   15.9994
  452        CT    1  MOL    C452   452  -0.1200000   12.0115
  453        CT    1  MOL    C453   453  -0.1200000   12.0115
  454        CT    1  MOL    C454   454  -0.1200000   12.0115
  455        CT    1  MOL    C455   455  -0.1200000   12.0115
  456         C    1  MOL    C456   456   0.5000000   12.0115
  457         O    1  MOL    O457   457  -0.5000000   15.9994
  458         N    1  MOL    N458   458  -0.5000000   14.0067
  459        CT    1  MOL    C459   459   0.0800000   12.0115
  460        CT    1  MOL    C460   460  -0.1200000   12.0115
  461        CT    1  MOL    C461   461  -0.1200000   12.0115
  462        CT    1  MOL    C462   462   0.0800000   12.0115
  463         N    1  MOL    N463   463  -0.5000000   14.0067
  464        HC    1  MOL    H464   464   0.0600000    1.0080
  465        HC    1  MOL    H465   465   0.0600000    1.0080
  466        HC    1  MOL    H466   466   0.0600000    1.0080
  467        HC    1  MOL    H467   467   0.0600000    1.0080
  468        HC    1  MOL    H468   468   0.0600000    1.0080
  469        HC    1  MOL    H469   469   0.0600000    1.0080
  470        HC    1  MOL    H470   470   0.0600000    1.0080
  471        HC    1  MOL    H471   471   0.0600000    1.0080
  472         H    1  MOL    H472   472   0.3000000    1.0080
  473        HC    1  MOL    H473   473   0.0600000    1.0080
  474        HC    1  MOL    H474   474   0.0600000    1.0080
  475        HC    1  MOL    H475   475   0.0600000    1.0080
  476        HC    1  MOL    H476   476   0.0600000    1.0080
  477        HC    1  MOL    H477   477   0.0600000    1.0080
  478        HC    1  MOL    H478   478   0.0600000    1.0080
  479        HC    1  MOL    H479   479   0.0600000    1.0080
  480        HC    1  MOL    H480   480   0.0600000    1.0080
  481         H    1  MOL    H481   481   0.3000000    1.0080
  482         C    1  MOL    C482   482   0.5000000   12.0115
  483         O    1  MOL    O483   483  -0.5000000   15.9994
  484        CT    1  MOL    C484   484  -0.1200000   12.0115
  485        CT    1  MOL    C485   485  -0.1200000   12.0115
  486        CT    1  MOL    C486   486  -0.1200000   12.0115
  487        CT    1  MOL    C487   487  -0.1200000   12.0115
  488         C    1  MOL    C488   488   0.5000000   12.0115
  489         O    1  MOL    O489   489  -0.5000000   15.9994
  490         N    1  MOL    N490   490  -0.5000000   14.0067
  491        CT    1  MOL    C491   491   0.0800000   12.0115
  492        CT    1  MOL    C492   492  -0.1200000   12.0115
  493        CT    1  MOL    C493   493  -0.1200000   12.0115
  494        CT    1  MOL    C494   494   0.0800000   12.0115
  495         N    1  MOL    N495   495  -0.5000000   14.0067
  496        HC    1  MOL    H496   496   0.0600000    1.0080
  497        HC    1  MOL    H497   497   0.0600000    1.0080
  498        HC    1  MOL    H498   498   0.0600000    1.0080
  499        HC    1  MOL    H499   499   0.0600000    1.0080
  500        HC    1  MOL    H500   500   0.0600000    1.0080
  501        HC    1  MOL    H501   501   0.0600000    1.0080
  502        HC    1  MOL    H502   502   0.0600000    1.0080
  503        HC    1  MOL    H503   503   0.0600000    1.0080
  504         H    1  MOL    H504   504   0.3000000    1.0080
  505        HC    1  MOL    H505   505   0.0600000    1.0080
  506        HC    1  MOL    H506   506   0.0600000    1.0080
  507        HC    1  MOL    H507   507   0.0600000    1.0080
  508        HC    1  MOL    H508   508   0.0600000    1.0080
  509        HC    1  MOL    H509   509   0.0600000    1.0080
  510        HC    1  MOL    H510   510   0.0600000    1.0080
  511        HC    1  MOL    H511   511   0.0600000    1.0080
  512        HC    1  MOL    H512   512   0.0600000    1.0080
  513         H    1  MOL    H513   513   0.3000000    1.0080
  514         C    1  MOL    C514   514   0.5000000   12.0115
  515         O    1  MOL    O515   515  -0.5000000   15.9994
  516        CT    1  MOL    C516   516  -0.1200000   12.0115
  517        CT    1  MOL    C517   517  -0.1200000   12.0115
  518        CT    1  MOL    C518   518  -0.1200000   12.0115
  519        CT    1  MOL    C519   519  -0.1200000   12.0115
  520         C    1  MOL    C520   520   0.5000000   12.0115
  521         O    1  MOL    O521   521  -0.5000000   15.9994
  522         N    1  MOL    N522   522  -0.5000000   14.0067
  523        CT    1  MOL    C523   523   0.0800000   12.0115
  524        CT    1  MOL    C524   524  -0.1200000   12.0115
  525        CT    1  MOL    C525   525  -0.1200000   12.0115
  526        CT    1  MOL    C526   526   0.0800000   12.0115
  527         N    1  MOL    N527   527  -0.5000000   14.0067
  528        HC    1  MOL    H528   528   0.0600000    1.0080
  529        HC    1  MOL    H529   529   0.0600000    1.0080
  530        HC    1  MOL    H530   530   0.0600000    1.0080
  531        HC    1  MOL    H531   531   0.0600000    1.0080
  532        HC    1  MOL    H532   532   0.0600000    1.0080
  533        HC    1  MOL    H533   533   0.0600000    1.0080
  534        HC    1  MOL    H534   534   0.0600000    1.0080
  535        HC    1  MOL    H535   535   0.0600000    1.0080
  536         H    1  MOL    H536   536   0.3000000    1.0080
  537        HC    1  MOL    H537   537   0.0600000    1.0080
  538        HC    1  MOL    H538   538   0.0600000    1.0080
  539        HC    1  MOL    H539   539   0.0600000    1.0080
  540        HC    1  MOL    H540   540   0.0600000    1.0080
  541        HC    1  MOL    H541   541   0.0600000    1.0080
  542        HC    1  MOL    H542   542   0.0600000    1.0080
  543        HC    1  MOL    H543   543   0.0600000    1.0080
  544        HC    1  MOL    H544   544   0.0600000    1.0080
  545         H    1  MOL    H545   545   0.3000000    1.0080
  546         C    1  MOL    C546   546   0.5000000   12.0115
  547         O    1  MOL    O547   547  -0.5000000   15.9994
  548        CT    1  MOL    C548   548  -0.1200000   12.0115
  549        CT    1  MOL    C549   549  -0.1200000   12.0115
  550        CT    1  MOL    C550   550  -0.1200000   12.0115
  551        CT    1  MOL    C551   551  -0.1200000   12.0115
  552         C    1  MOL    C552   552   0.5000000   12.0115
  553         O    1  MOL    O553   553  -0.5000000   15.9994
  554         N    1  MOL    N554   554  -0.5000000   14.0067
  555        CT    1  MOL    C555   555   0.0800000   12.0115
  556        CT    1  MOL    C556   556  -0.1200000   12.0115
  557        CT    1  MOL    C557   557  -0.1200000   12.0115
  558        CT    1  MOL    C558   558   0.0800000   12.0115
  559         N    1  MOL    N559   559  -0.5000000   14.0067
  560        HC    1  MOL    H560   560   0.0600000    1.0080
  561        HC    1  MOL    H561   561   0.0600000    1.0080
  562        HC    1  MOL    H562   562   0.0600000    1.0080
  563        HC    1  MOL    H563   563   0.0600000    1.0080
  564        HC    1  MOL    H564   564   0.0600000    1.0080
  565        HC    1  MOL    H565   565   0.0600000    1.0080
  566        HC    1  MOL    H566   566   0.0600000    1.0080
  567        HC    1  MOL    H567   567   0.0600000    1.0080
  568         H    1  MOL    H568   568   0.3000000    1.0080
  569        HC    1  MOL    H569   569   0.0600000    1.0080
  570        HC    1  MOL    H570   570   0.0600000    1.0080
  571        HC    1  MOL    H571   571   0.0600000    1.0080
  572        HC    1  MOL    H572   572   0.0600000    1.0080
  573        HC    1  MOL    H573   573   0.0600000    1.0080
  574        HC    1  MOL    H574   574   0.0600000    1.0080
  575        HC    1  MOL    H575   575   0.0600000    1.0080
  576        HC    1  MOL    H576   576   0.0600000    1.0080
  577         H    1  MOL    H577   577   0.3000000    1.0080
  578         C    1  MOL    C578   578   0.5000000   12.0115
  579         O    1  MOL    O579   579  -0.5000000   15.9994
  580        CT    1  MOL    C580   580  -0.1200000   12.0115
  581        CT    1  MOL    C581   581  -0.1200000   12.0115
  582        CT    1  MOL    C582   582  -0.1200000   12.0115
  583        CT    1  MOL    C583   583  -0.1200000   12.0115
  584         C    1  MOL    C584   584   0.5000000   12.0115
  585         O    1  MOL    O585   585  -0.5000000   15.9994
  586         N    1  MOL    N586   586  -0.5000000   14.0067
  587        CT    1  MOL    C587   587   0.0800000   12.0115
  588        CT    1  MOL    C588   588  -0.1200000   12.0115
  589        CT    1  MOL    C589   589  -0.1200000   12.0115
  590        CT    1  MOL    C590   590   0.0800000   12.0115
  591         N    1  MOL    N591   591  -0.5000000   14.0067
  592        HC    1  MOL    H592   592   0.0600000    1.0080
  593        HC    1  MOL    H593   593   0.0600000    1.0080
  594        HC    1  MOL    H594   594   0.0600000    1.0080
  595        HC    1  MOL    H595   595   0.0600000    1.0080
  596        HC    1  MOL    H596   596   0.0600000    1.0080
  597        HC    1  MOL    H597   597   0.0600000    1.0080
  598        HC    1  MOL    H598   598   0.0600000    1.0080
  599        HC    1  MOL    H599   599   0.0600000    1.0080
  600         H    1  MOL    H600   600   0.3000000    1.0080
  601        HC    1  MOL    H601   601   0.0600000    1.0080
  602        HC    1  MOL    H602   602   0.0600000    1.0080
  603        HC    1  MOL    H603   603   0.0600000    1.0080
  604        HC    1  MOL    H604   604   0.0600000    1.0080
  605        HC    1  MOL    H605   605   0.0600000    1.0080
  606        HC    1  MOL    H606   606   0.0600000    1.0080
  607        HC    1  MOL    H607   607   0.0600000    1.0080
  608        HC    1  MOL    H608   608   0.0600000    1.0080
  609         H    1  MOL    H609   609   0.3000000    1.0080
  610         C    1  MOL    C610   610   0.5000000   12.0115
  611         O    1  MOL    O611   611  -0.5000000   15.9994
  612        CT    1  MOL    C612   612  -0.1200000   12.0115
  613        CT    1  MOL    C613   613  -0.1200000   12.0115
  614        CT    1  MOL    C614   614  -0.1200000   12.0115
  615        CT    1  MOL    C615   615  -0.1200000   12.0115
  616         C    1  MOL    C616   616   0.5000000   12.0115
  617         O    1  MOL    O617   617  -0.5000000   15.9994
  618         N    1  MOL    N618   618  -0.5000000   14.0067
  619        CT    1  MOL    C619   619   0.0800000   12.0115
  620        CT    1  MOL    C620   620  -0.1200000   12.0115
  621        CT    1  MOL    C621   621  -0.1200000   12.0115
  622        CT    1  MOL    C622   622   0.0600000   12.0115
  623        NT    1  MOL    N623   623  -0.9000000   14.0067
  624        HC    1  MOL    H624   624   0.0600000    1.0080
  625        HC    1  MOL    H625   625   0.0600000    1.0080
  626        HC    1  MOL    H626   626   0.0600000    1.0080
  627        HC    1  MOL    H627   627   0.0600000    1.0080
  628        HC    1  MOL    H628   628   0.0600000    1.0080
  629        HC    1  MOL    H629   629   0.0600000    1.0080
  630        HC    1  MOL    H630   630   0.0600000    1.0080
  631        HC    1  MOL    H631   631   0.0600000    1.0080
  632         H    1  MOL    H632   632   0.3000000    1.0080
  633        HC    1  MOL    H633   633   0.0600000    1.0080
  634        HC    1  MOL    H634   634   0.0600000    1.0080
  635        HC    1  MOL    H635   635   0.0600000    1.0080
  636        HC    1  MOL    H636   636   0.0600000    1.0080
  637        HC    1  MOL    H637   637   0.0600000    1.0080
  638        HC    1  MOL    H638   638   0.0600000    1.0080
  639      HANI    1  MOL    H639   639   0.0600000    1.0080
  640      HANI    1  MOL    H640   640   0.0600000    1.0080
  641         H    1  MOL    H641   641   0.3600000    1.0080
  642         H    1  MOL    H642   642   0.3600000    1.0080

[ bonds ]
      1      2   1      0.1229 476976.0000
      1      3   1      0.1522 265265.6000
      1     33   1      0.1090 284512.0000
      3      4   1      0.1529 224262.4000
      3     15   1      0.1090 284512.0000
      3     16   1      0.1090 284512.0000
      4      5   1      0.1529 224262.4000
      4     17   1      0.1090 284512.0000
      4     18   1      0.1090 284512.0000
      5      6   1      0.1529 224262.4000
      5     19   1      0.1090 284512.0000
      5     20   1      0.1090 284512.0000
      6      7   1      0.1522 265265.6000
      6     21   1      0.1090 284512.0000
      6     22   1      0.1090 284512.0000
      7      8   1      0.1229 476976.0000
      7      9   1      0.1335 410032.0000
      9     10   1      0.1449 282001.6000
      9     23   1      0.1010 363171.2000
     10     11   1      0.1529 224262.4000
     10     24   1      0.1090 284512.0000
     10     25   1      0.1090 284512.0000
     11     12   1      0.1529 224262.4000
     11     26   1      0.1090 284512.0000
     11     27   1      0.1090 284512.0000
     12     13   1      0.1529 224262.4000
     12     28   1      0.1090 284512.0000
     12     29   1      0.1090 284512.0000
     13     14   1      0.1449 282001.6000
     13     30   1      0.1090 284512.0000
     13     31   1      0.1090 284512.0000
     14     32   1      0.1010 363171.2000
     14     34   1      0.1335 410032.0000
     34     35   1      0.1229 476976.0000
     34     36   1      0.1522 265265.6000
     36     37   1      0.1529 224262.4000
     36     48   1      0.1090 284512.0000
     36     49   1      0.1090 284512.0000
     37     38   1      0.1529 224262.4000
     37     50   1      0.1090 284512.0000
     37     51   1      0.1090 284512.0000
     38     39   1      0.1529 224262.4000
     38     52   1      0.1090 284512.0000
     38     53   1      0.1090 284512.0000
     39     40   1      0.1522 265265.6000
     39     54   1      0.1090 284512.0000
     39     55   1      0.1090 284512.0000
     40     41   1      0.1229 476976.0000
     40     42   1      0.1335 410032.0000
     42     43   1      0.1449 282001.6000
     42     56   1      0.1010 363171.2000
     43     44   1      0.1529 224262.4000
     43     57   1      0.1090 284512.0000
     43     58   1      0.1090 284512.0000
     44     45   1      0.1529 224262.4000
     44     59   1      0.1090 284512.0000
     44     60   1      0.1090 284512.0000
     45     46   1      0.1529 224262.4000
     45     61   1      0.1090 284512.0000
     45     62   1      0.1090 284512.0000
     46     47   1      0.1449 282001.6000
     46     63   1      0.1090 284512.0000
     46     64   1      0.1090 284512.0000
     47     65   1      0.1010 363171.2000
     47     66   1      0.1335 410032.0000
     66     67   1      0.1229 476976.0000
     66     68   1      0.1522 265265.6000
     68     69   1      0.1529 224262.4000
     68     80   1      0.1090 284512.0000
     68     81   1      0.1090 284512.0000
     69     70   1      0.1529 224262.4000
     69     82   1      0.1090 284512.0000
     69     83   1      0.1090 284512.0000
     70     71   1      0.1529 224262.4000
     70     84   1      0.1090 284512.0000
     70     85   1      0.1090 284512.0000
     71     72   1      0.1522 265265.6000
     71     86   1      0.1090 284512.0000
     71     87   1      0.1090 284512.0000
     72     73   1      0.1229 476976.0000
     72     74   1      0.1335 410032.0000
     74     75   1      0.1449 282001.6000
     74     88   1      0.1010 363171.2000
     75     76   1      0.1529 224262.4000
     75     89   1      0.1090 284512.0000
     75     90   1      0.1090 284512.0000
     76     77   1      0.1529 224262.4000
     76     91   1      0.1090 284512.0000
     76     92   1      0.1090 284512.0000
     77     78   1      0.1529 224262.4000
     77     93   1      0.1090 284512.0000
     77     94   1      0.1090 284512.0000
     78     79   1      0.1449 282001.6000
     78     95   1      0.1090 284512.0000
     78     96   1      0.1090 284512.0000
     79     97   1      0.1010 363171.2000
     79     98   1      0.1335 410032.0000
     98     99   1      0.1229 476976.0000
     98    100   1      0.1522 265265.6000
    100    101   1      0.1529 224262.4000
    100    112   1      0.1090 284512.0000
    100    113   1      0.1090 284512.0000
    101    102   1      0.1529 224262.4000
    101    114   1      0.1090 284512.0000
    101    115   1      0.1090 284512.0000
    102    103   1      0.1529 224262.4000
    102    116   1      0.1090 284512.0000
    102    117   1      0.1090 284512.0000
    103    104   1      0.1522 265265.6000
    103    118   1      0.1090 284512.0000
    103    119   1      0.1090 284512.0000
    104    105   1      0.1229 476976.0000
    104    106   1      0.1335 410032.0000
    106    107   1      0.1449 282001.6000
    106    120   1      0.1010 363171.2000
    107    108   1      0.1529 224262.4000
    107    121   1      0.1090 284512.0000
    107    122   1      0.1090 284512.0000
    108    109   1      0.1529 224262.4000
    108    123   1      0.1090 284512.0000
    108    124   1      0.1090 284512.0000
    109    110   1      0.1529 224262.4000
    109    125   1      0.1090 284512.0000
    109    126   1      0.1090 284512.0000
    110    111   1      0.1449 282001.6000
    110    127   1      0.1090 284512.0000
    110    128   1      0.1090 284512.0000
    111    129   1      0.1010 363171.2000
    111    130   1      0.1335 410032.0000
    130    131   1      0.1229 476976.0000
    130    132   1      0.1522 265265.6000
    132    133   1      0.1529 224262.4000
    132    144   1      0.1090 284512.0000
    132    145   1      0.1090 284512.0000
    133    134   1      0.1529 224262.4000
    133    146   1      0.1090 284512.0000
    133    147   1      0.1090 284512.0000
    134    135   1      0.1529 224262.4000
    134    148   1      0.1090 284512.0000
    134    149   1      0.1090 284512.0000
    135    136   1      0.1522 265265.6000
    135    150   1      0.1090 284512.0000
    135    151   1      0.1090 284512.0000
    136    137   1      0.1229 476976.0000
    136    138   1      0.1335 410032.0000
    138    139   1      0.1449 282001.6000
    138    152   1      0.1010 363171.2000
    139    140   1      0.1529 224262.4000
    139    153   1      0.1090 284512.0000
    139    154   1      0.1090 284512.0000
    140    141   1      0.1529 224262.4000
    140    155   1      0.1090 284512.0000
    140    156   1      0.1090 284512.0000
    141    142   1      0.1529 224262.4000
    141    157   1      0.1090 284512.0000
    141    158   1      0.1090 284512.0000
    142    143   1      0.1449 282001.6000
    142    159   1      0.1090 284512.0000
    142    160   1      0.1090 284512.0000
    143    161   1      0.1010 363171.2000
    143    162   1      0.1335 410032.0000
    162    163   1      0.1229 476976.0000
    162    164   1      0.1522 265265.6000
    164    165   1      0.1529 224262.4000
    164    176   1      0.1090 284512.0000
    164    177   1      0.1090 284512.0000
    165    166   1      0.1529 224262.4000
    165    178   1      0.1090 284512.0000
    165    179   1      0.1090 284512.0000
    166    167   1      0.1529 224262.4000
    166    180   1      0.1090 284512.0000
    166    181   1      0.1090 284512.0000
    167    168   1      0.1522 265265.6000
    167    182   1      0.1090 284512.0000
    167    183   1      0.1090 284512.0000
    168    169   1      0.1229 476976.0000
    168    170   1      0.1335 410032.0000
    170    171   1      0.1449 282001.6000
    170    184   1      0.1010 363171.2000
    171    172   1      0.1529 224262.4000
    171    185   1      0.1090 284512.0000
    171    186   1      0.1090 284512.0000
    172    173   1      0.1529 224262.4000
    172    187   1      0.1090 284512.0000
    172    188   1      0.1090 284512.0000
    173    174   1      0.1529 224262.4000
    173    189   1      0.1090 284512.0000
    173    190   1      0.1090 284512.0000
    174    175   1      0.1449 282001.6000
    174    191   1      0.1090 284512.0000
    174    192   1      0.1090 284512.0000
    175    193   1      0.1010 363171.2000
    175    194   1      0.1335 410032.0000
    194    195   1      0.1229 476976.0000
    194    196   1      0.1522 265265.6000
    196    197   1      0.1529 224262.4000
    196    208   1      0.1090 284512.0000
    196    209   1      0.1090 284512.0000
    197    198   1      0.1529 224262.4000
    197    210   1      0.1090 284512.0000
    197    211   1      0.1090 284512.0000
    198    199   1      0.1529 224262.4000
    198    212   1      0.1090 284512.0000
    198    213   1      0.1090 284512.0000
    199    200   1      0.1522 265265.6000
    199    214   1      0.1090 284512.0000
    199    215   1      0.1090 284512.0000
    200    201   1      0.1229 476976.0000
    200    202   1      0.1335 410032.0000
    202    203   1      0.1449 282001.6000
    202    216   1      0.1010 363171.2000
    203    204   1      0.1529 224262.4000
    203    217   1      0.1090 284512.0000
    203    218   1      0.1090 284512.0000
    204    205   1      0.1529 224262.4000
    204    219   1      0.1090 284512.0000
    204    220   1      0.1090 284512.0000
    205    206   1      0.1529 224262.4000
    205    221   1      0.1090 284512.0000
    205    222   1      0.1090 284512.0000
    206    207   1      0.1449 282001.6000
    206    223   1      0.1090 284512.0000
    206    224   1      0.1090 284512.0000
    207    225   1      0.1010 363171.2000
    207    226   1      0.1335 410032.0000
    226    227   1      0.1229 476976.0000
    226    228   1      0.1522 265265.6000
    228    229   1      0.1529 224262.4000
    228    240   1      0.1090 284512.0000
    228    241   1      0.1090 284512.0000
    229    230   1      0.1529 224262.4000
    229    242   1      0.1090 284512.0000
    229    243   1      0.1090 284512.0000
    230    231   1      0.1529 224262.4000
    230    244   1      0.1090 284512.0000
    230    245   1      0.1090 284512.0000
    231    232   1      0.1522 265265.6000
    231    246   1      0.1090 284512.0000
    231    247   1      0.1090 284512.0000
    232    233   1      0.1229 476976.0000
    232    234   1      0.1335 410032.0000
    234    235   1      0.1449 282001.6000
    234    248   1      0.1010 363171.2000
    235    236   1      0.1529 224262.4000
    235    249   1      0.1090 284512.0000
    235    250   1      0.1090 284512.0000
    236    237   1      0.1529 224262.4000
    236    251   1      0.1090 284512.0000
    236    252   1      0.1090 284512.0000
    237    238   1      0.1529 224262.4000
    237    253   1      0.1090 284512.0000
    237    254   1      0.1090 284512.0000
    238    239   1      0.1449 282001.6000
    238    255   1      0.1090 284512.0000
    238    256   1      0.1090 284512.0000
    239    257   1      0.1010 363171.2000
    239    258   1      0.1335 410032.0000
    258    259   1      0.1229 476976.0000
    258    260   1      0.1522 265265.6000
    260    261   1      0.1529 224262.4000
    260    272   1      0.1090 284512.0000
    260    273   1      0.1090 284512.0000
    261    262   1      0.1529 224262.4000
    261    274   1      0.1090 284512.0000
    261    275   1      0.1090 284512.0000
    262    263   1      0.1529 224262.4000
    262    276   1      0.1090 284512.0000
    262    277   1      0.1090 284512.0000
    263    264   1      0.1522 265265.6000
    263    278   1      0.1090 284512.0000
    263    279   1      0.1090 284512.0000
    264    265   1      0.1229 476976.0000
    264    266   1      0.1335 410032.0000
    266    267   1      0.1449 282001.6000
    266    280   1      0.1010 363171.2000
    267    268   1      0.1529 224262.4000
    267    281   1      0.1090 284512.0000
    267    282   1      0.1090 284512.0000
    268    269   1      0.1529 224262.4000
    268    283   1      0.1090 284512.0000
    268    284   1      0.1090 284512.0000
    269    270   1      0.1529 224262.4000
    269    285   1      0.1090 284512.0000
    269    286   1      0.1090 284512.0000
    270    271   1      0.1449 282001.6000
    270    287   1      0.1090 284512.0000
    270    288   1      0.1090 284512.0000
    271    289   1      0.1010 363171.2000
    271    290   1      0.1335 410032.0000
    290    291   1      0.1229 476976.0000
    290    292   1      0.1522 265265.6000
    292    293   1      0.1529 224262.4000
    292    304   1      0.1090 284512.0000
    292    305   1      0.1090 284512.0000
    293    294   1      0.1529 224262.4000
    293    306   1      0.1090 284512.0000
    293    307   1      0.1090 284512.0000
    294    295   1      0.1529 224262.4000
    294    308   1      0.1090 284512.0000
    294    309   1      0.1090 284512.0000
    295    296   1      0.1522 265265.6000
    295    310   1      0.1090 284512.0000
    295    311   1      0.1090 284512.0000
    296    297   1      0.1229 476976.0000
    296    298   1      0.1335 410032.0000
    298    299   1      0.1449 282001.6000
    298    312   1      0.1010 363171.2000
    299    300   1      0.1529 224262.4000
    299    313   1      0.1090 284512.0000
    299    314   1      0.1090 284512.0000
    300    301   1      0.1529 224262.4000
    300    315   1      0.1090 284512.0000
    300    316   1      0.1090 284512.0000
    301    302   1      0.1529 224262.4000
    301    317   1      0.1090 284512.0000
    301    318   1      0.1090 284512.0000
    302    303   1      0.1449 282001.6000
    302    319   1      0.1090 284512.0000
    302    320   1      0.1090 284512.0000
    303    321   1      0.1010 363171.2000
    303    322   1      0.1335 410032.0000
    322    323   1      0.1229 476976.0000
    322    324   1      0.1522 265265.6000
    324    325   1      0.1529 224262.4000
    324    336   1      0.1090 284512.0000
    324    337   1      0.1090 284512.0000
    325    326   1      0.1529 224262.4000
    325    338   1      0.1090 284512.0000
    325    339   1      0.1090 284512.0000
    326    327   1      0.1529 224262.4000
    326    340   1      0.1090 284512.0000
    326    341   1      0.1090 284512.0000
    327    328   1      0.1522 265265.6000
    327    342   1      0.1090 284512.0000
    327    343   1      0.1090 284512.0000
    328    329   1      0.1229 476976.0000
    328    330   1      0.1335 410032.0000
    330    331   1      0.1449 282001.6000
    330    344   1      0.1010 363171.2000
    331    332   1      0.1529 224262.4000
    331    345   1      0.1090 284512.0000
    331    346   1      0.1090 284512.0000
    332    333   1      0.1529 224262.4000
    332    347   1      0.1090 284512.0000
    332    348   1      0.1090 284512.0000
    333    334   1      0.1529 224262.4000
    333    349   1      0.1090 284512.0000
    333    350   1      0.1090 284512.0000
    334    335   1      0.1449 282001.6000
    334    351   1      0.1090 284512.0000
    334    352   1      0.1090 284512.0000
    335    353   1      0.1010 363171.2000
    335    354   1      0.1335 410032.0000
    354    355   1      0.1229 476976.0000
    354    356   1      0.1522 265265.6000
    356    357   1      0.1529 224262.4000
    356    368   1      0.1090 284512.0000
    356    369   1      0.1090 284512.0000
    357    358   1      0.1529 224262.4000
    357    370   1      0.1090 284512.0000
    357    371   1      0.1090 284512.0000
    358    359   1      0.1529 224262.4000
    358    372   1      0.1090 284512.0000
    358    373   1      0.1090 284512.0000
    359    360   1      0.1522 265265.6000
    359    374   1      0.1090 284512.0000
    359    375   1      0.1090 284512.0000
    360    361   1      0.1229 476976.0000
    360    362   1      0.1335 410032.0000
    362    363   1      0.1449 282001.6000
    362    376   1      0.1010 363171.2000
    363    364   1      0.1529 224262.4000
    363    377   1      0.1090 284512.0000
    363    378   1      0.1090 284512.0000
    364    365   1      0.1529 224262.4000
    364    379   1      0.1090 284512.0000
    364    380   1      0.1090 284512.0000
    365    366   1      0.1529 224262.4000
    365    381   1      0.1090 284512.0000
    365    382   1      0.1090 284512.0000
    366    367   1      0.1449 282001.6000
    366    383   1      0.1090 284512.0000
    366    384   1      0.1090 284512.0000
    367    385   1      0.1010 363171.2000
    367    386   1      0.1335 410032.0000
    386    387   1      0.1229 476976.0000
    386    388   1      0.1522 265265.6000
    388    389   1      0.1529 224262.4000
    388    400   1      0.1090 284512.0000
    388    401   1      0.1090 284512.0000
    389    390   1      0.1529 224262.4000
    389    402   1      0.1090 284512.0000
    389    403   1      0.1090 284512.0000
    390    391   1      0.1529 224262.4000
    390    404   1      0.1090 284512.0000
    390    405   1      0.1090 284512.0000
    391    392   1      0.1522 265265.6000
    391    406   1      0.1090 284512.0000
    391    407   1      0.1090 284512.0000
    392    393   1      0.1229 476976.0000
    392    394   1      0.1335 410032.0000
    394    395   1      0.1449 282001.6000
    394    408   1      0.1010 363171.2000
    395    396   1      0.1529 224262.4000
    395    409   1      0.1090 284512.0000
    395    410   1      0.1090 284512.0000
    396    397   1      0.1529 224262.4000
    396    411   1      0.1090 284512.0000
    396    412   1      0.1090 284512.0000
    397    398   1      0.1529 224262.4000
    397    413   1      0.1090 284512.0000
    397    414   1      0.1090 284512.0000
    398    399   1      0.1449 282001.6000
    398    415   1      0.1090 284512.0000
    398    416   1      0.1090 284512.0000
    399    417   1      0.1010 363171.2000
    399    418   1      0.1335 410032.0000
    418    419   1      0.1229 476976.0000
    418    420   1      0.1522 265265.6000
    420    421   1      0.1529 224262.4000
    420    432   1      0.1090 284512.0000
    420    433   1      0.1090 284512.0000
    421    422   1      0.1529 224262.4000
    421    434   1      0.1090 284512.0000
    421    435   1      0.1090 284512.0000
    422    423   1      0.1529 224262.4000
    422    436   1      0.1090 284512.0000
    422    437   1      0.1090 284512.0000
    423    424   1      0.1522 265265.6000
    423    438   1      0.1090 284512.0000
    423    439   1      0.1090 284512.0000
    424    425   1      0.1229 476976.0000
    424    426   1      0.1335 410032.0000
    426    427   1      0.1449 282001.6000
    426    440   1      0.1010 363171.2000
    427    428   1      0.1529 224262.4000
    427    441   1      0.1090 284512.0000
    427    442   1      0.1090 284512.0000
    428    429   1      0.1529 224262.4000
    428    443   1      0.1090 284512.0000
    428    444   1      0.1090 284512.0000
    429    430   1      0.1529 224262.4000
    429    445   1      0.1090 284512.0000
    429    446   1      0.1090 284512.0000
    430    431   1      0.1449 282001.6000
    430    447   1      0.1090 284512.0000
    430    448   1      0.1090 284512.0000
    431    449   1      0.1010 363171.2000
    431    450   1      0.1335 410032.0000
    450    451   1      0.1229 476976.0000
    450    452   1      0.1522 265265.6000
    452    453   1      0.1529 224262.4000
    452    464   1      0.1090 284512.0000
    452    465   1      0.1090 284512.0000
    453    454   1      0.1529 224262.4000
    453    466   1      0.1090 284512.0000
    453    467   1      0.1090 284512.0000
    454    455   1      0.1529 224262.4000
    454    468   1      0.1090 284512.0000
    454    469   1      0.1090 284512.0000
    455    456   1      0.1522 265265.6000
    455    470   1      0.1090 284512.0000
    455    471   1      0.1090 284512.0000
    456    457   1      0.1229 476976.0000
    456    458   1      0.1335 410032.0000
    458    459   1      0.1449 282001.6000
    458    472   1      0.1010 363171.2000
    459    460   1      0.1529 224262.4000
    459    473   1      0.1090 284512.0000
    459    474   1      0.1090 284512.0000
    460    461   1      0.1529 224262.4000
    460    475   1      0.1090 284512.0000
    460    476   1      0.1090 284512.0000
    461    462   1      0.1529 224262.4000
    461    477   1      0.1090 284512.0000
    461    478   1      0.1090 284512.0000
    462    463   1      0.1449 282001.6000
    462    479   1      0.1090 284512.0000
    462    480   1      0.1090 284512.0000
    463    481   1      0.1010 363171.2000
    463    482   1      0.1335 410032.0000
    482    483   1      0.1229 476976.0000
    482    484   1      0.1522 265265.6000
    484    485   1      0.1529 224262.4000
    484    496   1      0.1090 284512.0000
    484    497   1      0.1090 284512.0000
    485    486   1      0.1529 224262.4000
    485    498   1      0.1090 284512.0000
    485    499   1      0.1090 284512.0000
    486    487   1      0.1529 224262.4000
    486    500   1      0.1090 284512.0000
    486    501   1      0.1090 284512.0000
    487    488   1      0.1522 265265.6000
    487    502   1      0.1090 284512.0000
    487    503   1      0.1090 284512.0000
    488    489   1      0.1229 476976.0000
    488    490   1      0.1335 410032.0000
    490    491   1      0.1449 282001.6000
    490    504   1      0.1010 363171.2000
    491    492   1      0.1529 224262.4000
    491    505   1      0.1090 284512.0000
    491    506   1      0.1090 284512.0000
    492    493   1      0.1529 224262.4000
    492    507   1      0.1090 284512.0000
    492    508   1      0.1090 284512.0000
    493    494   1      0.1529 224262.4000
    493    509   1      0.1090 284512.0000
    493    510   1      0.1090 284512.0000
    494    495   1      0.1449 282001.6000
    494    511   1      0.1090 284512.0000
    494    512   1      0.1090 284512.0000
    495    513   1      0.1010 363171.2000
    495    514   1      0.1335 410032.0000
    514    515   1      0.1229 476976.0000
    514    516   1      0.1522 265265.6000
    516    517   1      0.1529 224262.4000
    516    528   1      0.1090 284512.0000
    516    529   1      0.1090 284512.0000
    517    518   1      0.1529 224262.4000
    517    530   1      0.1090 284512.0000
    517    531   1      0.1090 284512.0000
    518    519   1      0.1529 224262.4000
    518    532   1      0.1090 284512.0000
    518    533   1      0.1090 284512.0000
    519    520   1      0.1522 265265.6000
    519    534   1      0.1090 284512.0000
    519    535   1      0.1090 284512.0000
    520    521   1      0.1229 476976.0000
    520    522   1      0.1335 410032.0000
    522    523   1      0.1449 282001.6000
    522    536   1      0.1010 363171.2000
    523    524   1      0.1529 224262.4000
    523    537   1      0.1090 284512.0000
    523    538   1      0.1090 284512.0000
    524    525   1      0.1529 224262.4000
    524    539   1      0.1090 284512.0000
    524    540   1      0.1090 284512.0000
    525    526   1      0.1529 224262.4000
    525    541   1      0.1090 284512.0000
    525    542   1      0.1090 284512.0000
    526    527   1      0.1449 282001.6000
    526    543   1      0.1090 284512.0000
    526    544   1      0.1090 284512.0000
    527    545   1      0.1010 363171.2000
    527    546   1      0.1335 410032.0000
    546    547   1      0.1229 476976.0000
    546    548   1      0.1522 265265.6000
    548    549   1      0.1529 224262.4000
    548    560   1      0.1090 284512.0000
    548    561   1      0.1090 284512.0000
    549    550   1      0.1529 224262.4000
    549    562   1      0.1090 284512.0000
    549    563   1      0.1090 284512.0000
    550    551   1      0.1529 224262.4000
    550    564   1      0.1090 284512.0000
    550    565   1      0.1090 284512.0000
    551    552   1      0.1522 265265.6000
    551    566   1      0.1090 284512.0000
    551    567   1      0.1090 284512.0000
    552    553   1      0.1229 476976.0000
    552    554   1      0.1335 410032.0000
    554    555   1      0.1449 282001.6000
    554    568   1      0.1010 363171.2000
    555    556   1      0.1529 224262.4000
    555    569   1      0.1090 284512.0000
    555    570   1      0.1090 284512.0000
    556    557   1      0.1529 224262.4000
    556    571   1      0.1090 284512.0000
    556    572   1      0.1090 284512.0000
    557    558   1      0.1529 224262.4000
    557    573   1      0.1090 284512.0000
    557    574   1      0.1090 284512.0000
    558    559   1      0.1449 282001.6000
    558    575   1      0.1090 284512.0000
    558    576   1      0.1090 284512.0000
    559    577   1      0.1010 363171.2000
    559    578   1      0.1335 410032.0000
    578    579   1      0.1229 476976.0000
    578    580   1      0.1522 265265.6000
    580    581   1      0.1529 224262.4000
    580    592   1      0.1090 284512.0000
    580    593   1      0.1090 284512.0000
    581    582   1      0.1529 224262.4000
    581    594   1      0.1090 284512.0000
    581    595   1      0.1090 284512.0000
    582    583   1      0.1529 224262.4000
    582    596   1      0.1090 284512.0000
    582    597   1      0.1090 284512.0000
    583    584   1      0.1522 265265.6000
    583    598   1      0.1090 284512.0000
    583    599   1      0.1090 284512.0000
    584    585   1      0.1229 476976.0000
    584    586   1      0.1335 410032.0000
    586    587   1      0.1449 282001.6000
    586    600   1      0.1010 363171.2000
    587    588   1      0.1529 224262.4000
    587    601   1      0.1090 284512.0000
    587    602   1      0.1090 284512.0000
    588    589   1      0.1529 224262.4000
    588    603   1      0.1090 284512.0000
    588    604   1      0.1090 284512.0000
    589    590   1      0.1529 224262.4000
    589    605   1      0.1090 284512.0000
    589    606   1      0.1090 284512.0000
    590    591   1      0.1449 282001.6000
    590    607   1      0.1090 284512.0000
    590    608   1      0.1090 284512.0000
    591    609   1      0.1010 363171.2000
    591    610   1      0.1335 410032.0000
    610    611   1      0.1229 476976.0000
    610    612   1      0.1522 265265.6000
    612    613   1      0.1529 224262.4000
    612    624   1      0.1090 284512.0000
    612    625   1      0.1090 284512.0000
    613    614   1      0.1529 224262.4000
    613    626   1      0.1090 284512.0000
    613    627   1      0.1090 284512.0000
    614    615   1      0.1529 224262.4000
    614    628   1      0.1090 284512.0000
    614    629   1      0.1090 284512.0000
    615    616   1      0.1522 265265.6000
    615    630   1      0.1090 284512.0000
    615    631   1      0.1090 284512.0000
    616    617   1      0.1229 476976.0000
    616    618   1      0.1335 410032.0000
    618    619   1      0.1449 282001.6000
    618    632   1      0.1010 363171.2000
    619    620   1      0.1529 224262.4000
    619    633   1      0.1090 284512.0000
    619    634   1      0.1090 284512.0000
    620    621   1      0.1529 224262.4000
    620    635   1      0.1090 284512.0000
    620    636   1      0.1090 284512.0000
    621    622   1      0.1529 224262.4000
    621    637   1      0.1090 284512.0000
    621    638   1      0.1090 284512.0000
    622    623   1      0.1448 319657.6000
    622    639   1      0.1090 284512.0000
    622    640   1      0.1090 284512.0000
    623    641   1      0.1010 363171.2000
    623    642   1      0.1010 363171.2000

[ pairs ]
; ai   aj   funct   fudge_QQ  charge_i   charge_j   c6    c12
      2      4   2   0.50000    -0.4500000   -0.1200000   1.095425e-03  1.218041e-06
      2     15   2   0.50000    -0.4500000    0.0600000   1.726228e-04  6.344822e-08
      2     16   2   0.50000    -0.4500000    0.0600000   1.726228e-04  6.344822e-08
     33      4   2   0.50000     0.0000000   -0.1200000   1.599888e-04  9.721644e-08
     33     15   2   0.50000     0.0000000    0.0600000   2.521187e-05  5.064042e-09
     33     16   2   0.50000     0.0000000    0.0600000   2.521187e-05  5.064042e-09
      1      5   2   0.50000     0.4500000   -0.1200000   1.575021e-03  3.561100e-06
      1     17   2   0.50000     0.4500000    0.0600000   3.869820e-04  3.188634e-07
      1     18   2   0.50000     0.4500000    0.0600000   3.869820e-04  3.188634e-07
     15      5   2   0.50000     0.0600000   -0.1200000   1.599888e-04  9.721644e-08
     15     17   2   0.50000     0.0600000    0.0600000   3.930919e-05  8.704828e-09
     15     18   2   0.50000     0.0600000    0.0600000   3.930919e-05  8.704828e-09
     16      5   2   0.50000     0.0600000   -0.1200000   1.599888e-04  9.721644e-08
     16     17   2   0.50000     0.0600000    0.0600000   3.930919e-05  8.704828e-09
     16     18   2   0.50000     0.0600000    0.0600000   3.930919e-05  8.704828e-09
      3      6   2   0.50000    -0.1200000   -0.1200000   1.015252e-03  1.866303e-06
      3     19   2   0.50000    -0.1200000    0.0600000   2.494471e-04  1.671101e-07
      3     20   2   0.50000    -0.1200000    0.0600000   2.494471e-04  1.671101e-07
     17      6   2   0.50000     0.0600000   -0.1200000   2.494471e-04  1.671101e-07
     17     19   2   0.50000     0.0600000    0.0600000   6.128906e-05  1.496315e-08
     17     20   2   0.50000     0.0600000    0.0600000   6.128906e-05  1.496315e-08
     18      6   2   0.50000     0.0600000   -0.1200000   2.494471e-04  1.671101e-07
     18     19   2   0.50000     0.0600000    0.0600000   6.128906e-05  1.496315e-08
     18     20   2   0.50000     0.0600000    0.0600000   6.128906e-05  1.496315e-08
      4      7   2   0.50000    -0.1200000    0.5000000   1.575021e-03  3.561100e-06
      4     21   2   0.50000    -0.1200000    0.0600000   2.494471e-04  1.671101e-07
      4     22   2   0.50000    -0.1200000    0.0600000   2.494471e-04  1.671101e-07
     19      7   2   0.50000     0.0600000    0.5000000   3.869820e-04  3.188634e-07
     19     21   2   0.50000     0.0600000    0.0600000   6.128906e-05  1.496315e-08
     19     22   2   0.50000     0.0600000    0.0600000   6.128906e-05  1.496315e-08
     20      7   2   0.50000     0.0600000    0.5000000   3.869820e-04  3.188634e-07
     20     21   2   0.50000     0.0600000    0.0600000   6.128906e-05  1.496315e-08
     20     22   2   0.50000     0.0600000    0.0600000   6.128906e-05  1.496315e-08
      5      8   2   0.50000    -0.1200000   -0.5000000   1.095425e-03  1.218041e-06
      5      9   2   0.50000    -0.1200000   -0.5000000   1.304585e-03  1.920112e-06
     21      8   2   0.50000     0.0600000   -0.5000000   2.691455e-04  1.090642e-07
     21      9   2   0.50000     0.0600000   -0.5000000   3.205360e-04  1.719281e-07
     22      8   2   0.50000     0.0600000   -0.5000000   2.691455e-04  1.090642e-07
     22      9   2   0.50000     0.0600000   -0.5000000   3.205360e-04  1.719281e-07
      6     10   2   0.50000    -0.1200000    0.0800000   1.015252e-03  1.866303e-06
      6     23   2   0.50000    -0.1200000    0.3000000   1.995577e-06  1.069504e-11
      8     10   2   0.50000    -0.5000000    0.0800000   1.095425e-03  1.218041e-06
      8     23   2   0.50000    -0.5000000    0.3000000   2.153164e-06  6.980110e-12
      7     11   2   0.50000     0.5000000   -0.1200000   1.575021e-03  3.561100e-06
      7     24   2   0.50000     0.5000000    0.0600000   3.869820e-04  3.188634e-07
      7     25   2   0.50000     0.5000000    0.0600000   3.869820e-04  3.188634e-07
     23     11   2   0.50000     0.3000000   -0.1200000   1.995577e-06  1.069504e-11
     23     24   2   0.50000     0.3000000    0.0600000   4.903125e-07  9.576416e-13
     23     25   2   0.50000     0.3000000    0.0600000   4.903125e-07  9.576416e-13
      9     12   2   0.50000    -0.5000000   -0.1200000   1.304585e-03  1.920112e-06
      9     26   2   0.50000    -0.5000000    0.0600000   3.205360e-04  1.719281e-07
      9     27   2   0.50000    -0.5000000    0.0600000   3.205360e-04  1.719281e-07
     24     12   2   0.50000     0.0600000   -0.1200000   2.494471e-04  1.671101e-07
     24     26   2   0.50000     0.0600000    0.0600000   6.128906e-05  1.496315e-08
     24     27   2   0.50000     0.0600000    0.0600000   6.128906e-05  1.496315e-08
     25     12   2   0.50000     0.0600000   -0.1200000   2.494471e-04  1.671101e-07
     25     26   2   0.50000     0.0600000    0.0600000   6.128906e-05  1.496315e-08
     25     27   2   0.50000     0.0600000    0.0600000   6.128906e-05  1.496315e-08
     10     13   2   0.50000     0.0800000    0.0800000   1.015252e-03  1.866303e-06
     10     28   2   0.50000     0.0800000    0.0600000   2.494471e-04  1.671101e-07
     10     29   2   0.50000     0.0800000    0.0600000   2.494471e-04  1.671101e-07
     26     13   2   0.50000     0.0600000    0.0800000   2.494471e-04  1.671101e-07
     26     28   2   0.50000     0.0600000    0.0600000   6.128906e-05  1.496315e-08
     26     29   2   0.50000     0.0600000    0.0600000   6.128906e-05  1.496315e-08
     27     13   2   0.50000     0.0600000    0.0800000   2.494471e-04  1.671101e-07
     27     28   2   0.50000     0.0600000    0.0600000   6.128906e-05  1.496315e-08
     27     29   2   0.50000     0.0600000    0.0600000   6.128906e-05  1.496315e-08
     11     14   2   0.50000    -0.1200000   -0.5000000   1.304585e-03  1.920112e-06
     11     30   2   0.50000    -0.1200000    0.0600000   2.494471e-04  1.671101e-07
     11     31   2   0.50000    -0.1200000    0.0600000   2.494471e-04  1.671101e-07
     28     14   2   0.50000     0.0600000   -0.5000000   3.205360e-04  1.719281e-07
     28     30   2   0.50000     0.0600000    0.0600000   6.128906e-05  1.496315e-08
     28     31   2   0.50000     0.0600000    0.0600000   6.128906e-05  1.496315e-08
     29     14   2   0.50000     0.0600000   -0.5000000   3.205360e-04  1.719281e-07
     29     30   2   0.50000     0.0600000    0.0600000   6.128906e-05  1.496315e-08
     29     31   2   0.50000     0.0600000    0.0600000   6.128906e-05  1.496315e-08
     12     32   2   0.50000    -0.1200000    0.3000000   1.995577e-06  1.069504e-11
     12     34   2   0.50000    -0.1200000    0.5000000   1.575021e-03  3.561100e-06
     30     32   2   0.50000     0.0600000    0.3000000   4.903125e-07  9.576416e-13
     30     34   2   0.50000     0.0600000    0.5000000   3.869820e-04  3.188634e-07
     31     32   2   0.50000     0.0600000    0.3000000   4.903125e-07  9.576416e-13
     31     34   2   0.50000     0.0600000    0.5000000   3.869820e-04  3.188634e-07
     13     35   2   0.50000     0.0800000   -0.5000000   1.095425e-03  1.218041e-06
     13     36   2   0.50000     0.0800000   -0.1200000   1.015252e-03  1.866303e-06
     32     35   2   0.50000     0.3000000   -0.5000000   2.153164e-06  6.980110e-12
     32     36   2   0.50000     0.3000000   -0.1200000   1.995577e-06  1.069504e-11
     14     37   2   0.50000    -0.5000000   -0.1200000   1.304585e-03  1.920112e-06
     14     48   2   0.50000    -0.5000000    0.0600000   3.205360e-04  1.719281e-07
     14     49   2   0.50000    -0.5000000    0.0600000   3.205360e-04  1.719281e-07
     35     37   2   0.50000    -0.5000000   -0.1200000   1.095425e-03  1.218041e-06
     35     48   2   0.50000    -0.5000000    0.0600000   2.691455e-04  1.090642e-07
     35     49   2   0.50000    -0.5000000    0.0600000   2.691455e-04  1.090642e-07
     34     38   2   0.50000     0.5000000   -0.1200000   1.575021e-03  3.561100e-06
     34     50   2   0.50000     0.5000000    0.0600000   3.869820e-04  3.188634e-07
     34     51   2   0.50000     0.5000000    0.0600000   3.869820e-04  3.188634e-07
     48     38   2   0.50000     0.0600000   -0.1200000   2.494471e-04  1.671101e-07
     48     50   2   0.50000     0.0600000    0.0600000   6.128906e-05  1.496315e-08
     48     51   2   0.50000     0.0600000    0.0600000   6.128906e-05  1.496315e-08
     49     38   2   0.50000     0.0600000   -0.1200000   2.494471e-04  1.671101e-07
     49     50   2   0.50000     0.0600000    0.0600000   6.128906e-05  1.496315e-08
     49     51   2   0.50000     0.0600000    0.0600000   6.128906e-05  1.496315e-08
     36     39   2   0.50000    -0.1200000   -0.1200000   1.015252e-03  1.866303e-06
     36     52   2   0.50000    -0.1200000    0.0600000   2.494471e-04  1.671101e-07
     36     53   2   0.50000    -0.1200000    0.0600000   2.494471e-04  1.671101e-07
     50     39   2   0.50000     0.0600000   -0.1200000   2.494471e-04  1.671101e-07
     50     52   2   0.50000     0.0600000    0.0600000   6.128906e-05  1.496315e-08
     50     53   2   0.50000     0.0600000    0.0600000   6.128906e-05  1.496315e-08
     51     39   2   0.50000     0.0600000   -0.1200000   2.494471e-04  1.671101e-07
     51     52   2   0.50000     0.0600000    0.0600000   6.128906e-05  1.496315e-08
     51     53   2   0.50000     0.0600000    0.0600000   6.128906e-05  1.496315e-08
     37     40   2   0.50000    -0.1200000    0.5000000   1.575021e-03  3.561100e-06
     37     54   2   0.50000    -0.1200000    0.0600000   2.494471e-04  1.671101e-07
     37     55   2   0.50000    -0.1200000    0.0600000   2.494471e-04  1.671101e-07
     52     40   2   0.50000     0.0600000    0.5000000   3.869820e-04  3.188634e-07
     52     54   2   0.50000     0.0600000    0.0600000   6.128906e-05  1.496315e-08
     52     55   2   0.50000     0.0600000    0.0600000   6.128906e-05  1.496315e-08
     53     40   2   0.50000     0.0600000    0.5000000   3.869820e-04  3.188634e-07
     53     54   2   0.50000     0.0600000    0.0600000   6.128906e-05  1.496315e-08
     53     55   2   0.50000     0.0600000    0.0600000   6.128906e-05  1.496315e-08
     38     41   2   0.50000    -0.1200000   -0.5000000   1.095425e-03  1.218041e-06
     38     42   2   0.50000    -0.1200000   -0.5000000   1.304585e-03  1.920112e-06
     54     41   2   0.50000     0.0600000   -0.5000000   2.691455e-04  1.090642e-07
     54     42   2   0.50000     0.0600000   -0.5000000   3.205360e-04  1.719281e-07
     55     41   2   0.50000     0.0600000   -0.5000000   2.691455e-04  1.090642e-07
     55     42   2   0.50000     0.0600000   -0.5000000   3.205360e-04  1.719281e-07
     39     43   2   0.50000    -0.1200000    0.0800000   1.015252e-03  1.866303e-06
     39     56   2   0.50000    -0.1200000    0.3000000   1.995577e-06  1.069504e-11
     41     43   2   0.50000    -0.5000000    0.0800000   1.095425e-03  1.218041e-06
     41     56   2   0.50000    -0.5000000    0.3000000   2.153164e-06  6.980110e-12
     40     44   2   0.50000     0.5000000   -0.1200000   1.575021e-03  3.561100e-06
     40     57   2   0.50000     0.5000000    0.0600000   3.869820e-04  3.188634e-07
     40     58   2   0.50000     0.5000000    0.0600000   3.869820e-04  3.188634e-07
     56     44   2   0.50000     0.3000000   -0.1200000   1.995577e-06  1.069504e-11
     56     57   2   0.50000     0.3000000    0.0600000   4.903125e-07  9.576416e-13
     56     58   2   0.50000     0.3000000    0.0600000   4.903125e-07  9.576416e-13
     42     45   2   0.50000    -0.5000000   -0.1200000   1.304585e-03  1.920112e-06
     42     59   2   0.50000    -0.5000000    0.0600000   3.205360e-04  1.719281e-07
     42     60   2   0.50000    -0.5000000    0.0600000   3.205360e-04  1.719281e-07
     57     45   2   0.50000     0.0600000   -0.1200000   2.494471e-04  1.671101e-07
     57     59   2   0.50000     0.0600000    0.0600000   6.128906e-05  1.496315e-08
     57     60   2   0.50000     0.0600000    0.0600000   6.128906e-05  1.496315e-08
     58     45   2   0.50000     0.0600000   -0.1200000   2.494471e-04  1.671101e-07
     58     59   2   0.50000     0.0600000    0.0600000   6.128906e-05  1.496315e-08
     58     60   2   0.50000     0.0600000    0.0600000   6.128906e-05  1.496315e-08
     43     46   2   0.50000     0.0800000    0.0800000   1.015252e-03  1.866303e-06
     43     61   2   0.50000     0.0800000    0.0600000   2.494471e-04  1.671101e-07
     43     62   2   0.50000     0.0800000    0.0600000   2.494471e-04  1.671101e-07
     59     46   2   0.50000     0.0600000    0.0800000   2.494471e-04  1.671101e-07
     59     61   2   0.50000     0.0600000    0.0600000   6.128906e-05  1.496315e-08
     59     62   2   0.50000     0.0600000    0.0600000   6.128906e-05  1.496315e-08
     60     46   2   0.50000     0.0600000    0.0800000   2.494471e-04  1.671101e-07
     60     61   2   0.50000     0.0600000    0.0600000   6.128906e-05  1.496315e-08
     60     62   2   0.50000     0.0600000    0.0600000   6.128906e-05  1.496315e-08
     44     47   2   0.50000    -0.1200000   -0.5000000   1.304585e-03  1.920112e-06
     44     63   2   0.50000    -0.1200000    0.0600000   2.494471e-04  1.671101e-07
     44     64   2   0.50000    -0.1200000    0.0600000   2.494471e-04  1.671101e-07
     61     47   2   0.50000     0.0600000   -0.5000000   3.205360e-04  1.719281e-07
     61     63   2   0.50000     0.0600000    0.0600000   6.128906e-05  1.496315e-08
     61     64   2   0.50000     0.0600000    0.0600000   6.128906e-05  1.496315e-08
     62     47   2   0.50000     0.0600000   -0.5000000   3.205360e-04  1.719281e-07
     62     63   2   0.50000     0.0600000    0.0600000   6.128906e-05  1.496315e-08
     62     64   2   0.50000     0.0600000    0.0600000   6.128906e-05  1.496315e-08
     45     65   2   0.50000    -0.1200000    0.3000000   1.995577e-06  1.069504e-11
     45     66   2   0.50000    -0.1200000    0.5000000   1.575021e-03  3.561100e-06
     63     65   2   0.50000     0.0600000    0.3000000   4.903125e-07  9.576416e-13
     63     66   2   0.50000     0.0600000    0.5000000   3.869820e-04  3.188634e-07
     64     65   2   0.50000     0.0600000    0.3000000   4.903125e-07  9.576416e-13
     64     66   2   0.50000     0.0600000    0.5000000   3.869820e-04  3.188634e-07
     46     67   2   0.50000     0.0800000   -0.5000000   1.095425e-03  1.218041e-06
     46     68   2   0.50000     0.0800000   -0.1200000   1.015252e-03  1.866303e-06
     65     67   2   0.50000     0.3000000   -0.5000000   2.153164e-06  6.980110e-12
     65     68   2   0.50000     0.3000000   -0.1200000   1.995577e-06  1.069504e-11
     47     69   2   0.50000    -0.5000000   -0.1200000   1.304585e-03  1.920112e-06
     47     80   2   0.50000    -0.5000000    0.0600000   3.205360e-04  1.719281e-07
     47     81   2   0.50000    -0.5000000    0.0600000   3.205360e-04  1.719281e-07
     67     69   2   0.50000    -0.5000000   -0.1200000   1.095425e-03  1.218041e-06
     67     80   2   0.50000    -0.5000000    0.0600000   2.691455e-04  1.090642e-07
     67     81   2   0.50000    -0.5000000    0.0600000   2.691455e-04  1.090642e-07
     66     70   2   0.50000     0.5000000   -0.1200000   1.575021e-03  3.561100e-06
     66     82   2   0.50000     0.5000000    0.0600000   3.869820e-04  3.188634e-07
     66     83   2   0.50000     0.5000000    0.0600000   3.869820e-04  3.188634e-07
     80     70   2   0.50000     0.0600000   -0.1200000   2.494471e-04  1.671101e-07
     80     82   2   0.50000     0.0600000    0.0600000   6.128906e-05  1.496315e-08
     80     83   2   0.50000     0.0600000    0.0600000   6.128906e-05  1.496315e-08
     81     70   2   0.50000     0.0600000   -0.1200000   2.494471e-04  1.671101e-07
     81     82   2   0.50000     0.0600000    0.0600000   6.128906e-05  1.496315e-08
     81     83   2   0.50000     0.0600000    0.0600000   6.128906e-05  1.496315e-08
     68     71   2   0.50000    -0.1200000   -0.1200000   1.015252e-03  1.866303e-06
     68     84   2   0.50000    -0.1200000    0.0600000   2.494471e-04  1.671101e-07
     68     85   2   0.50000    -0.1200000    0.0600000   2.494471e-04  1.671101e-07
     82     71   2   0.50000     0.0600000   -0.1200000   2.494471e-04  1.671101e-07
     82     84   2   0.50000     0.0600000    0.0600000   6.128906e-05  1.496315e-08
     82     85   2   0.50000     0.0600000    0.0600000   6.128906e-05  1.496315e-08
     83     71   2   0.50000     0.0600000   -0.1200000   2.494471e-04  1.671101e-07
     83     84   2   0.50000     0.0600000    0.0600000   6.128906e-05  1.496315e-08
     83     85   2   0.50000     0.0600000    0.0600000   6.128906e-05  1.496315e-08
     69     72   2   0.50000    -0.1200000    0.5000000   1.575021e-03  3.561100e-06
     69     86   2   0.50000    -0.1200000    0.0600000   2.494471e-04  1.671101e-07
     69     87   2   0.50000    -0.1200000    0.0600000   2.494471e-04  1.671101e-07
     84     72   2   0.50000     0.0600000    0.5000000   3.869820e-04  3.188634e-07
     84     86   2   0.50000     0.0600000    0.0600000   6.128906e-05  1.496315e-08
     84     87   2   0.50000     0.0600000    0.0600000   6.128906e-05  1.496315e-08
     85     72   2   0.50000     0.0600000    0.5000000   3.869820e-04  3.188634e-07
     85     86   2   0.50000     0.0600000    0.0600000   6.128906e-05  1.496315e-08
     85     87   2   0.50000     0.0600000    0.0600000   6.128906e-05  1.496315e-08
     70     73   2   0.50000    -0.1200000   -0.5000000   1.095425e-03  1.218041e-06
     70     74   2   0.50000    -0.1200000   -0.5000000   1.304585e-03  1.920112e-06
     86     73   2   0.50000     0.0600000   -0.5000000   2.691455e-04  1.090642e-07
     86     74   2   0.50000     0.0600000   -0.5000000   3.205360e-04  1.719281e-07
     87     73   2   0.50000     0.0600000   -0.5000000   2.691455e-04  1.090642e-07
     87     74   2   0.50000     0.0600000   -0.5000000   3.205360e-04  1.719281e-07
     71     75   2   0.50000    -0.1200000    0.0800000   1.015252e-03  1.866303e-06
     71     88   2   0.50000    -0.1200000    0.3000000   1.995577e-06  1.069504e-11
     73     75   2   0.50000    -0.5000000    0.0800000   1.095425e-03  1.218041e-06
     73     88   2   0.50000    -0.5000000    0.3000000   2.153164e-06  6.980110e-12
     72     76   2   0.50000     0.5000000   -0.1200000   1.575021e-03  3.561100e-06
     72     89   2   0.50000     0.5000000    0.0600000   3.869820e-04  3.188634e-07
     72     90   2   0.50000     0.5000000    0.0600000   3.869820e-04  3.188634e-07
     88     76   2   0.50000     0.3000000   -0.1200000   1.995577e-06  1.069504e-11
     88     89   2   0.50000     0.3000000    0.0600000   4.903125e-07  9.576416e-13
     88     90   2   0.50000     0.3000000    0.0600000   4.903125e-07  9.576416e-13
     74     77   2   0.50000    -0.5000000   -0.1200000   1.304585e-03  1.920112e-06
     74     91   2   0.50000    -0.5000000    0.0600000   3.205360e-04  1.719281e-07
     74     92   2   0.50000    -0.5000000    0.0600000   3.205360e-04  1.719281e-07
     89     77   2   0.50000     0.0600000   -0.1200000   2.494471e-04  1.671101e-07
     89     91   2   0.50000     0.0600000    0.0600000   6.128906e-05  1.496315e-08
     89     92   2   0.50000     0.0600000    0.0600000   6.128906e-05  1.496315e-08
     90     77   2   0.50000     0.0600000   -0.1200000   2.494471e-04  1.671101e-07
     90     91   2   0.50000     0.0600000    0.0600000   6.128906e-05  1.496315e-08
     90     92   2   0.50000     0.0600000    0.0600000   6.128906e-05  1.496315e-08
     75     78   2   0.50000     0.0800000    0.0800000   1.015252e-03  1.866303e-06
     75     93   2   0.50000     0.0800000    0.0600000   2.494471e-04  1.671101e-07
     75     94   2   0.50000     0.0800000    0.0600000   2.494471e-04  1.671101e-07
     91     78   2   0.50000     0.0600000    0.0800000   2.494471e-04  1.671101e-07
     91     93   2   0.50000     0.0600000    0.0600000   6.128906e-05  1.496315e-08
     91     94   2   0.50000     0.0600000    0.0600000   6.128906e-05  1.496315e-08
     92     78   2   0.50000     0.0600000    0.0800000   2.494471e-04  1.671101e-07
     92     93   2   0.50000     0.0600000    0.0600000   6.128906e-05  1.496315e-08
     92     94   2   0.50000     0.0600000    0.0600000   6.128906e-05  1.496315e-08
     76     79   2   0.50000    -0.1200000   -0.5000000   1.304585e-03  1.920112e-06
     76     95   2   0.50000    -0.1200000    0.0600000   2.494471e-04  1.671101e-07
     76     96   2   0.50000    -0.1200000    0.0600000   2.494471e-04  1.671101e-07
     93     79   2   0.50000     0.0600000   -0.5000000   3.205360e-04  1.719281e-07
     93     95   2   0.50000     0.0600000    0.0600000   6.128906e-05  1.496315e-08
     93     96   2   0.50000     0.0600000    0.0600000   6.128906e-05  1.496315e-08
     94     79   2   0.50000     0.0600000   -0.5000000   3.205360e-04  1.719281e-07
     94     95   2   0.50000     0.0600000    0.0600000   6.128906e-05  1.496315e-08
     94     96   2   0.50000     0.0600000    0.0600000   6.128906e-05  1.496315e-08
     77     97   2   0.50000    -0.1200000    0.3000000   1.995577e-06  1.069504e-11
     77     98   2   0.50000    -0.1200000    0.5000000   1.575021e-03  3.561100e-06
     95     97   2   0.50000     0.0600000    0.3000000   4.903125e-07  9.576416e-13
     95     98   2   0.50000     0.0600000    0.5000000   3.869820e-04  3.188634e-07
     96     97   2   0.50000     0.0600000    0.3000000   4.903125e-07  9.576416e-13
     96     98   2   0.50000     0.0600000    0.5000000   3.869820e-04  3.188634e-07
     78     99   2   0.50000     0.0800000   -0.5000000   1.095425e-03  1.218041e-06
     78    100   2   0.50000     0.0800000   -0.1200000   1.015252e-03  1.866303e-06
     97     99   2   0.50000     0.3000000   -0.5000000   2.153164e-06  6.980110e-12
     97    100   2   0.50000     0.3000000   -0.1200000   1.995577e-06  1.069504e-11
     79    101   2   0.50000    -0.5000000   -0.1200000   1.304585e-03  1.920112e-06
     79    112   2   0.50000    -0.5000000    0.0600000   3.205360e-04  1.719281e-07
     79    113   2   0.50000    -0.5000000    0.0600000   3.205360e-04  1.719281e-07
     99    101   2   0.50000    -0.5000000   -0.1200000   1.095425e-03  1.218041e-06
     99    112   2   0.50000    -0.5000000    0.0600000   2.691455e-04  1.090642e-07
     99    113   2   0.50000    -0.5000000    0.0600000   2.691455e-04  1.090642e-07
     98    102   2   0.50000     0.5000000   -0.1200000   1.575021e-03  3.561100e-06
     98    114   2   0.50000     0.5000000    0.0600000   3.869820e-04  3.188634e-07
     98    115   2   0.50000     0.5000000    0.0600000   3.869820e-04  3.188634e-07
    112    102   2   0.50000     0.0600000   -0.1200000   2.494471e-04  1.671101e-07
    112    114   2   0.50000     0.0600000    0.0600000   6.128906e-05  1.496315e-08
    112    115   2   0.50000     0.0600000    0.0600000   6.128906e-05  1.496315e-08
    113    102   2   0.50000     0.0600000   -0.1200000   2.494471e-04  1.671101e-07
    113    114   2   0.50000     0.0600000    0.0600000   6.128906e-05  1.496315e-08
    113    115   2   0.50000     0.0600000    0.0600000   6.128906e-05  1.496315e-08
    100    103   2   0.50000    -0.1200000   -0.1200000   1.015252e-03  1.866303e-06
    100    116   2   0.50000    -0.1200000    0.0600000   2.494471e-04  1.671101e-07
    100    117   2   0.50000    -0.1200000    0.0600000   2.494471e-04  1.671101e-07
    114    103   2   0.50000     0.0600000   -0.1200000   2.494471e-04  1.671101e-07
    114    116   2   0.50000     0.0600000    0.0600000   6.128906e-05  1.496315e-08
    114    117   2   0.50000     0.0600000    0.0600000   6.128906e-05  1.496315e-08
    115    103   2   0.50000     0.0600000   -0.1200000   2.494471e-04  1.671101e-07
    115    116   2   0.50000     0.0600000    0.0600000   6.128906e-05  1.496315e-08
    115    117   2   0.50000     0.0600000    0.0600000   6.128906e-05  1.496315e-08
    101    104   2   0.50000    -0.1200000    0.5000000   1.575021e-03  3.561100e-06
    101    118   2   0.50000    -0.1200000    0.0600000   2.494471e-04  1.671101e-07
    101    119   2   0.50000    -0.1200000    0.0600000   2.494471e-04  1.671101e-07
    116    104   2   0.50000     0.0600000    0.5000000   3.869820e-04  3.188634e-07
    116    118   2   0.50000     0.0600000    0.0600000   6.128906e-05  1.496315e-08
    116    119   2   0.50000     0.0600000    0.0600000   6.128906e-05  1.496315e-08
    117    104   2   0.50000     0.0600000    0.5000000   3.869820e-04  3.188634e-07
    117    118   2   0.50000     0.0600000    0.0600000   6.128906e-05  1.496315e-08
    117    119   2   0.50000     0.0600000    0.0600000   6.128906e-05  1.496315e-08
    102    105   2   0.50000    -0.1200000   -0.5000000   1.095425e-03  1.218041e-06
    102    106   2   0.50000    -0.1200000   -0.5000000   1.304585e-03  1.920112e-06
    118    105   2   0.50000     0.0600000   -0.5000000   2.691455e-04  1.090642e-07
    118    106   2   0.50000     0.0600000   -0.5000000   3.205360e-04  1.719281e-07
    119    105   2   0.50000     0.0600000   -0.5000000   2.691455e-04  1.090642e-07
    119    106   2   0.50000     0.0600000   -0.5000000   3.205360e-04  1.719281e-07
    103    107   2   0.50000    -0.1200000    0.0800000   1.015252e-03  1.866303e-06
    103    120   2   0.50000    -0.1200000    0.3000000   1.995577e-06  1.069504e-11
    105    107   2   0.50000    -0.5000000    0.0800000   1.095425e-03  1.218041e-06
    105    120   2   0.50000    -0.5000000    0.3000000   2.153164e-06  6.980110e-12
    104    108   2   0.50000     0.5000000   -0.1200000   1.575021e-03  3.561100e-06
    104    121   2   0.50000     0.5000000    0.0600000   3.869820e-04  3.188634e-07
    104    122   2   0.50000     0.5000000    0.0600000   3.869820e-04  3.188634e-07
    120    108   2   0.50000     0.3000000   -0.1200000   1.995577e-06  1.069504e-11
    120    121   2   0.50000     0.3000000    0.0600000   4.903125e-07  9.576416e-13
    120    122   2   0.50000     0.3000000    0.0600000   4.903125e-07  9.576416e-13
    106    109   2   0.50000    -0.5000000   -0.1200000   1.304585e-03  1.920112e-06
    106    123   2   0.50000    -0.5000000    0.0600000   3.205360e-04  1.719281e-07
    106    124   2   0.50000    -0.5000000    0.0600000   3.205360e-04  1.719281e-07
    121    109   2   0.50000     0.0600000   -0.1200000   2.494471e-04  1.671101e-07
    121    123   2   0.50000     0.0600000    0.0600000   6.128906e-05  1.496315e-08
    121    124   2   0.50000     0.0600000    0.0600000   6.128906e-05  1.496315e-08
    122    109   2   0.50000     0.0600000   -0.1200000   2.494471e-04  1.671101e-07
    122    123   2   0.50000     0.0600000    0.0600000   6.128906e-05  1.496315e-08
    122    124   2   0.50000     0.0600000    0.0600000   6.128906e-05  1.496315e-08
    107    110   2   0.50000     0.0800000    0.0800000   1.015252e-03  1.866303e-06
    107    125   2   0.50000     0.0800000    0.0600000   2.494471e-04  1.671101e-07
    107    126   2   0.50000     0.0800000    0.0600000   2.494471e-04  1.671101e-07
    123    110   2   0.50000     0.0600000    0.0800000   2.494471e-04  1.671101e-07
    123    125   2   0.50000     0.0600000    0.0600000   6.128906e-05  1.496315e-08
    123    126   2   0.50000     0.0600000    0.0600000   6.128906e-05  1.496315e-08
    124    110   2   0.50000     0.0600000    0.0800000   2.494471e-04  1.671101e-07
    124    125   2   0.50000     0.0600000    0.0600000   6.128906e-05  1.496315e-08
    124    126   2   0.50000     0.0600000    0.0600000   6.128906e-05  1.496315e-08
    108    111   2   0.50000    -0.1200000   -0.5000000   1.304585e-03  1.920112e-06
    108    127   2   0.50000    -0.1200000    0.0600000   2.494471e-04  1.671101e-07
    108    128   2   0.50000    -0.1200000    0.0600000   2.494471e-04  1.671101e-07
    125    111   2   0.50000     0.0600000   -0.5000000   3.205360e-04  1.719281e-07
    125    127   2   0.50000     0.0600000    0.0600000   6.128906e-05  1.496315e-08
    125    128   2   0.50000     0.0600000    0.0600000   6.128906e-05  1.496315e-08
    126    111   2   0.50000     0.0600000   -0.5000000   3.205360e-04  1.719281e-07
    126    127   2   0.50000     0.0600000    0.0600000   6.128906e-05  1.496315e-08
    126    128   2   0.50000     0.0600000    0.0600000   6.128906e-05  1.496315e-08
    109    129   2   0.50000    -0.1200000    0.3000000   1.995577e-06  1.069504e-11
    109    130   2   0.50000    -0.1200000    0.5000000   1.575021e-03  3.561100e-06
    127    129   2   0.50000     0.0600000    0.3000000   4.903125e-07  9.576416e-13
    127    130   2   0.50000     0.0600000    0.5000000   3.869820e-04  3.188634e-07
    128    129   2   0.50000     0.0600000    0.3000000   4.903125e-07  9.576416e-13
    128    130   2   0.50000     0.0600000    0.5000000   3.869820e-04  3.188634e-07
    110    131   2   0.50000     0.0800000   -0.5000000   1.095425e-03  1.218041e-06
    110    132   2   0.50000     0.0800000   -0.1200000   1.015252e-03  1.866303e-06
    129    131   2   0.50000     0.3000000   -0.5000000   2.153164e-06  6.980110e-12
    129    132   2   0.50000     0.3000000   -0.1200000   1.995577e-06  1.069504e-11
    111    133   2   0.50000    -0.5000000   -0.1200000   1.304585e-03  1.920112e-06
    111    144   2   0.50000    -0.5000000    0.0600000   3.205360e-04  1.719281e-07
    111    145   2   0.50000    -0.5000000    0.0600000   3.205360e-04  1.719281e-07
    131    133   2   0.50000    -0.5000000   -0.1200000   1.095425e-03  1.218041e-06
    131    144   2   0.50000    -0.5000000    0.0600000   2.691455e-04  1.090642e-07
    131    145   2   0.50000    -0.5000000    0.0600000   2.691455e-04  1.090642e-07
    130    134   2   0.50000     0.5000000   -0.1200000   1.575021e-03  3.561100e-06
    130    146   2   0.50000     0.5000000    0.0600000   3.869820e-04  3.188634e-07
    130    147   2   0.50000     0.5000000    0.0600000   3.869820e-04  3.188634e-07
    144    134   2   0.50000     0.0600000   -0.1200000   2.494471e-04  1.671101e-07
    144    146   2   0.50000     0.0600000    0.0600000   6.128906e-05  1.496315e-08
    144    147   2   0.50000     0.0600000    0.0600000   6.128906e-05  1.496315e-08
    145    134   2   0.50000     0.0600000   -0.1200000   2.494471e-04  1.671101e-07
    145    146   2   0.50000     0.0600000    0.0600000   6.128906e-05  1.496315e-08
    145    147   2   0.50000     0.0600000    0.0600000   6.128906e-05  1.496315e-08
    132    135   2   0.50000    -0.1200000   -0.1200000   1.015252e-03  1.866303e-06
    132    148   2   0.50000    -0.1200000    0.0600000   2.494471e-04  1.671101e-07
    132    149   2   0.50000    -0.1200000    0.0600000   2.494471e-04  1.671101e-07
    146    135   2   0.50000     0.0600000   -0.1200000   2.494471e-04  1.671101e-07
    146    148   2   0.50000     0.0600000    0.0600000   6.128906e-05  1.496315e-08
    146    149   2   0.50000     0.0600000    0.0600000   6.128906e-05  1.496315e-08
    147    135   2   0.50000     0.0600000   -0.1200000   2.494471e-04  1.671101e-07
    147    148   2   0.50000     0.0600000    0.0600000   6.128906e-05  1.496315e-08
    147    149   2   0.50000     0.0600000    0.0600000   6.128906e-05  1.496315e-08
    133    136   2   0.50000    -0.1200000    0.5000000   1.575021e-03  3.561100e-06
    133    150   2   0.50000    -0.1200000    0.0600000   2.494471e-04  1.671101e-07
    133    151   2   0.50000    -0.1200000    0.0600000   2.494471e-04  1.671101e-07
    148    136   2   0.50000     0.0600000    0.5000000   3.869820e-04  3.188634e-07
    148    150   2   0.50000     0.0600000    0.0600000   6.128906e-05  1.496315e-08
    148    151   2   0.50000     0.0600000    0.0600000   6.128906e-05  1.496315e-08
    149    136   2   0.50000     0.0600000    0.5000000   3.869820e-04  3.188634e-07
    149    150   2   0.50000     0.0600000    0.0600000   6.128906e-05  1.496315e-08
    149    151   2   0.50000     0.0600000    0.0600000   6.128906e-05  1.496315e-08
    134    137   2   0.50000    -0.1200000   -0.5000000   1.095425e-03  1.218041e-06
    134    138   2   0.50000    -0.1200000   -0.5000000   1.304585e-03  1.920112e-06
    150    137   2   0.50000     0.0600000   -0.5000000   2.691455e-04  1.090642e-07
    150    138   2   0.50000     0.0600000   -0.5000000   3.205360e-04  1.719281e-07
    151    137   2   0.50000     0.0600000   -0.5000000   2.691455e-04  1.090642e-07
    151    138   2   0.50000     0.0600000   -0.5000000   3.205360e-04  1.719281e-07
    135    139   2   0.50000    -0.1200000    0.0800000   1.015252e-03  1.866303e-06
    135    152   2   0.50000    -0.1200000    0.3000000   1.995577e-06  1.069504e-11
    137    139   2   0.50000    -0.5000000    0.0800000   1.095425e-03  1.218041e-06
    137    152   2   0.50000    -0.5000000    0.3000000   2.153164e-06  6.980110e-12
    136    140   2   0.50000     0.5000000   -0.1200000   1.575021e-03  3.561100e-06
    136    153   2   0.50000     0.5000000    0.0600000   3.869820e-04  3.188634e-07
    136    154   2   0.50000     0.5000000    0.0600000   3.869820e-04  3.188634e-07
    152    140   2   0.50000     0.3000000   -0.1200000   1.995577e-06  1.069504e-11
    152    153   2   0.50000     0.3000000    0.0600000   4.903125e-07  9.576416e-13
    152    154   2   0.50000     0.3000000    0.0600000   4.903125e-07  9.576416e-13
    138    141   2   0.50000    -0.5000000   -0.1200000   1.304585e-03  1.920112e-06
    138    155   2   0.50000    -0.5000000    0.0600000   3.205360e-04  1.719281e-07
    138    156   2   0.50000    -0.5000000    0.0600000   3.205360e-04  1.719281e-07
    153    141   2   0.50000     0.0600000   -0.1200000   2.494471e-04  1.671101e-07
    153    155   2   0.50000     0.0600000    0.0600000   6.128906e-05  1.496315e-08
    153    156   2   0.50000     0.0600000    0.0600000   6.128906e-05  1.496315e-08
    154    141   2   0.50000     0.0600000   -0.1200000   2.494471e-04  1.671101e-07
    154    155   2   0.50000     0.0600000    0.0600000   6.128906e-05  1.496315e-08
    154    156   2   0.50000     0.0600000    0.0600000   6.128906e-05  1.496315e-08
    139    142   2   0.50000     0.0800000    0.0800000   1.015252e-03  1.866303e-06
    139    157   2   0.50000     0.0800000    0.0600000   2.494471e-04  1.671101e-07
    139    158   2   0.50000     0.0800000    0.0600000   2.494471e-04  1.671101e-07
    155    142   2   0.50000     0.0600000    0.0800000   2.494471e-04  1.671101e-07
    155    157   2   0.50000     0.0600000    0.0600000   6.128906e-05  1.496315e-08
    155    158   2   0.50000     0.0600000    0.0600000   6.128906e-05  1.496315e-08
    156    142   2   0.50000     0.0600000    0.0800000   2.494471e-04  1.671101e-07
    156    157   2   0.50000     0.0600000    0.0600000   6.128906e-05  1.496315e-08
    156    158   2   0.50000     0.0600000    0.0600000   6.128906e-05  1.496315e-08
    140    143   2   0.50000    -0.1200000   -0.5000000   1.304585e-03  1.920112e-06
    140    159   2   0.50000    -0.1200000    0.0600000   2.494471e-04  1.671101e-07
    140    160   2   0.50000    -0.1200000    0.0600000   2.494471e-04  1.671101e-07
    157    143   2   0.50000     0.0600000   -0.5000000   3.205360e-04  1.719281e-07
    157    159   2   0.50000     0.0600000    0.0600000   6.128906e-05  1.496315e-08
    157    160   2   0.50000     0.0600000    0.0600000   6.128906e-05  1.496315e-08
    158    143   2   0.50000     0.0600000   -0.5000000   3.205360e-04  1.719281e-07
    158    159   2   0.50000     0.0600000    0.0600000   6.128906e-05  1.496315e-08
    158    160   2   0.50000     0.0600000    0.0600000   6.128906e-05  1.496315e-08
    141    161   2   0.50000    -0.1200000    0.3000000   1.995577e-06  1.069504e-11
    141    162   2   0.50000    -0.1200000    0.5000000   1.575021e-03  3.561100e-06
    159    161   2   0.50000     0.0600000    0.3000000   4.903125e-07  9.576416e-13
    159    162   2   0.50000     0.0600000    0.5000000   3.869820e-04  3.188634e-07
    160    161   2   0.50000     0.0600000    0.3000000   4.903125e-07  9.576416e-13
    160    162   2   0.50000     0.0600000    0.5000000   3.869820e-04  3.188634e-07
    142    163   2   0.50000     0.0800000   -0.5000000   1.095425e-03  1.218041e-06
    142    164   2   0.50000     0.0800000   -0.1200000   1.015252e-03  1.866303e-06
    161    163   2   0.50000     0.3000000   -0.5000000   2.153164e-06  6.980110e-12
    161    164   2   0.50000     0.3000000   -0.1200000   1.995577e-06  1.069504e-11
    143    165   2   0.50000    -0.5000000   -0.1200000   1.304585e-03  1.920112e-06
    143    176   2   0.50000    -0.5000000    0.0600000   3.205360e-04  1.719281e-07
    143    177   2   0.50000    -0.5000000    0.0600000   3.205360e-04  1.719281e-07
    163    165   2   0.50000    -0.5000000   -0.1200000   1.095425e-03  1.218041e-06
    163    176   2   0.50000    -0.5000000    0.0600000   2.691455e-04  1.090642e-07
    163    177   2   0.50000    -0.5000000    0.0600000   2.691455e-04  1.090642e-07
    162    166   2   0.50000     0.5000000   -0.1200000   1.575021e-03  3.561100e-06
    162    178   2   0.50000     0.5000000    0.0600000   3.869820e-04  3.188634e-07
    162    179   2   0.50000     0.5000000    0.0600000   3.869820e-04  3.188634e-07
    176    166   2   0.50000     0.0600000   -0.1200000   2.494471e-04  1.671101e-07
    176    178   2   0.50000     0.0600000    0.0600000   6.128906e-05  1.496315e-08
    176    179   2   0.50000     0.0600000    0.0600000   6.128906e-05  1.496315e-08
    177    166   2   0.50000     0.0600000   -0.1200000   2.494471e-04  1.671101e-07
    177    178   2   0.50000     0.0600000    0.0600000   6.128906e-05  1.496315e-08
    177    179   2   0.50000     0.0600000    0.0600000   6.128906e-05  1.496315e-08
    164    167   2   0.50000    -0.1200000   -0.1200000   1.015252e-03  1.866303e-06
    164    180   2   0.50000    -0.1200000    0.0600000   2.494471e-04  1.671101e-07
    164    181   2   0.50000    -0.1200000    0.0600000   2.494471e-04  1.671101e-07
    178    167   2   0.50000     0.0600000   -0.1200000   2.494471e-04  1.671101e-07
    178    180   2   0.50000     0.0600000    0.0600000   6.128906e-05  1.496315e-08
    178    181   2   0.50000     0.0600000    0.0600000   6.128906e-05  1.496315e-08
    179    167   2   0.50000     0.0600000   -0.1200000   2.494471e-04  1.671101e-07
    179    180   2   0.50000     0.0600000    0.0600000   6.128906e-05  1.496315e-08
    179    181   2   0.50000     0.0600000    0.0600000   6.128906e-05  1.496315e-08
    165    168   2   0.50000    -0.1200000    0.5000000   1.575021e-03  3.561100e-06
    165    182   2   0.50000    -0.1200000    0.0600000   2.494471e-04  1.671101e-07
    165    183   2   0.50000    -0.1200000    0.0600000   2.494471e-04  1.671101e-07
    180    168   2   0.50000     0.0600000    0.5000000   3.869820e-04  3.188634e-07
    180    182   2   0.50000     0.0600000    0.0600000   6.128906e-05  1.496315e-08
    180    183   2   0.50000     0.0600000    0.0600000   6.128906e-05  1.496315e-08
    181    168   2   0.50000     0.0600000    0.5000000   3.869820e-04  3.188634e-07
    181    182   2   0.50000     0.0600000    0.0600000   6.128906e-05  1.496315e-08
    181    183   2   0.50000     0.0600000    0.0600000   6.128906e-05  1.496315e-08
    166    169   2   0.50000    -0.1200000   -0.5000000   1.095425e-03  1.218041e-06
    166    170   2   0.50000    -0.1200000   -0.5000000   1.304585e-03  1.920112e-06
    182    169   2   0.50000     0.0600000   -0.5000000   2.691455e-04  1.090642e-07
    182    170   2   0.50000     0.0600000   -0.5000000   3.205360e-04  1.719281e-07
    183    169   2   0.50000     0.0600000   -0.5000000   2.691455e-04  1.090642e-07
    183    170   2   0.50000     0.0600000   -0.5000000   3.205360e-04  1.719281e-07
    167    171   2   0.50000    -0.1200000    0.0800000   1.015252e-03  1.866303e-06
    167    184   2   0.50000    -0.1200000    0.3000000   1.995577e-06  1.069504e-11
    169    171   2   0.50000    -0.5000000    0.0800000   1.095425e-03  1.218041e-06
    169    184   2   0.50000    -0.5000000    0.3000000   2.153164e-06  6.980110e-12
    168    172   2   0.50000     0.5000000   -0.1200000   1.575021e-03  3.561100e-06
    168    185   2   0.50000     0.5000000    0.0600000   3.869820e-04  3.188634e-07
    168    186   2   0.50000     0.5000000    0.0600000   3.869820e-04  3.188634e-07
    184    172   2   0.50000     0.3000000   -0.1200000   1.995577e-06  1.069504e-11
    184    185   2   0.50000     0.3000000    0.0600000   4.903125e-07  9.576416e-13
    184    186   2   0.50000     0.3000000    0.0600000   4.903125e-07  9.576416e-13
    170    173   2   0.50000    -0.5000000   -0.1200000   1.304585e-03  1.920112e-06
    170    187   2   0.50000    -0.5000000    0.0600000   3.205360e-04  1.719281e-07
    170    188   2   0.50000    -0.5000000    0.0600000   3.205360e-04  1.719281e-07
    185    173   2   0.50000     0.0600000   -0.1200000   2.494471e-04  1.671101e-07
    185    187   2   0.50000     0.0600000    0.0600000   6.128906e-05  1.496315e-08
    185    188   2   0.50000     0.0600000    0.0600000   6.128906e-05  1.496315e-08
    186    173   2   0.50000     0.0600000   -0.1200000   2.494471e-04  1.671101e-07
    186    187   2   0.50000     0.0600000    0.0600000   6.128906e-05  1.496315e-08
    186    188   2   0.50000     0.0600000    0.0600000   6.128906e-05  1.496315e-08
    171    174   2   0.50000     0.0800000    0.0800000   1.015252e-03  1.866303e-06
    171    189   2   0.50000     0.0800000    0.0600000   2.494471e-04  1.671101e-07
    171    190   2   0.50000     0.0800000    0.0600000   2.494471e-04  1.671101e-07
    187    174   2   0.50000     0.0600000    0.0800000   2.494471e-04  1.671101e-07
    187    189   2   0.50000     0.0600000    0.0600000   6.128906e-05  1.496315e-08
    187    190   2   0.50000     0.0600000    0.0600000   6.128906e-05  1.496315e-08
    188    174   2   0.50000     0.0600000    0.0800000   2.494471e-04  1.671101e-07
    188    189   2   0.50000     0.0600000    0.0600000   6.128906e-05  1.496315e-08
    188    190   2   0.50000     0.0600000    0.0600000   6.128906e-05  1.496315e-08
    172    175   2   0.50000    -0.1200000   -0.5000000   1.304585e-03  1.920112e-06
    172    191   2   0.50000    -0.1200000    0.0600000   2.494471e-04  1.671101e-07
    172    192   2   0.50000    -0.1200000    0.0600000   2.494471e-04  1.671101e-07
    189    175   2   0.50000     0.0600000   -0.5000000   3.205360e-04  1.719281e-07
    189    191   2   0.50000     0.0600000    0.0600000   6.128906e-05  1.496315e-08
    189    192   2   0.50000     0.0600000    0.0600000   6.128906e-05  1.496315e-08
    190    175   2   0.50000     0.0600000   -0.5000000   3.205360e-04  1.719281e-07
    190    191   2   0.50000     0.0600000    0.0600000   6.128906e-05  1.496315e-08
    190    192   2   0.50000     0.0600000    0.0600000   6.128906e-05  1.496315e-08
    173    193   2   0.50000    -0.1200000    0.3000000   1.995577e-06  1.069504e-11
    173    194   2   0.50000    -0.1200000    0.5000000   1.575021e-03  3.561100e-06
    191    193   2   0.50000     0.0600000    0.3000000   4.903125e-07  9.576416e-13
    191    194   2   0.50000     0.0600000    0.5000000   3.869820e-04  3.188634e-07
    192    193   2   0.50000     0.0600000    0.3000000   4.903125e-07  9.576416e-13
    192    194   2   0.50000     0.0600000    0.5000000   3.869820e-04  3.188634e-07
    174    195   2   0.50000     0.0800000   -0.5000000   1.095425e-03  1.218041e-06
    174    196   2   0.50000     0.0800000   -0.1200000   1.015252e-03  1.866303e-06
    193    195   2   0.50000     0.3000000   -0.5000000   2.153164e-06  6.980110e-12
    193    196   2   0.50000     0.3000000   -0.1200000   1.995577e-06  1.069504e-11
    175    197   2   0.50000    -0.5000000   -0.1200000   1.304585e-03  1.920112e-06
    175    208   2   0.50000    -0.5000000    0.0600000   3.205360e-04  1.719281e-07
    175    209   2   0.50000    -0.5000000    0.0600000   3.205360e-04  1.719281e-07
    195    197   2   0.50000    -0.5000000   -0.1200000   1.095425e-03  1.218041e-06
    195    208   2   0.50000    -0.5000000    0.0600000   2.691455e-04  1.090642e-07
    195    209   2   0.50000    -0.5000000    0.0600000   2.691455e-04  1.090642e-07
    194    198   2   0.50000     0.5000000   -0.1200000   1.575021e-03  3.561100e-06
    194    210   2   0.50000     0.5000000    0.0600000   3.869820e-04  3.188634e-07
    194    211   2   0.50000     0.5000000    0.0600000   3.869820e-04  3.188634e-07
    208    198   2   0.50000     0.0600000   -0.1200000   2.494471e-04  1.671101e-07
    208    210   2   0.50000     0.0600000    0.0600000   6.128906e-05  1.496315e-08
    208    211   2   0.50000     0.0600000    0.0600000   6.128906e-05  1.496315e-08
    209    198   2   0.50000     0.0600000   -0.1200000   2.494471e-04  1.671101e-07
    209    210   2   0.50000     0.0600000    0.0600000   6.128906e-05  1.496315e-08
    209    211   2   0.50000     0.0600000    0.0600000   6.128906e-05  1.496315e-08
    196    199   2   0.50000    -0.1200000   -0.1200000   1.015252e-03  1.866303e-06
    196    212   2   0.50000    -0.1200000    0.0600000   2.494471e-04  1.671101e-07
    196    213   2   0.50000    -0.1200000    0.0600000   2.494471e-04  1.671101e-07
    210    199   2   0.50000     0.0600000   -0.1200000   2.494471e-04  1.671101e-07
    210    212   2   0.50000     0.0600000    0.0600000   6.128906e-05  1.496315e-08
    210    213   2   0.50000     0.0600000    0.0600000   6.128906e-05  1.496315e-08
    211    199   2   0.50000     0.0600000   -0.1200000   2.494471e-04  1.671101e-07
    211    212   2   0.50000     0.0600000    0.0600000   6.128906e-05  1.496315e-08
    211    213   2   0.50000     0.0600000    0.0600000   6.128906e-05  1.496315e-08
    197    200   2   0.50000    -0.1200000    0.5000000   1.575021e-03  3.561100e-06
    197    214   2   0.50000    -0.1200000    0.0600000   2.494471e-04  1.671101e-07
    197    215   2   0.50000    -0.1200000    0.0600000   2.494471e-04  1.671101e-07
    212    200   2   0.50000     0.0600000    0.5000000   3.869820e-04  3.188634e-07
    212    214   2   0.50000     0.0600000    0.0600000   6.128906e-05  1.496315e-08
    212    215   2   0.50000     0.0600000    0.0600000   6.128906e-05  1.496315e-08
    213    200   2   0.50000     0.0600000    0.5000000   3.869820e-04  3.188634e-07
    213    214   2   0.50000     0.0600000    0.0600000   6.128906e-05  1.496315e-08
    213    215   2   0.50000     0.0600000    0.0600000   6.128906e-05  1.496315e-08
    198    201   2   0.50000    -0.1200000   -0.5000000   1.095425e-03  1.218041e-06
    198    202   2   0.50000    -0.1200000   -0.5000000   1.304585e-03  1.920112e-06
    214    201   2   0.50000     0.0600000   -0.5000000   2.691455e-04  1.090642e-07
    214    202   2   0.50000     0.0600000   -0.5000000   3.205360e-04  1.719281e-07
    215    201   2   0.50000     0.0600000   -0.5000000   2.691455e-04  1.090642e-07
    215    202   2   0.50000     0.0600000   -0.5000000   3.205360e-04  1.719281e-07
    199    203   2   0.50000    -0.1200000    0.0800000   1.015252e-03  1.866303e-06
    199    216   2   0.50000    -0.1200000    0.3000000   1.995577e-06  1.069504e-11
    201    203   2   0.50000    -0.5000000    0.0800000   1.095425e-03  1.218041e-06
    201    216   2   0.50000    -0.5000000    0.3000000   2.153164e-06  6.980110e-12
    200    204   2   0.50000     0.5000000   -0.1200000   1.575021e-03  3.561100e-06
    200    217   2   0.50000     0.5000000    0.0600000   3.869820e-04  3.188634e-07
    200    218   2   0.50000     0.5000000    0.0600000   3.869820e-04  3.188634e-07
    216    204   2   0.50000     0.3000000   -0.1200000   1.995577e-06  1.069504e-11
    216    217   2   0.50000     0.3000000    0.0600000   4.903125e-07  9.576416e-13
    216    218   2   0.50000     0.3000000    0.0600000   4.903125e-07  9.576416e-13
    202    205   2   0.50000    -0.5000000   -0.1200000   1.304585e-03  1.920112e-06
    202    219   2   0.50000    -0.5000000    0.0600000   3.205360e-04  1.719281e-07
    202    220   2   0.50000    -0.5000000    0.0600000   3.205360e-04  1.719281e-07
    217    205   2   0.50000     0.0600000   -0.1200000   2.494471e-04  1.671101e-07
    217    219   2   0.50000     0.0600000    0.0600000   6.128906e-05  1.496315e-08
    217    220   2   0.50000     0.0600000    0.0600000   6.128906e-05  1.496315e-08
    218    205   2   0.50000     0.0600000   -0.1200000   2.494471e-04  1.671101e-07
    218    219   2   0.50000     0.0600000    0.0600000   6.128906e-05  1.496315e-08
    218    220   2   0.50000     0.0600000    0.0600000   6.128906e-05  1.496315e-08
    203    206   2   0.50000     0.0800000    0.0800000   1.015252e-03  1.866303e-06
    203    221   2   0.50000     0.0800000    0.0600000   2.494471e-04  1.671101e-07
    203    222   2   0.50000     0.0800000    0.0600000   2.494471e-04  1.671101e-07
    219    206   2   0.50000     0.0600000    0.0800000   2.494471e-04  1.671101e-07
    219    221   2   0.50000     0.0600000    0.0600000   6.128906e-05  1.496315e-08
    219    222   2   0.50000     0.0600000    0.0600000   6.128906e-05  1.496315e-08
    220    206   2   0.50000     0.0600000    0.0800000   2.494471e-04  1.671101e-07
    220    221   2   0.50000     0.0600000    0.0600000   6.128906e-05  1.496315e-08
    220    222   2   0.50000     0.0600000    0.0600000   6.128906e-05  1.496315e-08
    204    207   2   0.50000    -0.1200000   -0.5000000   1.304585e-03  1.920112e-06
    204    223   2   0.50000    -0.1200000    0.0600000   2.494471e-04  1.671101e-07
    204    224   2   0.50000    -0.1200000    0.0600000   2.494471e-04  1.671101e-07
    221    207   2   0.50000     0.0600000   -0.5000000   3.205360e-04  1.719281e-07
    221    223   2   0.50000     0.0600000    0.0600000   6.128906e-05  1.496315e-08
    221    224   2   0.50000     0.0600000    0.0600000   6.128906e-05  1.496315e-08
    222    207   2   0.50000     0.0600000   -0.5000000   3.205360e-04  1.719281e-07
    222    223   2   0.50000     0.0600000    0.0600000   6.128906e-05  1.496315e-08
    222    224   2   0.50000     0.0600000    0.0600000   6.128906e-05  1.496315e-08
    205    225   2   0.50000    -0.1200000    0.3000000   1.995577e-06  1.069504e-11
    205    226   2   0.50000    -0.1200000    0.5000000   1.575021e-03  3.561100e-06
    223    225   2   0.50000     0.0600000    0.3000000   4.903125e-07  9.576416e-13
    223    226   2   0.50000     0.0600000    0.5000000   3.869820e-04  3.188634e-07
    224    225   2   0.50000     0.0600000    0.3000000   4.903125e-07  9.576416e-13
    224    226   2   0.50000     0.0600000    0.5000000   3.869820e-04  3.188634e-07
    206    227   2   0.50000     0.0800000   -0.5000000   1.095425e-03  1.218041e-06
    206    228   2   0.50000     0.0800000   -0.1200000   1.015252e-03  1.866303e-06
    225    227   2   0.50000     0.3000000   -0.5000000   2.153164e-06  6.980110e-12
    225    228   2   0.50000     0.3000000   -0.1200000   1.995577e-06  1.069504e-11
    207    229   2   0.50000    -0.5000000   -0.1200000   1.304585e-03  1.920112e-06
    207    240   2   0.50000    -0.5000000    0.0600000   3.205360e-04  1.719281e-07
    207    241   2   0.50000    -0.5000000    0.0600000   3.205360e-04  1.719281e-07
    227    229   2   0.50000    -0.5000000   -0.1200000   1.095425e-03  1.218041e-06
    227    240   2   0.50000    -0.5000000    0.0600000   2.691455e-04  1.090642e-07
    227    241   2   0.50000    -0.5000000    0.0600000   2.691455e-04  1.090642e-07
    226    230   2   0.50000     0.5000000   -0.1200000   1.575021e-03  3.561100e-06
    226    242   2   0.50000     0.5000000    0.0600000   3.869820e-04  3.188634e-07
    226    243   2   0.50000     0.5000000    0.0600000   3.869820e-04  3.188634e-07
    240    230   2   0.50000     0.0600000   -0.1200000   2.494471e-04  1.671101e-07
    240    242   2   0.50000     0.0600000    0.0600000   6.128906e-05  1.496315e-08
    240    243   2   0.50000     0.0600000    0.0600000   6.128906e-05  1.496315e-08
    241    230   2   0.50000     0.0600000   -0.1200000   2.494471e-04  1.671101e-07
    241    242   2   0.50000     0.0600000    0.0600000   6.128906e-05  1.496315e-08
    241    243   2   0.50000     0.0600000    0.0600000   6.128906e-05  1.496315e-08
    228    231   2   0.50000    -0.1200000   -0.1200000   1.015252e-03  1.866303e-06
    228    244   2   0.50000    -0.1200000    0.0600000   2.494471e-04  1.671101e-07
    228    245   2   0.50000    -0.1200000    0.0600000   2.494471e-04  1.671101e-07
    242    231   2   0.50000     0.0600000   -0.1200000   2.494471e-04  1.671101e-07
    242    244   2   0.50000     0.0600000    0.0600000   6.128906e-05  1.496315e-08
    242    245   2   0.50000     0.0600000    0.0600000   6.128906e-05  1.496315e-08
    243    231   2   0.50000     0.0600000   -0.1200000   2.494471e-04  1.671101e-07
    243    244   2   0.50000     0.0600000    0.0600000   6.128906e-05  1.496315e-08
    243    245   2   0.50000     0.0600000    0.0600000   6.128906e-05  1.496315e-08
    229    232   2   0.50000    -0.1200000    0.5000000   1.575021e-03  3.561100e-06
    229    246   2   0.50000    -0.1200000    0.0600000   2.494471e-04  1.671101e-07
    229    247   2   0.50000    -0.1200000    0.0600000   2.494471e-04  1.671101e-07
    244    232   2   0.50000     0.0600000    0.5000000   3.869820e-04  3.188634e-07
    244    246   2   0.50000     0.0600000    0.0600000   6.128906e-05  1.496315e-08
    244    247   2   0.50000     0.0600000    0.0600000   6.128906e-05  1.496315e-08
    245    232   2   0.50000     0.0600000    0.5000000   3.869820e-04  3.188634e-07
    245    246   2   0.50000     0.0600000    0.0600000   6.128906e-05  1.496315e-08
    245    247   2   0.50000     0.0600000    0.0600000   6.128906e-05  1.496315e-08
    230    233   2   0.50000    -0.1200000   -0.5000000   1.095425e-03  1.218041e-06
    230    234   2   0.50000    -0.1200000   -0.5000000   1.304585e-03  1.920112e-06
    246    233   2   0.50000     0.0600000   -0.5000000   2.691455e-04  1.090642e-07
    246    234   2   0.50000     0.0600000   -0.5000000   3.205360e-04  1.719281e-07
    247    233   2   0.50000     0.0600000   -0.5000000   2.691455e-04  1.090642e-07
    247    234   2   0.50000     0.0600000   -0.5000000   3.205360e-04  1.719281e-07
    231    235   2   0.50000    -0.1200000    0.0800000   1.015252e-03  1.866303e-06
    231    248   2   0.50000    -0.1200000    0.3000000   1.995577e-06  1.069504e-11
    233    235   2   0.50000    -0.5000000    0.0800000   1.095425e-03  1.218041e-06
    233    248   2   0.50000    -0.5000000    0.3000000   2.153164e-06  6.980110e-12
    232    236   2   0.50000     0.5000000   -0.1200000   1.575021e-03  3.561100e-06
    232    249   2   0.50000     0.5000000    0.0600000   3.869820e-04  3.188634e-07
    232    250   2   0.50000     0.5000000    0.0600000   3.869820e-04  3.188634e-07
    248    236   2   0.50000     0.3000000   -0.1200000   1.995577e-06  1.069504e-11
    248    249   2   0.50000     0.3000000    0.0600000   4.903125e-07  9.576416e-13
    248    250   2   0.50000     0.3000000    0.0600000   4.903125e-07  9.576416e-13
    234    237   2   0.50000    -0.5000000   -0.1200000   1.304585e-03  1.920112e-06
    234    251   2   0.50000    -0.5000000    0.0600000   3.205360e-04  1.719281e-07
    234    252   2   0.50000    -0.5000000    0.0600000   3.205360e-04  1.719281e-07
    249    237   2   0.50000     0.0600000   -0.1200000   2.494471e-04  1.671101e-07
    249    251   2   0.50000     0.0600000    0.0600000   6.128906e-05  1.496315e-08
    249    252   2   0.50000     0.0600000    0.0600000   6.128906e-05  1.496315e-08
    250    237   2   0.50000     0.0600000   -0.1200000   2.494471e-04  1.671101e-07
    250    251   2   0.50000     0.0600000    0.0600000   6.128906e-05  1.496315e-08
    250    252   2   0.50000     0.0600000    0.0600000   6.128906e-05  1.496315e-08
    235    238   2   0.50000     0.0800000    0.0800000   1.015252e-03  1.866303e-06
    235    253   2   0.50000     0.0800000    0.0600000   2.494471e-04  1.671101e-07
    235    254   2   0.50000     0.0800000    0.0600000   2.494471e-04  1.671101e-07
    251    238   2   0.50000     0.0600000    0.0800000   2.494471e-04  1.671101e-07
    251    253   2   0.50000     0.0600000    0.0600000   6.128906e-05  1.496315e-08
    251    254   2   0.50000     0.0600000    0.0600000   6.128906e-05  1.496315e-08
    252    238   2   0.50000     0.0600000    0.0800000   2.494471e-04  1.671101e-07
    252    253   2   0.50000     0.0600000    0.0600000   6.128906e-05  1.496315e-08
    252    254   2   0.50000     0.0600000    0.0600000   6.128906e-05  1.496315e-08
    236    239   2   0.50000    -0.1200000   -0.5000000   1.304585e-03  1.920112e-06
    236    255   2   0.50000    -0.1200000    0.0600000   2.494471e-04  1.671101e-07
    236    256   2   0.50000    -0.1200000    0.0600000   2.494471e-04  1.671101e-07
    253    239   2   0.50000     0.0600000   -0.5000000   3.205360e-04  1.719281e-07
    253    255   2   0.50000     0.0600000    0.0600000   6.128906e-05  1.496315e-08
    253    256   2   0.50000     0.0600000    0.0600000   6.128906e-05  1.496315e-08
    254    239   2   0.50000     0.0600000   -0.5000000   3.205360e-04  1.719281e-07
    254    255   2   0.50000     0.0600000    0.0600000   6.128906e-05  1.496315e-08
    254    256   2   0.50000     0.0600000    0.0600000   6.128906e-05  1.496315e-08
    237    257   2   0.50000    -0.1200000    0.3000000   1.995577e-06  1.069504e-11
    237    258   2   0.50000    -0.1200000    0.5000000   1.575021e-03  3.561100e-06
    255    257   2   0.50000     0.0600000    0.3000000   4.903125e-07  9.576416e-13
    255    258   2   0.50000     0.0600000    0.5000000   3.869820e-04  3.188634e-07
    256    257   2   0.50000     0.0600000    0.3000000   4.903125e-07  9.576416e-13
    256    258   2   0.50000     0.0600000    0.5000000   3.869820e-04  3.188634e-07
    238    259   2   0.50000     0.0800000   -0.5000000   1.095425e-03  1.218041e-06
    238    260   2   0.50000     0.0800000   -0.1200000   1.015252e-03  1.866303e-06
    257    259   2   0.50000     0.3000000   -0.5000000   2.153164e-06  6.980110e-12
    257    260   2   0.50000     0.3000000   -0.1200000   1.995577e-06  1.069504e-11
    239    261   2   0.50000    -0.5000000   -0.1200000   1.304585e-03  1.920112e-06
    239    272   2   0.50000    -0.5000000    0.0600000   3.205360e-04  1.719281e-07
    239    273   2   0.50000    -0.5000000    0.0600000   3.205360e-04  1.719281e-07
    259    261   2   0.50000    -0.5000000   -0.1200000   1.095425e-03  1.218041e-06
    259    272   2   0.50000    -0.5000000    0.0600000   2.691455e-04  1.090642e-07
    259    273   2   0.50000    -0.5000000    0.0600000   2.691455e-04  1.090642e-07
    258    262   2   0.50000     0.5000000   -0.1200000   1.575021e-03  3.561100e-06
    258    274   2   0.50000     0.5000000    0.0600000   3.869820e-04  3.188634e-07
    258    275   2   0.50000     0.5000000    0.0600000   3.869820e-04  3.188634e-07
    272    262   2   0.50000     0.0600000   -0.1200000   2.494471e-04  1.671101e-07
    272    274   2   0.50000     0.0600000    0.0600000   6.128906e-05  1.496315e-08
    272    275   2   0.50000     0.0600000    0.0600000   6.128906e-05  1.496315e-08
    273    262   2   0.50000     0.0600000   -0.1200000   2.494471e-04  1.671101e-07
    273    274   2   0.50000     0.0600000    0.0600000   6.128906e-05  1.496315e-08
    273    275   2   0.50000     0.0600000    0.0600000   6.128906e-05  1.496315e-08
    260    263   2   0.50000    -0.1200000   -0.1200000   1.015252e-03  1.866303e-06
    260    276   2   0.50000    -0.1200000    0.0600000   2.494471e-04  1.671101e-07
    260    277   2   0.50000    -0.1200000    0.0600000   2.494471e-04  1.671101e-07
    274    263   2   0.50000     0.0600000   -0.1200000   2.494471e-04  1.671101e-07
    274    276   2   0.50000     0.0600000    0.0600000   6.128906e-05  1.496315e-08
    274    277   2   0.50000     0.0600000    0.0600000   6.128906e-05  1.496315e-08
    275    263   2   0.50000     0.0600000   -0.1200000   2.494471e-04  1.671101e-07
    275    276   2   0.50000     0.0600000    0.0600000   6.128906e-05  1.496315e-08
    275    277   2   0.50000     0.0600000    0.0600000   6.128906e-05  1.496315e-08
    261    264   2   0.50000    -0.1200000    0.5000000   1.575021e-03  3.561100e-06
    261    278   2   0.50000    -0.1200000    0.0600000   2.494471e-04  1.671101e-07
    261    279   2   0.50000    -0.1200000    0.0600000   2.494471e-04  1.671101e-07
    276    264   2   0.50000     0.0600000    0.5000000   3.869820e-04  3.188634e-07
    276    278   2   0.50000     0.0600000    0.0600000   6.128906e-05  1.496315e-08
    276    279   2   0.50000     0.0600000    0.0600000   6.128906e-05  1.496315e-08
    277    264   2   0.50000     0.0600000    0.5000000   3.869820e-04  3.188634e-07
    277    278   2   0.50000     0.0600000    0.0600000   6.128906e-05  1.496315e-08
    277    279   2   0.50000     0.0600000    0.0600000   6.128906e-05  1.496315e-08
    262    265   2   0.50000    -0.1200000   -0.5000000   1.095425e-03  1.218041e-06
    262    266   2   0.50000    -0.1200000   -0.5000000   1.304585e-03  1.920112e-06
    278    265   2   0.50000     0.0600000   -0.5000000   2.691455e-04  1.090642e-07
    278    266   2   0.50000     0.0600000   -0.5000000   3.205360e-04  1.719281e-07
    279    265   2   0.50000     0.0600000   -0.5000000   2.691455e-04  1.090642e-07
    279    266   2   0.50000     0.0600000   -0.5000000   3.205360e-04  1.719281e-07
    263    267   2   0.50000    -0.1200000    0.0800000   1.015252e-03  1.866303e-06
    263    280   2   0.50000    -0.1200000    0.3000000   1.995577e-06  1.069504e-11
    265    267   2   0.50000    -0.5000000    0.0800000   1.095425e-03  1.218041e-06
    265    280   2   0.50000    -0.5000000    0.3000000   2.153164e-06  6.980110e-12
    264    268   2   0.50000     0.5000000   -0.1200000   1.575021e-03  3.561100e-06
    264    281   2   0.50000     0.5000000    0.0600000   3.869820e-04  3.188634e-07
    264    282   2   0.50000     0.5000000    0.0600000   3.869820e-04  3.188634e-07
    280    268   2   0.50000     0.3000000   -0.1200000   1.995577e-06  1.069504e-11
    280    281   2   0.50000     0.3000000    0.0600000   4.903125e-07  9.576416e-13
    280    282   2   0.50000     0.3000000    0.0600000   4.903125e-07  9.576416e-13
    266    269   2   0.50000    -0.5000000   -0.1200000   1.304585e-03  1.920112e-06
    266    283   2   0.50000    -0.5000000    0.0600000   3.205360e-04  1.719281e-07
    266    284   2   0.50000    -0.5000000    0.0600000   3.205360e-04  1.719281e-07
    281    269   2   0.50000     0.0600000   -0.1200000   2.494471e-04  1.671101e-07
    281    283   2   0.50000     0.0600000    0.0600000   6.128906e-05  1.496315e-08
    281    284   2   0.50000     0.0600000    0.0600000   6.128906e-05  1.496315e-08
    282    269   2   0.50000     0.0600000   -0.1200000   2.494471e-04  1.671101e-07
    282    283   2   0.50000     0.0600000    0.0600000   6.128906e-05  1.496315e-08
    282    284   2   0.50000     0.0600000    0.0600000   6.128906e-05  1.496315e-08
    267    270   2   0.50000     0.0800000    0.0800000   1.015252e-03  1.866303e-06
    267    285   2   0.50000     0.0800000    0.0600000   2.494471e-04  1.671101e-07
    267    286   2   0.50000     0.0800000    0.0600000   2.494471e-04  1.671101e-07
    283    270   2   0.50000     0.0600000    0.0800000   2.494471e-04  1.671101e-07
    283    285   2   0.50000     0.0600000    0.0600000   6.128906e-05  1.496315e-08
    283    286   2   0.50000     0.0600000    0.0600000   6.128906e-05  1.496315e-08
    284    270   2   0.50000     0.0600000    0.0800000   2.494471e-04  1.671101e-07
    284    285   2   0.50000     0.0600000    0.0600000   6.128906e-05  1.496315e-08
    284    286   2   0.50000     0.0600000    0.0600000   6.128906e-05  1.496315e-08
    268    271   2   0.50000    -0.1200000   -0.5000000   1.304585e-03  1.920112e-06
    268    287   2   0.50000    -0.1200000    0.0600000   2.494471e-04  1.671101e-07
    268    288   2   0.50000    -0.1200000    0.0600000   2.494471e-04  1.671101e-07
    285    271   2   0.50000     0.0600000   -0.5000000   3.205360e-04  1.719281e-07
    285    287   2   0.50000     0.0600000    0.0600000   6.128906e-05  1.496315e-08
    285    288   2   0.50000     0.0600000    0.0600000   6.128906e-05  1.496315e-08
    286    271   2   0.50000     0.0600000   -0.5000000   3.205360e-04  1.719281e-07
    286    287   2   0.50000     0.0600000    0.0600000   6.128906e-05  1.496315e-08
    286    288   2   0.50000     0.0600000    0.0600000   6.128906e-05  1.496315e-08
    269    289   2   0.50000    -0.1200000    0.3000000   1.995577e-06  1.069504e-11
    269    290   2   0.50000    -0.1200000    0.5000000   1.575021e-03  3.561100e-06
    287    289   2   0.50000     0.0600000    0.3000000   4.903125e-07  9.576416e-13
    287    290   2   0.50000     0.0600000    0.5000000   3.869820e-04  3.188634e-07
    288    289   2   0.50000     0.0600000    0.3000000   4.903125e-07  9.576416e-13
    288    290   2   0.50000     0.0600000    0.5000000   3.869820e-04  3.188634e-07
    270    291   2   0.50000     0.0800000   -0.5000000   1.095425e-03  1.218041e-06
    270    292   2   0.50000     0.0800000   -0.1200000   1.015252e-03  1.866303e-06
    289    291   2   0.50000     0.3000000   -0.5000000   2.153164e-06  6.980110e-12
    289    292   2   0.50000     0.3000000   -0.1200000   1.995577e-06  1.069504e-11
    271    293   2   0.50000    -0.5000000   -0.1200000   1.304585e-03  1.920112e-06
    271    304   2   0.50000    -0.5000000    0.0600000   3.205360e-04  1.719281e-07
    271    305   2   0.50000    -0.5000000    0.0600000   3.205360e-04  1.719281e-07
    291    293   2   0.50000    -0.5000000   -0.1200000   1.095425e-03  1.218041e-06
    291    304   2   0.50000    -0.5000000    0.0600000   2.691455e-04  1.090642e-07
    291    305   2   0.50000    -0.5000000    0.0600000   2.691455e-04  1.090642e-07
    290    294   2   0.50000     0.5000000   -0.1200000   1.575021e-03  3.561100e-06
    290    306   2   0.50000     0.5000000    0.0600000   3.869820e-04  3.188634e-07
    290    307   2   0.50000     0.5000000    0.0600000   3.869820e-04  3.188634e-07
    304    294   2   0.50000     0.0600000   -0.1200000   2.494471e-04  1.671101e-07
    304    306   2   0.50000     0.0600000    0.0600000   6.128906e-05  1.496315e-08
    304    307   2   0.50000     0.0600000    0.0600000   6.128906e-05  1.496315e-08
    305    294   2   0.50000     0.0600000   -0.1200000   2.494471e-04  1.671101e-07
    305    306   2   0.50000     0.0600000    0.0600000   6.128906e-05  1.496315e-08
    305    307   2   0.50000     0.0600000    0.0600000   6.128906e-05  1.496315e-08
    292    295   2   0.50000    -0.1200000   -0.1200000   1.015252e-03  1.866303e-06
    292    308   2   0.50000    -0.1200000    0.0600000   2.494471e-04  1.671101e-07
    292    309   2   0.50000    -0.1200000    0.0600000   2.494471e-04  1.671101e-07
    306    295   2   0.50000     0.0600000   -0.1200000   2.494471e-04  1.671101e-07
    306    308   2   0.50000     0.0600000    0.0600000   6.128906e-05  1.496315e-08
    306    309   2   0.50000     0.0600000    0.0600000   6.128906e-05  1.496315e-08
    307    295   2   0.50000     0.0600000   -0.1200000   2.494471e-04  1.671101e-07
    307    308   2   0.50000     0.0600000    0.0600000   6.128906e-05  1.496315e-08
    307    309   2   0.50000     0.0600000    0.0600000   6.128906e-05  1.496315e-08
    293    296   2   0.50000    -0.1200000    0.5000000   1.575021e-03  3.561100e-06
    293    310   2   0.50000    -0.1200000    0.0600000   2.494471e-04  1.671101e-07
    293    311   2   0.50000    -0.1200000    0.0600000   2.494471e-04  1.671101e-07
    308    296   2   0.50000     0.0600000    0.5000000   3.869820e-04  3.188634e-07
    308    310   2   0.50000     0.0600000    0.0600000   6.128906e-05  1.496315e-08
    308    311   2   0.50000     0.0600000    0.0600000   6.128906e-05  1.496315e-08
    309    296   2   0.50000     0.0600000    0.5000000   3.869820e-04  3.188634e-07
    309    310   2   0.50000     0.0600000    0.0600000   6.128906e-05  1.496315e-08
    309    311   2   0.50000     0.0600000    0.0600000   6.128906e-05  1.496315e-08
    294    297   2   0.50000    -0.1200000   -0.5000000   1.095425e-03  1.218041e-06
    294    298   2   0.50000    -0.1200000   -0.5000000   1.304585e-03  1.920112e-06
    310    297   2   0.50000     0.0600000   -0.5000000   2.691455e-04  1.090642e-07
    310    298   2   0.50000     0.0600000   -0.5000000   3.205360e-04  1.719281e-07
    311    297   2   0.50000     0.0600000   -0.5000000   2.691455e-04  1.090642e-07
    311    298   2   0.50000     0.0600000   -0.5000000   3.205360e-04  1.719281e-07
    295    299   2   0.50000    -0.1200000    0.0800000   1.015252e-03  1.866303e-06
    295    312   2   0.50000    -0.1200000    0.3000000   1.995577e-06  1.069504e-11
    297    299   2   0.50000    -0.5000000    0.0800000   1.095425e-03  1.218041e-06
    297    312   2   0.50000    -0.5000000    0.3000000   2.153164e-06  6.980110e-12
    296    300   2   0.50000     0.5000000   -0.1200000   1.575021e-03  3.561100e-06
    296    313   2   0.50000     0.5000000    0.0600000   3.869820e-04  3.188634e-07
    296    314   2   0.50000     0.5000000    0.0600000   3.869820e-04  3.188634e-07
    312    300   2   0.50000     0.3000000   -0.1200000   1.995577e-06  1.069504e-11
    312    313   2   0.50000     0.3000000    0.0600000   4.903125e-07  9.576416e-13
    312    314   2   0.50000     0.3000000    0.0600000   4.903125e-07  9.576416e-13
    298    301   2   0.50000    -0.5000000   -0.1200000   1.304585e-03  1.920112e-06
    298    315   2   0.50000    -0.5000000    0.0600000   3.205360e-04  1.719281e-07
    298    316   2   0.50000    -0.5000000    0.0600000   3.205360e-04  1.719281e-07
    313    301   2   0.50000     0.0600000   -0.1200000   2.494471e-04  1.671101e-07
    313    315   2   0.50000     0.0600000    0.0600000   6.128906e-05  1.496315e-08
    313    316   2   0.50000     0.0600000    0.0600000   6.128906e-05  1.496315e-08
    314    301   2   0.50000     0.0600000   -0.1200000   2.494471e-04  1.671101e-07
    314    315   2   0.50000     0.0600000    0.0600000   6.128906e-05  1.496315e-08
    314    316   2   0.50000     0.0600000    0.0600000   6.128906e-05  1.496315e-08
    299    302   2   0.50000     0.0800000    0.0800000   1.015252e-03  1.866303e-06
    299    317   2   0.50000     0.0800000    0.0600000   2.494471e-04  1.671101e-07
    299    318   2   0.50000     0.0800000    0.0600000   2.494471e-04  1.671101e-07
    315    302   2   0.50000     0.0600000    0.0800000   2.494471e-04  1.671101e-07
    315    317   2   0.50000     0.0600000    0.0600000   6.128906e-05  1.496315e-08
    315    318   2   0.50000     0.0600000    0.0600000   6.128906e-05  1.496315e-08
    316    302   2   0.50000     0.0600000    0.0800000   2.494471e-04  1.671101e-07
    316    317   2   0.50000     0.0600000    0.0600000   6.128906e-05  1.496315e-08
    316    318   2   0.50000     0.0600000    0.0600000   6.128906e-05  1.496315e-08
    300    303   2   0.50000    -0.1200000   -0.5000000   1.304585e-03  1.920112e-06
    300    319   2   0.50000    -0.1200000    0.0600000   2.494471e-04  1.671101e-07
    300    320   2   0.50000    -0.1200000    0.0600000   2.494471e-04  1.671101e-07
    317    303   2   0.50000     0.0600000   -0.5000000   3.205360e-04  1.719281e-07
    317    319   2   0.50000     0.0600000    0.0600000   6.128906e-05  1.496315e-08
    317    320   2   0.50000     0.0600000    0.0600000   6.128906e-05  1.496315e-08
    318    303   2   0.50000     0.0600000   -0.5000000   3.205360e-04  1.719281e-07
    318    319   2   0.50000     0.0600000    0.0600000   6.128906e-05  1.496315e-08
    318    320   2   0.50000     0.0600000    0.0600000   6.128906e-05  1.496315e-08
    301    321   2   0.50000    -0.1200000    0.3000000   1.995577e-06  1.069504e-11
    301    322   2   0.50000    -0.1200000    0.5000000   1.575021e-03  3.561100e-06
    319    321   2   0.50000     0.0600000    0.3000000   4.903125e-07  9.576416e-13
    319    322   2   0.50000     0.0600000    0.5000000   3.869820e-04  3.188634e-07
    320    321   2   0.50000     0.0600000    0.3000000   4.903125e-07  9.576416e-13
    320    322   2   0.50000     0.0600000    0.5000000   3.869820e-04  3.188634e-07
    302    323   2   0.50000     0.0800000   -0.5000000   1.095425e-03  1.218041e-06
    302    324   2   0.50000     0.0800000   -0.1200000   1.015252e-03  1.866303e-06
    321    323   2   0.50000     0.3000000   -0.5000000   2.153164e-06  6.980110e-12
    321    324   2   0.50000     0.3000000   -0.1200000   1.995577e-06  1.069504e-11
    303    325   2   0.50000    -0.5000000   -0.1200000   1.304585e-03  1.920112e-06
    303    336   2   0.50000    -0.5000000    0.0600000   3.205360e-04  1.719281e-07
    303    337   2   0.50000    -0.5000000    0.0600000   3.205360e-04  1.719281e-07
    323    325   2   0.50000    -0.5000000   -0.1200000   1.095425e-03  1.218041e-06
    323    336   2   0.50000    -0.5000000    0.0600000   2.691455e-04  1.090642e-07
    323    337   2   0.50000    -0.5000000    0.0600000   2.691455e-04  1.090642e-07
    322    326   2   0.50000     0.5000000   -0.1200000   1.575021e-03  3.561100e-06
    322    338   2   0.50000     0.5000000    0.0600000   3.869820e-04  3.188634e-07
    322    339   2   0.50000     0.5000000    0.0600000   3.869820e-04  3.188634e-07
    336    326   2   0.50000     0.0600000   -0.1200000   2.494471e-04  1.671101e-07
    336    338   2   0.50000     0.0600000    0.0600000   6.128906e-05  1.496315e-08
    336    339   2   0.50000     0.0600000    0.0600000   6.128906e-05  1.496315e-08
    337    326   2   0.50000     0.0600000   -0.1200000   2.494471e-04  1.671101e-07
    337    338   2   0.50000     0.0600000    0.0600000   6.128906e-05  1.496315e-08
    337    339   2   0.50000     0.0600000    0.0600000   6.128906e-05  1.496315e-08
    324    327   2   0.50000    -0.1200000   -0.1200000   1.015252e-03  1.866303e-06
    324    340   2   0.50000    -0.1200000    0.0600000   2.494471e-04  1.671101e-07
    324    341   2   0.50000    -0.1200000    0.0600000   2.494471e-04  1.671101e-07
    338    327   2   0.50000     0.0600000   -0.1200000   2.494471e-04  1.671101e-07
    338    340   2   0.50000     0.0600000    0.0600000   6.128906e-05  1.496315e-08
    338    341   2   0.50000     0.0600000    0.0600000   6.128906e-05  1.496315e-08
    339    327   2   0.50000     0.0600000   -0.1200000   2.494471e-04  1.671101e-07
    339    340   2   0.50000     0.0600000    0.0600000   6.128906e-05  1.496315e-08
    339    341   2   0.50000     0.0600000    0.0600000   6.128906e-05  1.496315e-08
    325    328   2   0.50000    -0.1200000    0.5000000   1.575021e-03  3.561100e-06
    325    342   2   0.50000    -0.1200000    0.0600000   2.494471e-04  1.671101e-07
    325    343   2   0.50000    -0.1200000    0.0600000   2.494471e-04  1.671101e-07
    340    328   2   0.50000     0.0600000    0.5000000   3.869820e-04  3.188634e-07
    340    342   2   0.50000     0.0600000    0.0600000   6.128906e-05  1.496315e-08
    340    343   2   0.50000     0.0600000    0.0600000   6.128906e-05  1.496315e-08
    341    328   2   0.50000     0.0600000    0.5000000   3.869820e-04  3.188634e-07
    341    342   2   0.50000     0.0600000    0.0600000   6.128906e-05  1.496315e-08
    341    343   2   0.50000     0.0600000    0.0600000   6.128906e-05  1.496315e-08
    326    329   2   0.50000    -0.1200000   -0.5000000   1.095425e-03  1.218041e-06
    326    330   2   0.50000    -0.1200000   -0.5000000   1.304585e-03  1.920112e-06
    342    329   2   0.50000     0.0600000   -0.5000000   2.691455e-04  1.090642e-07
    342    330   2   0.50000     0.0600000   -0.5000000   3.205360e-04  1.719281e-07
    343    329   2   0.50000     0.0600000   -0.5000000   2.691455e-04  1.090642e-07
    343    330   2   0.50000     0.0600000   -0.5000000   3.205360e-04  1.719281e-07
    327    331   2   0.50000    -0.1200000    0.0800000   1.015252e-03  1.866303e-06
    327    344   2   0.50000    -0.1200000    0.3000000   1.995577e-06  1.069504e-11
    329    331   2   0.50000    -0.5000000    0.0800000   1.095425e-03  1.218041e-06
    329    344   2   0.50000    -0.5000000    0.3000000   2.153164e-06  6.980110e-12
    328    332   2   0.50000     0.5000000   -0.1200000   1.575021e-03  3.561100e-06
    328    345   2   0.50000     0.5000000    0.0600000   3.869820e-04  3.188634e-07
    328    346   2   0.50000     0.5000000    0.0600000   3.869820e-04  3.188634e-07
    344    332   2   0.50000     0.3000000   -0.1200000   1.995577e-06  1.069504e-11
    344    345   2   0.50000     0.3000000    0.0600000   4.903125e-07  9.576416e-13
    344    346   2   0.50000     0.3000000    0.0600000   4.903125e-07  9.576416e-13
    330    333   2   0.50000    -0.5000000   -0.1200000   1.304585e-03  1.920112e-06
    330    347   2   0.50000    -0.5000000    0.0600000   3.205360e-04  1.719281e-07
    330    348   2   0.50000    -0.5000000    0.0600000   3.205360e-04  1.719281e-07
    345    333   2   0.50000     0.0600000   -0.1200000   2.494471e-04  1.671101e-07
    345    347   2   0.50000     0.0600000    0.0600000   6.128906e-05  1.496315e-08
    345    348   2   0.50000     0.0600000    0.0600000   6.128906e-05  1.496315e-08
    346    333   2   0.50000     0.0600000   -0.1200000   2.494471e-04  1.671101e-07
    346    347   2   0.50000     0.0600000    0.0600000   6.128906e-05  1.496315e-08
    346    348   2   0.50000     0.0600000    0.0600000   6.128906e-05  1.496315e-08
    331    334   2   0.50000     0.0800000    0.0800000   1.015252e-03  1.866303e-06
    331    349   2   0.50000     0.0800000    0.0600000   2.494471e-04  1.671101e-07
    331    350   2   0.50000     0.0800000    0.0600000   2.494471e-04  1.671101e-07
    347    334   2   0.50000     0.0600000    0.0800000   2.494471e-04  1.671101e-07
    347    349   2   0.50000     0.0600000    0.0600000   6.128906e-05  1.496315e-08
    347    350   2   0.50000     0.0600000    0.0600000   6.128906e-05  1.496315e-08
    348    334   2   0.50000     0.0600000    0.0800000   2.494471e-04  1.671101e-07
    348    349   2   0.50000     0.0600000    0.0600000   6.128906e-05  1.496315e-08
    348    350   2   0.50000     0.0600000    0.0600000   6.128906e-05  1.496315e-08
    332    335   2   0.50000    -0.1200000   -0.5000000   1.304585e-03  1.920112e-06
    332    351   2   0.50000    -0.1200000    0.0600000   2.494471e-04  1.671101e-07
    332    352   2   0.50000    -0.1200000    0.0600000   2.494471e-04  1.671101e-07
    349    335   2   0.50000     0.0600000   -0.5000000   3.205360e-04  1.719281e-07
    349    351   2   0.50000     0.0600000    0.0600000   6.128906e-05  1.496315e-08
    349    352   2   0.50000     0.0600000    0.0600000   6.128906e-05  1.496315e-08
    350    335   2   0.50000     0.0600000   -0.5000000   3.205360e-04  1.719281e-07
    350    351   2   0.50000     0.0600000    0.0600000   6.128906e-05  1.496315e-08
    350    352   2   0.50000     0.0600000    0.0600000   6.128906e-05  1.496315e-08
    333    353   2   0.50000    -0.1200000    0.3000000   1.995577e-06  1.069504e-11
    333    354   2   0.50000    -0.1200000    0.5000000   1.575021e-03  3.561100e-06
    351    353   2   0.50000     0.0600000    0.3000000   4.903125e-07  9.576416e-13
    351    354   2   0.50000     0.0600000    0.5000000   3.869820e-04  3.188634e-07
    352    353   2   0.50000     0.0600000    0.3000000   4.903125e-07  9.576416e-13
    352    354   2   0.50000     0.0600000    0.5000000   3.869820e-04  3.188634e-07
    334    355   2   0.50000     0.0800000   -0.5000000   1.095425e-03  1.218041e-06
    334    356   2   0.50000     0.0800000   -0.1200000   1.015252e-03  1.866303e-06
    353    355   2   0.50000     0.3000000   -0.5000000   2.153164e-06  6.980110e-12
    353    356   2   0.50000     0.3000000   -0.1200000   1.995577e-06  1.069504e-11
    335    357   2   0.50000    -0.5000000   -0.1200000   1.304585e-03  1.920112e-06
    335    368   2   0.50000    -0.5000000    0.0600000   3.205360e-04  1.719281e-07
    335    369   2   0.50000    -0.5000000    0.0600000   3.205360e-04  1.719281e-07
    355    357   2   0.50000    -0.5000000   -0.1200000   1.095425e-03  1.218041e-06
    355    368   2   0.50000    -0.5000000    0.0600000   2.691455e-04  1.090642e-07
    355    369   2   0.50000    -0.5000000    0.0600000   2.691455e-04  1.090642e-07
    354    358   2   0.50000     0.5000000   -0.1200000   1.575021e-03  3.561100e-06
    354    370   2   0.50000     0.5000000    0.0600000   3.869820e-04  3.188634e-07
    354    371   2   0.50000     0.5000000    0.0600000   3.869820e-04  3.188634e-07
    368    358   2   0.50000     0.0600000   -0.1200000   2.494471e-04  1.671101e-07
    368    370   2   0.50000     0.0600000    0.0600000   6.128906e-05  1.496315e-08
    368    371   2   0.50000     0.0600000    0.0600000   6.128906e-05  1.496315e-08
    369    358   2   0.50000     0.0600000   -0.1200000   2.494471e-04  1.671101e-07
    369    370   2   0.50000     0.0600000    0.0600000   6.128906e-05  1.496315e-08
    369    371   2   0.50000     0.0600000    0.0600000   6.128906e-05  1.496315e-08
    356    359   2   0.50000    -0.1200000   -0.1200000   1.015252e-03  1.866303e-06
    356    372   2   0.50000    -0.1200000    0.0600000   2.494471e-04  1.671101e-07
    356    373   2   0.50000    -0.1200000    0.0600000   2.494471e-04  1.671101e-07
    370    359   2   0.50000     0.0600000   -0.1200000   2.494471e-04  1.671101e-07
    370    372   2   0.50000     0.0600000    0.0600000   6.128906e-05  1.496315e-08
    370    373   2   0.50000     0.0600000    0.0600000   6.128906e-05  1.496315e-08
    371    359   2   0.50000     0.0600000   -0.1200000   2.494471e-04  1.671101e-07
    371    372   2   0.50000     0.0600000    0.0600000   6.128906e-05  1.496315e-08
    371    373   2   0.50000     0.0600000    0.0600000   6.128906e-05  1.496315e-08
    357    360   2   0.50000    -0.1200000    0.5000000   1.575021e-03  3.561100e-06
    357    374   2   0.50000    -0.1200000    0.0600000   2.494471e-04  1.671101e-07
    357    375   2   0.50000    -0.1200000    0.0600000   2.494471e-04  1.671101e-07
    372    360   2   0.50000     0.0600000    0.5000000   3.869820e-04  3.188634e-07
    372    374   2   0.50000     0.0600000    0.0600000   6.128906e-05  1.496315e-08
    372    375   2   0.50000     0.0600000    0.0600000   6.128906e-05  1.496315e-08
    373    360   2   0.50000     0.0600000    0.5000000   3.869820e-04  3.188634e-07
    373    374   2   0.50000     0.0600000    0.0600000   6.128906e-05  1.496315e-08
    373    375   2   0.50000     0.0600000    0.0600000   6.128906e-05  1.496315e-08
    358    361   2   0.50000    -0.1200000   -0.5000000   1.095425e-03  1.218041e-06
    358    362   2   0.50000    -0.1200000   -0.5000000   1.304585e-03  1.920112e-06
    374    361   2   0.50000     0.0600000   -0.5000000   2.691455e-04  1.090642e-07
    374    362   2   0.50000     0.0600000   -0.5000000   3.205360e-04  1.719281e-07
    375    361   2   0.50000     0.0600000   -0.5000000   2.691455e-04  1.090642e-07
    375    362   2   0.50000     0.0600000   -0.5000000   3.205360e-04  1.719281e-07
    359    363   2   0.50000    -0.1200000    0.0800000   1.015252e-03  1.866303e-06
    359    376   2   0.50000    -0.1200000    0.3000000   1.995577e-06  1.069504e-11
    361    363   2   0.50000    -0.5000000    0.0800000   1.095425e-03  1.218041e-06
    361    376   2   0.50000    -0.5000000    0.3000000   2.153164e-06  6.980110e-12
    360    364   2   0.50000     0.5000000   -0.1200000   1.575021e-03  3.561100e-06
    360    377   2   0.50000     0.5000000    0.0600000   3.869820e-04  3.188634e-07
    360    378   2   0.50000     0.5000000    0.0600000   3.869820e-04  3.188634e-07
    376    364   2   0.50000     0.3000000   -0.1200000   1.995577e-06  1.069504e-11
    376    377   2   0.50000     0.3000000    0.0600000   4.903125e-07  9.576416e-13
    376    378   2   0.50000     0.3000000    0.0600000   4.903125e-07  9.576416e-13
    362    365   2   0.50000    -0.5000000   -0.1200000   1.304585e-03  1.920112e-06
    362    379   2   0.50000    -0.5000000    0.0600000   3.205360e-04  1.719281e-07
    362    380   2   0.50000    -0.5000000    0.0600000   3.205360e-04  1.719281e-07
    377    365   2   0.50000     0.0600000   -0.1200000   2.494471e-04  1.671101e-07
    377    379   2   0.50000     0.0600000    0.0600000   6.128906e-05  1.496315e-08
    377    380   2   0.50000     0.0600000    0.0600000   6.128906e-05  1.496315e-08
    378    365   2   0.50000     0.0600000   -0.1200000   2.494471e-04  1.671101e-07
    378    379   2   0.50000     0.0600000    0.0600000   6.128906e-05  1.496315e-08
    378    380   2   0.50000     0.0600000    0.0600000   6.128906e-05  1.496315e-08
    363    366   2   0.50000     0.0800000    0.0800000   1.015252e-03  1.866303e-06
    363    381   2   0.50000     0.0800000    0.0600000   2.494471e-04  1.671101e-07
    363    382   2   0.50000     0.0800000    0.0600000   2.494471e-04  1.671101e-07
    379    366   2   0.50000     0.0600000    0.0800000   2.494471e-04  1.671101e-07
    379    381   2   0.50000     0.0600000    0.0600000   6.128906e-05  1.496315e-08
    379    382   2   0.50000     0.0600000    0.0600000   6.128906e-05  1.496315e-08
    380    366   2   0.50000     0.0600000    0.0800000   2.494471e-04  1.671101e-07
    380    381   2   0.50000     0.0600000    0.0600000   6.128906e-05  1.496315e-08
    380    382   2   0.50000     0.0600000    0.0600000   6.128906e-05  1.496315e-08
    364    367   2   0.50000    -0.1200000   -0.5000000   1.304585e-03  1.920112e-06
    364    383   2   0.50000    -0.1200000    0.0600000   2.494471e-04  1.671101e-07
    364    384   2   0.50000    -0.1200000    0.0600000   2.494471e-04  1.671101e-07
    381    367   2   0.50000     0.0600000   -0.5000000   3.205360e-04  1.719281e-07
    381    383   2   0.50000     0.0600000    0.0600000   6.128906e-05  1.496315e-08
    381    384   2   0.50000     0.0600000    0.0600000   6.128906e-05  1.496315e-08
    382    367   2   0.50000     0.0600000   -0.5000000   3.205360e-04  1.719281e-07
    382    383   2   0.50000     0.0600000    0.0600000   6.128906e-05  1.496315e-08
    382    384   2   0.50000     0.0600000    0.0600000   6.128906e-05  1.496315e-08
    365    385   2   0.50000    -0.1200000    0.3000000   1.995577e-06  1.069504e-11
    365    386   2   0.50000    -0.1200000    0.5000000   1.575021e-03  3.561100e-06
    383    385   2   0.50000     0.0600000    0.3000000   4.903125e-07  9.576416e-13
    383    386   2   0.50000     0.0600000    0.5000000   3.869820e-04  3.188634e-07
    384    385   2   0.50000     0.0600000    0.3000000   4.903125e-07  9.576416e-13
    384    386   2   0.50000     0.0600000    0.5000000   3.869820e-04  3.188634e-07
    366    387   2   0.50000     0.0800000   -0.5000000   1.095425e-03  1.218041e-06
    366    388   2   0.50000     0.0800000   -0.1200000   1.015252e-03  1.866303e-06
    385    387   2   0.50000     0.3000000   -0.5000000   2.153164e-06  6.980110e-12
    385    388   2   0.50000     0.3000000   -0.1200000   1.995577e-06  1.069504e-11
    367    389   2   0.50000    -0.5000000   -0.1200000   1.304585e-03  1.920112e-06
    367    400   2   0.50000    -0.5000000    0.0600000   3.205360e-04  1.719281e-07
    367    401   2   0.50000    -0.5000000    0.0600000   3.205360e-04  1.719281e-07
    387    389   2   0.50000    -0.5000000   -0.1200000   1.095425e-03  1.218041e-06
    387    400   2   0.50000    -0.5000000    0.0600000   2.691455e-04  1.090642e-07
    387    401   2   0.50000    -0.5000000    0.0600000   2.691455e-04  1.090642e-07
    386    390   2   0.50000     0.5000000   -0.1200000   1.575021e-03  3.561100e-06
    386    402   2   0.50000     0.5000000    0.0600000   3.869820e-04  3.188634e-07
    386    403   2   0.50000     0.5000000    0.0600000   3.869820e-04  3.188634e-07
    400    390   2   0.50000     0.0600000   -0.1200000   2.494471e-04  1.671101e-07
    400    402   2   0.50000     0.0600000    0.0600000   6.128906e-05  1.496315e-08
    400    403   2   0.50000     0.0600000    0.0600000   6.128906e-05  1.496315e-08
    401    390   2   0.50000     0.0600000   -0.1200000   2.494471e-04  1.671101e-07
    401    402   2   0.50000     0.0600000    0.0600000   6.128906e-05  1.496315e-08
    401    403   2   0.50000     0.0600000    0.0600000   6.128906e-05  1.496315e-08
    388    391   2   0.50000    -0.1200000   -0.1200000   1.015252e-03  1.866303e-06
    388    404   2   0.50000    -0.1200000    0.0600000   2.494471e-04  1.671101e-07
    388    405   2   0.50000    -0.1200000    0.0600000   2.494471e-04  1.671101e-07
    402    391   2   0.50000     0.0600000   -0.1200000   2.494471e-04  1.671101e-07
    402    404   2   0.50000     0.0600000    0.0600000   6.128906e-05  1.496315e-08
    402    405   2   0.50000     0.0600000    0.0600000   6.128906e-05  1.496315e-08
    403    391   2   0.50000     0.0600000   -0.1200000   2.494471e-04  1.671101e-07
    403    404   2   0.50000     0.0600000    0.0600000   6.128906e-05  1.496315e-08
    403    405   2   0.50000     0.0600000    0.0600000   6.128906e-05  1.496315e-08
    389    392   2   0.50000    -0.1200000    0.5000000   1.575021e-03  3.561100e-06
    389    406   2   0.50000    -0.1200000    0.0600000   2.494471e-04  1.671101e-07
    389    407   2   0.50000    -0.1200000    0.0600000   2.494471e-04  1.671101e-07
    404    392   2   0.50000     0.0600000    0.5000000   3.869820e-04  3.188634e-07
    404    406   2   0.50000     0.0600000    0.0600000   6.128906e-05  1.496315e-08
    404    407   2   0.50000     0.0600000    0.0600000   6.128906e-05  1.496315e-08
    405    392   2   0.50000     0.0600000    0.5000000   3.869820e-04  3.188634e-07
    405    406   2   0.50000     0.0600000    0.0600000   6.128906e-05  1.496315e-08
    405    407   2   0.50000     0.0600000    0.0600000   6.128906e-05  1.496315e-08
    390    393   2   0.50000    -0.1200000   -0.5000000   1.095425e-03  1.218041e-06
    390    394   2   0.50000    -0.1200000   -0.5000000   1.304585e-03  1.920112e-06
    406    393   2   0.50000     0.0600000   -0.5000000   2.691455e-04  1.090642e-07
    406    394   2   0.50000     0.0600000   -0.5000000   3.205360e-04  1.719281e-07
    407    393   2   0.50000     0.0600000   -0.5000000   2.691455e-04  1.090642e-07
    407    394   2   0.50000     0.0600000   -0.5000000   3.205360e-04  1.719281e-07
    391    395   2   0.50000    -0.1200000    0.0800000   1.015252e-03  1.866303e-06
    391    408   2   0.50000    -0.1200000    0.3000000   1.995577e-06  1.069504e-11
    393    395   2   0.50000    -0.5000000    0.0800000   1.095425e-03  1.218041e-06
    393    408   2   0.50000    -0.5000000    0.3000000   2.153164e-06  6.980110e-12
    392    396   2   0.50000     0.5000000   -0.1200000   1.575021e-03  3.561100e-06
    392    409   2   0.50000     0.5000000    0.0600000   3.869820e-04  3.188634e-07
    392    410   2   0.50000     0.5000000    0.0600000   3.869820e-04  3.188634e-07
    408    396   2   0.50000     0.3000000   -0.1200000   1.995577e-06  1.069504e-11
    408    409   2   0.50000     0.3000000    0.0600000   4.903125e-07  9.576416e-13
    408    410   2   0.50000     0.3000000    0.0600000   4.903125e-07  9.576416e-13
    394    397   2   0.50000    -0.5000000   -0.1200000   1.304585e-03  1.920112e-06
    394    411   2   0.50000    -0.5000000    0.0600000   3.205360e-04  1.719281e-07
    394    412   2   0.50000    -0.5000000    0.0600000   3.205360e-04  1.719281e-07
    409    397   2   0.50000     0.0600000   -0.1200000   2.494471e-04  1.671101e-07
    409    411   2   0.50000     0.0600000    0.0600000   6.128906e-05  1.496315e-08
    409    412   2   0.50000     0.0600000    0.0600000   6.128906e-05  1.496315e-08
    410    397   2   0.50000     0.0600000   -0.1200000   2.494471e-04  1.671101e-07
    410    411   2   0.50000     0.0600000    0.0600000   6.128906e-05  1.496315e-08
    410    412   2   0.50000     0.0600000    0.0600000   6.128906e-05  1.496315e-08
    395    398   2   0.50000     0.0800000    0.0800000   1.015252e-03  1.866303e-06
    395    413   2   0.50000     0.0800000    0.0600000   2.494471e-04  1.671101e-07
    395    414   2   0.50000     0.0800000    0.0600000   2.494471e-04  1.671101e-07
    411    398   2   0.50000     0.0600000    0.0800000   2.494471e-04  1.671101e-07
    411    413   2   0.50000     0.0600000    0.0600000   6.128906e-05  1.496315e-08
    411    414   2   0.50000     0.0600000    0.0600000   6.128906e-05  1.496315e-08
    412    398   2   0.50000     0.0600000    0.0800000   2.494471e-04  1.671101e-07
    412    413   2   0.50000     0.0600000    0.0600000   6.128906e-05  1.496315e-08
    412    414   2   0.50000     0.0600000    0.0600000   6.128906e-05  1.496315e-08
    396    399   2   0.50000    -0.1200000   -0.5000000   1.304585e-03  1.920112e-06
    396    415   2   0.50000    -0.1200000    0.0600000   2.494471e-04  1.671101e-07
    396    416   2   0.50000    -0.1200000    0.0600000   2.494471e-04  1.671101e-07
    413    399   2   0.50000     0.0600000   -0.5000000   3.205360e-04  1.719281e-07
    413    415   2   0.50000     0.0600000    0.0600000   6.128906e-05  1.496315e-08
    413    416   2   0.50000     0.0600000    0.0600000   6.128906e-05  1.496315e-08
    414    399   2   0.50000     0.0600000   -0.5000000   3.205360e-04  1.719281e-07
    414    415   2   0.50000     0.0600000    0.0600000   6.128906e-05  1.496315e-08
    414    416   2   0.50000     0.0600000    0.0600000   6.128906e-05  1.496315e-08
    397    417   2   0.50000    -0.1200000    0.3000000   1.995577e-06  1.069504e-11
    397    418   2   0.50000    -0.1200000    0.5000000   1.575021e-03  3.561100e-06
    415    417   2   0.50000     0.0600000    0.3000000   4.903125e-07  9.576416e-13
    415    418   2   0.50000     0.0600000    0.5000000   3.869820e-04  3.188634e-07
    416    417   2   0.50000     0.0600000    0.3000000   4.903125e-07  9.576416e-13
    416    418   2   0.50000     0.0600000    0.5000000   3.869820e-04  3.188634e-07
    398    419   2   0.50000     0.0800000   -0.5000000   1.095425e-03  1.218041e-06
    398    420   2   0.50000     0.0800000   -0.1200000   1.015252e-03  1.866303e-06
    417    419   2   0.50000     0.3000000   -0.5000000   2.153164e-06  6.980110e-12
    417    420   2   0.50000     0.3000000   -0.1200000   1.995577e-06  1.069504e-11
    399    421   2   0.50000    -0.5000000   -0.1200000   1.304585e-03  1.920112e-06
    399    432   2   0.50000    -0.5000000    0.0600000   3.205360e-04  1.719281e-07
    399    433   2   0.50000    -0.5000000    0.0600000   3.205360e-04  1.719281e-07
    419    421   2   0.50000    -0.5000000   -0.1200000   1.095425e-03  1.218041e-06
    419    432   2   0.50000    -0.5000000    0.0600000   2.691455e-04  1.090642e-07
    419    433   2   0.50000    -0.5000000    0.0600000   2.691455e-04  1.090642e-07
    418    422   2   0.50000     0.5000000   -0.1200000   1.575021e-03  3.561100e-06
    418    434   2   0.50000     0.5000000    0.0600000   3.869820e-04  3.188634e-07
    418    435   2   0.50000     0.5000000    0.0600000   3.869820e-04  3.188634e-07
    432    422   2   0.50000     0.0600000   -0.1200000   2.494471e-04  1.671101e-07
    432    434   2   0.50000     0.0600000    0.0600000   6.128906e-05  1.496315e-08
    432    435   2   0.50000     0.0600000    0.0600000   6.128906e-05  1.496315e-08
    433    422   2   0.50000     0.0600000   -0.1200000   2.494471e-04  1.671101e-07
    433    434   2   0.50000     0.0600000    0.0600000   6.128906e-05  1.496315e-08
    433    435   2   0.50000     0.0600000    0.0600000   6.128906e-05  1.496315e-08
    420    423   2   0.50000    -0.1200000   -0.1200000   1.015252e-03  1.866303e-06
    420    436   2   0.50000    -0.1200000    0.0600000   2.494471e-04  1.671101e-07
    420    437   2   0.50000    -0.1200000    0.0600000   2.494471e-04  1.671101e-07
    434    423   2   0.50000     0.0600000   -0.1200000   2.494471e-04  1.671101e-07
    434    436   2   0.50000     0.0600000    0.0600000   6.128906e-05  1.496315e-08
    434    437   2   0.50000     0.0600000    0.0600000   6.128906e-05  1.496315e-08
    435    423   2   0.50000     0.0600000   -0.1200000   2.494471e-04  1.671101e-07
    435    436   2   0.50000     0.0600000    0.0600000   6.128906e-05  1.496315e-08
    435    437   2   0.50000     0.0600000    0.0600000   6.128906e-05  1.496315e-08
    421    424   2   0.50000    -0.1200000    0.5000000   1.575021e-03  3.561100e-06
    421    438   2   0.50000    -0.1200000    0.0600000   2.494471e-04  1.671101e-07
    421    439   2   0.50000    -0.1200000    0.0600000   2.494471e-04  1.671101e-07
    436    424   2   0.50000     0.0600000    0.5000000   3.869820e-04  3.188634e-07
    436    438   2   0.50000     0.0600000    0.0600000   6.128906e-05  1.496315e-08
    436    439   2   0.50000     0.0600000    0.0600000   6.128906e-05  1.496315e-08
    437    424   2   0.50000     0.0600000    0.5000000   3.869820e-04  3.188634e-07
    437    438   2   0.50000     0.0600000    0.0600000   6.128906e-05  1.496315e-08
    437    439   2   0.50000     0.0600000    0.0600000   6.128906e-05  1.496315e-08
    422    425   2   0.50000    -0.1200000   -0.5000000   1.095425e-03  1.218041e-06
    422    426   2   0.50000    -0.1200000   -0.5000000   1.304585e-03  1.920112e-06
    438    425   2   0.50000     0.0600000   -0.5000000   2.691455e-04  1.090642e-07
    438    426   2   0.50000     0.0600000   -0.5000000   3.205360e-04  1.719281e-07
    439    425   2   0.50000     0.0600000   -0.5000000   2.691455e-04  1.090642e-07
    439    426   2   0.50000     0.0600000   -0.5000000   3.205360e-04  1.719281e-07
    423    427   2   0.50000    -0.1200000    0.0800000   1.015252e-03  1.866303e-06
    423    440   2   0.50000    -0.1200000    0.3000000   1.995577e-06  1.069504e-11
    425    427   2   0.50000    -0.5000000    0.0800000   1.095425e-03  1.218041e-06
    425    440   2   0.50000    -0.5000000    0.3000000   2.153164e-06  6.980110e-12
    424    428   2   0.50000     0.5000000   -0.1200000   1.575021e-03  3.561100e-06
    424    441   2   0.50000     0.5000000    0.0600000   3.869820e-04  3.188634e-07
    424    442   2   0.50000     0.5000000    0.0600000   3.869820e-04  3.188634e-07
    440    428   2   0.50000     0.3000000   -0.1200000   1.995577e-06  1.069504e-11
    440    441   2   0.50000     0.3000000    0.0600000   4.903125e-07  9.576416e-13
    440    442   2   0.50000     0.3000000    0.0600000   4.903125e-07  9.576416e-13
    426    429   2   0.50000    -0.5000000   -0.1200000   1.304585e-03  1.920112e-06
    426    443   2   0.50000    -0.5000000    0.0600000   3.205360e-04  1.719281e-07
    426    444   2   0.50000    -0.5000000    0.0600000   3.205360e-04  1.719281e-07
    441    429   2   0.50000     0.0600000   -0.1200000   2.494471e-04  1.671101e-07
    441    443   2   0.50000     0.0600000    0.0600000   6.128906e-05  1.496315e-08
    441    444   2   0.50000     0.0600000    0.0600000   6.128906e-05  1.496315e-08
    442    429   2   0.50000     0.0600000   -0.1200000   2.494471e-04  1.671101e-07
    442    443   2   0.50000     0.0600000    0.0600000   6.128906e-05  1.496315e-08
    442    444   2   0.50000     0.0600000    0.0600000   6.128906e-05  1.496315e-08
    427    430   2   0.50000     0.0800000    0.0800000   1.015252e-03  1.866303e-06
    427    445   2   0.50000     0.0800000    0.0600000   2.494471e-04  1.671101e-07
    427    446   2   0.50000     0.0800000    0.0600000   2.494471e-04  1.671101e-07
    443    430   2   0.50000     0.0600000    0.0800000   2.494471e-04  1.671101e-07
    443    445   2   0.50000     0.0600000    0.0600000   6.128906e-05  1.496315e-08
    443    446   2   0.50000     0.0600000    0.0600000   6.128906e-05  1.496315e-08
    444    430   2   0.50000     0.0600000    0.0800000   2.494471e-04  1.671101e-07
    444    445   2   0.50000     0.0600000    0.0600000   6.128906e-05  1.496315e-08
    444    446   2   0.50000     0.0600000    0.0600000   6.128906e-05  1.496315e-08
    428    431   2   0.50000    -0.1200000   -0.5000000   1.304585e-03  1.920112e-06
    428    447   2   0.50000    -0.1200000    0.0600000   2.494471e-04  1.671101e-07
    428    448   2   0.50000    -0.1200000    0.0600000   2.494471e-04  1.671101e-07
    445    431   2   0.50000     0.0600000   -0.5000000   3.205360e-04  1.719281e-07
    445    447   2   0.50000     0.0600000    0.0600000   6.128906e-05  1.496315e-08
    445    448   2   0.50000     0.0600000    0.0600000   6.128906e-05  1.496315e-08
    446    431   2   0.50000     0.0600000   -0.5000000   3.205360e-04  1.719281e-07
    446    447   2   0.50000     0.0600000    0.0600000   6.128906e-05  1.496315e-08
    446    448   2   0.50000     0.0600000    0.0600000   6.128906e-05  1.496315e-08
    429    449   2   0.50000    -0.1200000    0.3000000   1.995577e-06  1.069504e-11
    429    450   2   0.50000    -0.1200000    0.5000000   1.575021e-03  3.561100e-06
    447    449   2   0.50000     0.0600000    0.3000000   4.903125e-07  9.576416e-13
    447    450   2   0.50000     0.0600000    0.5000000   3.869820e-04  3.188634e-07
    448    449   2   0.50000     0.0600000    0.3000000   4.903125e-07  9.576416e-13
    448    450   2   0.50000     0.0600000    0.5000000   3.869820e-04  3.188634e-07
    430    451   2   0.50000     0.0800000   -0.5000000   1.095425e-03  1.218041e-06
    430    452   2   0.50000     0.0800000   -0.1200000   1.015252e-03  1.866303e-06
    449    451   2   0.50000     0.3000000   -0.5000000   2.153164e-06  6.980110e-12
    449    452   2   0.50000     0.3000000   -0.1200000   1.995577e-06  1.069504e-11
    431    453   2   0.50000    -0.5000000   -0.1200000   1.304585e-03  1.920112e-06
    431    464   2   0.50000    -0.5000000    0.0600000   3.205360e-04  1.719281e-07
    431    465   2   0.50000    -0.5000000    0.0600000   3.205360e-04  1.719281e-07
    451    453   2   0.50000    -0.5000000   -0.1200000   1.095425e-03  1.218041e-06
    451    464   2   0.50000    -0.5000000    0.0600000   2.691455e-04  1.090642e-07
    451    465   2   0.50000    -0.5000000    0.0600000   2.691455e-04  1.090642e-07
    450    454   2   0.50000     0.5000000   -0.1200000   1.575021e-03  3.561100e-06
    450    466   2   0.50000     0.5000000    0.0600000   3.869820e-04  3.188634e-07
    450    467   2   0.50000     0.5000000    0.0600000   3.869820e-04  3.188634e-07
    464    454   2   0.50000     0.0600000   -0.1200000   2.494471e-04  1.671101e-07
    464    466   2   0.50000     0.0600000    0.0600000   6.128906e-05  1.496315e-08
    464    467   2   0.50000     0.0600000    0.0600000   6.128906e-05  1.496315e-08
    465    454   2   0.50000     0.0600000   -0.1200000   2.494471e-04  1.671101e-07
    465    466   2   0.50000     0.0600000    0.0600000   6.128906e-05  1.496315e-08
    465    467   2   0.50000     0.0600000    0.0600000   6.128906e-05  1.496315e-08
    452    455   2   0.50000    -0.1200000   -0.1200000   1.015252e-03  1.866303e-06
    452    468   2   0.50000    -0.1200000    0.0600000   2.494471e-04  1.671101e-07
    452    469   2   0.50000    -0.1200000    0.0600000   2.494471e-04  1.671101e-07
    466    455   2   0.50000     0.0600000   -0.1200000   2.494471e-04  1.671101e-07
    466    468   2   0.50000     0.0600000    0.0600000   6.128906e-05  1.496315e-08
    466    469   2   0.50000     0.0600000    0.0600000   6.128906e-05  1.496315e-08
    467    455   2   0.50000     0.0600000   -0.1200000   2.494471e-04  1.671101e-07
    467    468   2   0.50000     0.0600000    0.0600000   6.128906e-05  1.496315e-08
    467    469   2   0.50000     0.0600000    0.0600000   6.128906e-05  1.496315e-08
    453    456   2   0.50000    -0.1200000    0.5000000   1.575021e-03  3.561100e-06
    453    470   2   0.50000    -0.1200000    0.0600000   2.494471e-04  1.671101e-07
    453    471   2   0.50000    -0.1200000    0.0600000   2.494471e-04  1.671101e-07
    468    456   2   0.50000     0.0600000    0.5000000   3.869820e-04  3.188634e-07
    468    470   2   0.50000     0.0600000    0.0600000   6.128906e-05  1.496315e-08
    468    471   2   0.50000     0.0600000    0.0600000   6.128906e-05  1.496315e-08
    469    456   2   0.50000     0.0600000    0.5000000   3.869820e-04  3.188634e-07
    469    470   2   0.50000     0.0600000    0.0600000   6.128906e-05  1.496315e-08
    469    471   2   0.50000     0.0600000    0.0600000   6.128906e-05  1.496315e-08
    454    457   2   0.50000    -0.1200000   -0.5000000   1.095425e-03  1.218041e-06
    454    458   2   0.50000    -0.1200000   -0.5000000   1.304585e-03  1.920112e-06
    470    457   2   0.50000     0.0600000   -0.5000000   2.691455e-04  1.090642e-07
    470    458   2   0.50000     0.0600000   -0.5000000   3.205360e-04  1.719281e-07
    471    457   2   0.50000     0.0600000   -0.5000000   2.691455e-04  1.090642e-07
    471    458   2   0.50000     0.0600000   -0.5000000   3.205360e-04  1.719281e-07
    455    459   2   0.50000    -0.1200000    0.0800000   1.015252e-03  1.866303e-06
    455    472   2   0.50000    -0.1200000    0.3000000   1.995577e-06  1.069504e-11
    457    459   2   0.50000    -0.5000000    0.0800000   1.095425e-03  1.218041e-06
    457    472   2   0.50000    -0.5000000    0.3000000   2.153164e-06  6.980110e-12
    456    460   2   0.50000     0.5000000   -0.1200000   1.575021e-03  3.561100e-06
    456    473   2   0.50000     0.5000000    0.0600000   3.869820e-04  3.188634e-07
    456    474   2   0.50000     0.5000000    0.0600000   3.869820e-04  3.188634e-07
    472    460   2   0.50000     0.3000000   -0.1200000   1.995577e-06  1.069504e-11
    472    473   2   0.50000     0.3000000    0.0600000   4.903125e-07  9.576416e-13
    472    474   2   0.50000     0.3000000    0.0600000   4.903125e-07  9.576416e-13
    458    461   2   0.50000    -0.5000000   -0.1200000   1.304585e-03  1.920112e-06
    458    475   2   0.50000    -0.5000000    0.0600000   3.205360e-04  1.719281e-07
    458    476   2   0.50000    -0.5000000    0.0600000   3.205360e-04  1.719281e-07
    473    461   2   0.50000     0.0600000   -0.1200000   2.494471e-04  1.671101e-07
    473    475   2   0.50000     0.0600000    0.0600000   6.128906e-05  1.496315e-08
    473    476   2   0.50000     0.0600000    0.0600000   6.128906e-05  1.496315e-08
    474    461   2   0.50000     0.0600000   -0.1200000   2.494471e-04  1.671101e-07
    474    475   2   0.50000     0.0600000    0.0600000   6.128906e-05  1.496315e-08
    474    476   2   0.50000     0.0600000    0.0600000   6.128906e-05  1.496315e-08
    459    462   2   0.50000     0.0800000    0.0800000   1.015252e-03  1.866303e-06
    459    477   2   0.50000     0.0800000    0.0600000   2.494471e-04  1.671101e-07
    459    478   2   0.50000     0.0800000    0.0600000   2.494471e-04  1.671101e-07
    475    462   2   0.50000     0.0600000    0.0800000   2.494471e-04  1.671101e-07
    475    477   2   0.50000     0.0600000    0.0600000   6.128906e-05  1.496315e-08
    475    478   2   0.50000     0.0600000    0.0600000   6.128906e-05  1.496315e-08
    476    462   2   0.50000     0.0600000    0.0800000   2.494471e-04  1.671101e-07
    476    477   2   0.50000     0.0600000    0.0600000   6.128906e-05  1.496315e-08
    476    478   2   0.50000     0.0600000    0.0600000   6.128906e-05  1.496315e-08
    460    463   2   0.50000    -0.1200000   -0.5000000   1.304585e-03  1.920112e-06
    460    479   2   0.50000    -0.1200000    0.0600000   2.494471e-04  1.671101e-07
    460    480   2   0.50000    -0.1200000    0.0600000   2.494471e-04  1.671101e-07
    477    463   2   0.50000     0.0600000   -0.5000000   3.205360e-04  1.719281e-07
    477    479   2   0.50000     0.0600000    0.0600000   6.128906e-05  1.496315e-08
    477    480   2   0.50000     0.0600000    0.0600000   6.128906e-05  1.496315e-08
    478    463   2   0.50000     0.0600000   -0.5000000   3.205360e-04  1.719281e-07
    478    479   2   0.50000     0.0600000    0.0600000   6.128906e-05  1.496315e-08
    478    480   2   0.50000     0.0600000    0.0600000   6.128906e-05  1.496315e-08
    461    481   2   0.50000    -0.1200000    0.3000000   1.995577e-06  1.069504e-11
    461    482   2   0.50000    -0.1200000    0.5000000   1.575021e-03  3.561100e-06
    479    481   2   0.50000     0.0600000    0.3000000   4.903125e-07  9.576416e-13
    479    482   2   0.50000     0.0600000    0.5000000   3.869820e-04  3.188634e-07
    480    481   2   0.50000     0.0600000    0.3000000   4.903125e-07  9.576416e-13
    480    482   2   0.50000     0.0600000    0.5000000   3.869820e-04  3.188634e-07
    462    483   2   0.50000     0.0800000   -0.5000000   1.095425e-03  1.218041e-06
    462    484   2   0.50000     0.0800000   -0.1200000   1.015252e-03  1.866303e-06
    481    483   2   0.50000     0.3000000   -0.5000000   2.153164e-06  6.980110e-12
    481    484   2   0.50000     0.3000000   -0.1200000   1.995577e-06  1.069504e-11
    463    485   2   0.50000    -0.5000000   -0.1200000   1.304585e-03  1.920112e-06
    463    496   2   0.50000    -0.5000000    0.0600000   3.205360e-04  1.719281e-07
    463    497   2   0.50000    -0.5000000    0.0600000   3.205360e-04  1.719281e-07
    483    485   2   0.50000    -0.5000000   -0.1200000   1.095425e-03  1.218041e-06
    483    496   2   0.50000    -0.5000000    0.0600000   2.691455e-04  1.090642e-07
    483    497   2   0.50000    -0.5000000    0.0600000   2.691455e-04  1.090642e-07
    482    486   2   0.50000     0.5000000   -0.1200000   1.575021e-03  3.561100e-06
    482    498   2   0.50000     0.5000000    0.0600000   3.869820e-04  3.188634e-07
    482    499   2   0.50000     0.5000000    0.0600000   3.869820e-04  3.188634e-07
    496    486   2   0.50000     0.0600000   -0.1200000   2.494471e-04  1.671101e-07
    496    498   2   0.50000     0.0600000    0.0600000   6.128906e-05  1.496315e-08
    496    499   2   0.50000     0.0600000    0.0600000   6.128906e-05  1.496315e-08
    497    486   2   0.50000     0.0600000   -0.1200000   2.494471e-04  1.671101e-07
    497    498   2   0.50000     0.0600000    0.0600000   6.128906e-05  1.496315e-08
    497    499   2   0.50000     0.0600000    0.0600000   6.128906e-05  1.496315e-08
    484    487   2   0.50000    -0.1200000   -0.1200000   1.015252e-03  1.866303e-06
    484    500   2   0.50000    -0.1200000    0.0600000   2.494471e-04  1.671101e-07
    484    501   2   0.50000    -0.1200000    0.0600000   2.494471e-04  1.671101e-07
    498    487   2   0.50000     0.0600000   -0.1200000   2.494471e-04  1.671101e-07
    498    500   2   0.50000     0.0600000    0.0600000   6.128906e-05  1.496315e-08
    498    501   2   0.50000     0.0600000    0.0600000   6.128906e-05  1.496315e-08
    499    487   2   0.50000     0.0600000   -0.1200000   2.494471e-04  1.671101e-07
    499    500   2   0.50000     0.0600000    0.0600000   6.128906e-05  1.496315e-08
    499    501   2   0.50000     0.0600000    0.0600000   6.128906e-05  1.496315e-08
    485    488   2   0.50000    -0.1200000    0.5000000   1.575021e-03  3.561100e-06
    485    502   2   0.50000    -0.1200000    0.0600000   2.494471e-04  1.671101e-07
    485    503   2   0.50000    -0.1200000    0.0600000   2.494471e-04  1.671101e-07
    500    488   2   0.50000     0.0600000    0.5000000   3.869820e-04  3.188634e-07
    500    502   2   0.50000     0.0600000    0.0600000   6.128906e-05  1.496315e-08
    500    503   2   0.50000     0.0600000    0.0600000   6.128906e-05  1.496315e-08
    501    488   2   0.50000     0.0600000    0.5000000   3.869820e-04  3.188634e-07
    501    502   2   0.50000     0.0600000    0.0600000   6.128906e-05  1.496315e-08
    501    503   2   0.50000     0.0600000    0.0600000   6.128906e-05  1.496315e-08
    486    489   2   0.50000    -0.1200000   -0.5000000   1.095425e-03  1.218041e-06
    486    490   2   0.50000    -0.1200000   -0.5000000   1.304585e-03  1.920112e-06
    502    489   2   0.50000     0.0600000   -0.5000000   2.691455e-04  1.090642e-07
    502    490   2   0.50000     0.0600000   -0.5000000   3.205360e-04  1.719281e-07
    503    489   2   0.50000     0.0600000   -0.5000000   2.691455e-04  1.090642e-07
    503    490   2   0.50000     0.0600000   -0.5000000   3.205360e-04  1.719281e-07
    487    491   2   0.50000    -0.1200000    0.0800000   1.015252e-03  1.866303e-06
    487    504   2   0.50000    -0.1200000    0.3000000   1.995577e-06  1.069504e-11
    489    491   2   0.50000    -0.5000000    0.0800000   1.095425e-03  1.218041e-06
    489    504   2   0.50000    -0.5000000    0.3000000   2.153164e-06  6.980110e-12
    488    492   2   0.50000     0.5000000   -0.1200000   1.575021e-03  3.561100e-06
    488    505   2   0.50000     0.5000000    0.0600000   3.869820e-04  3.188634e-07
    488    506   2   0.50000     0.5000000    0.0600000   3.869820e-04  3.188634e-07
    504    492   2   0.50000     0.3000000   -0.1200000   1.995577e-06  1.069504e-11
    504    505   2   0.50000     0.3000000    0.0600000   4.903125e-07  9.576416e-13
    504    506   2   0.50000     0.3000000    0.0600000   4.903125e-07  9.576416e-13
    490    493   2   0.50000    -0.5000000   -0.1200000   1.304585e-03  1.920112e-06
    490    507   2   0.50000    -0.5000000    0.0600000   3.205360e-04  1.719281e-07
    490    508   2   0.50000    -0.5000000    0.0600000   3.205360e-04  1.719281e-07
    505    493   2   0.50000     0.0600000   -0.1200000   2.494471e-04  1.671101e-07
    505    507   2   0.50000     0.0600000    0.0600000   6.128906e-05  1.496315e-08
    505    508   2   0.50000     0.0600000    0.0600000   6.128906e-05  1.496315e-08
    506    493   2   0.50000     0.0600000   -0.1200000   2.494471e-04  1.671101e-07
    506    507   2   0.50000     0.0600000    0.0600000   6.128906e-05  1.496315e-08
    506    508   2   0.50000     0.0600000    0.0600000   6.128906e-05  1.496315e-08
    491    494   2   0.50000     0.0800000    0.0800000   1.015252e-03  1.866303e-06
    491    509   2   0.50000     0.0800000    0.0600000   2.494471e-04  1.671101e-07
    491    510   2   0.50000     0.0800000    0.0600000   2.494471e-04  1.671101e-07
    507    494   2   0.50000     0.0600000    0.0800000   2.494471e-04  1.671101e-07
    507    509   2   0.50000     0.0600000    0.0600000   6.128906e-05  1.496315e-08
    507    510   2   0.50000     0.0600000    0.0600000   6.128906e-05  1.496315e-08
    508    494   2   0.50000     0.0600000    0.0800000   2.494471e-04  1.671101e-07
    508    509   2   0.50000     0.0600000    0.0600000   6.128906e-05  1.496315e-08
    508    510   2   0.50000     0.0600000    0.0600000   6.128906e-05  1.496315e-08
    492    495   2   0.50000    -0.1200000   -0.5000000   1.304585e-03  1.920112e-06
    492    511   2   0.50000    -0.1200000    0.0600000   2.494471e-04  1.671101e-07
    492    512   2   0.50000    -0.1200000    0.0600000   2.494471e-04  1.671101e-07
    509    495   2   0.50000     0.0600000   -0.5000000   3.205360e-04  1.719281e-07
    509    511   2   0.50000     0.0600000    0.0600000   6.128906e-05  1.496315e-08
    509    512   2   0.50000     0.0600000    0.0600000   6.128906e-05  1.496315e-08
    510    495   2   0.50000     0.0600000   -0.5000000   3.205360e-04  1.719281e-07
    510    511   2   0.50000     0.0600000    0.0600000   6.128906e-05  1.496315e-08
    510    512   2   0.50000     0.0600000    0.0600000   6.128906e-05  1.496315e-08
    493    513   2   0.50000    -0.1200000    0.3000000   1.995577e-06  1.069504e-11
    493    514   2   0.50000    -0.1200000    0.5000000   1.575021e-03  3.561100e-06
    511    513   2   0.50000     0.0600000    0.3000000   4.903125e-07  9.576416e-13
    511    514   2   0.50000     0.0600000    0.5000000   3.869820e-04  3.188634e-07
    512    513   2   0.50000     0.0600000    0.3000000   4.903125e-07  9.576416e-13
    512    514   2   0.50000     0.0600000    0.5000000   3.869820e-04  3.188634e-07
    494    515   2   0.50000     0.0800000   -0.5000000   1.095425e-03  1.218041e-06
    494    516   2   0.50000     0.0800000   -0.1200000   1.015252e-03  1.866303e-06
    513    515   2   0.50000     0.3000000   -0.5000000   2.153164e-06  6.980110e-12
    513    516   2   0.50000     0.3000000   -0.1200000   1.995577e-06  1.069504e-11
    495    517   2   0.50000    -0.5000000   -0.1200000   1.304585e-03  1.920112e-06
    495    528   2   0.50000    -0.5000000    0.0600000   3.205360e-04  1.719281e-07
    495    529   2   0.50000    -0.5000000    0.0600000   3.205360e-04  1.719281e-07
    515    517   2   0.50000    -0.5000000   -0.1200000   1.095425e-03  1.218041e-06
    515    528   2   0.50000    -0.5000000    0.0600000   2.691455e-04  1.090642e-07
    515    529   2   0.50000    -0.5000000    0.0600000   2.691455e-04  1.090642e-07
    514    518   2   0.50000     0.5000000   -0.1200000   1.575021e-03  3.561100e-06
    514    530   2   0.50000     0.5000000    0.0600000   3.869820e-04  3.188634e-07
    514    531   2   0.50000     0.5000000    0.0600000   3.869820e-04  3.188634e-07
    528    518   2   0.50000     0.0600000   -0.1200000   2.494471e-04  1.671101e-07
    528    530   2   0.50000     0.0600000    0.0600000   6.128906e-05  1.496315e-08
    528    531   2   0.50000     0.0600000    0.0600000   6.128906e-05  1.496315e-08
    529    518   2   0.50000     0.0600000   -0.1200000   2.494471e-04  1.671101e-07
    529    530   2   0.50000     0.0600000    0.0600000   6.128906e-05  1.496315e-08
    529    531   2   0.50000     0.0600000    0.0600000   6.128906e-05  1.496315e-08
    516    519   2   0.50000    -0.1200000   -0.1200000   1.015252e-03  1.866303e-06
    516    532   2   0.50000    -0.1200000    0.0600000   2.494471e-04  1.671101e-07
    516    533   2   0.50000    -0.1200000    0.0600000   2.494471e-04  1.671101e-07
    530    519   2   0.50000     0.0600000   -0.1200000   2.494471e-04  1.671101e-07
    530    532   2   0.50000     0.0600000    0.0600000   6.128906e-05  1.496315e-08
    530    533   2   0.50000     0.0600000    0.0600000   6.128906e-05  1.496315e-08
    531    519   2   0.50000     0.0600000   -0.1200000   2.494471e-04  1.671101e-07
    531    532   2   0.50000     0.0600000    0.0600000   6.128906e-05  1.496315e-08
    531    533   2   0.50000     0.0600000    0.0600000   6.128906e-05  1.496315e-08
    517    520   2   0.50000    -0.1200000    0.5000000   1.575021e-03  3.561100e-06
    517    534   2   0.50000    -0.1200000    0.0600000   2.494471e-04  1.671101e-07
    517    535   2   0.50000    -0.1200000    0.0600000   2.494471e-04  1.671101e-07
    532    520   2   0.50000     0.0600000    0.5000000   3.869820e-04  3.188634e-07
    532    534   2   0.50000     0.0600000    0.0600000   6.128906e-05  1.496315e-08
    532    535   2   0.50000     0.0600000    0.0600000   6.128906e-05  1.496315e-08
    533    520   2   0.50000     0.0600000    0.5000000   3.869820e-04  3.188634e-07
    533    534   2   0.50000     0.0600000    0.0600000   6.128906e-05  1.496315e-08
    533    535   2   0.50000     0.0600000    0.0600000   6.128906e-05  1.496315e-08
    518    521   2   0.50000    -0.1200000   -0.5000000   1.095425e-03  1.218041e-06
    518    522   2   0.50000    -0.1200000   -0.5000000   1.304585e-03  1.920112e-06
    534    521   2   0.50000     0.0600000   -0.5000000   2.691455e-04  1.090642e-07
    534    522   2   0.50000     0.0600000   -0.5000000   3.205360e-04  1.719281e-07
    535    521   2   0.50000     0.0600000   -0.5000000   2.691455e-04  1.090642e-07
    535    522   2   0.50000     0.0600000   -0.5000000   3.205360e-04  1.719281e-07
    519    523   2   0.50000    -0.1200000    0.0800000   1.015252e-03  1.866303e-06
    519    536   2   0.50000    -0.1200000    0.3000000   1.995577e-06  1.069504e-11
    521    523   2   0.50000    -0.5000000    0.0800000   1.095425e-03  1.218041e-06
    521    536   2   0.50000    -0.5000000    0.3000000   2.153164e-06  6.980110e-12
    520    524   2   0.50000     0.5000000   -0.1200000   1.575021e-03  3.561100e-06
    520    537   2   0.50000     0.5000000    0.0600000   3.869820e-04  3.188634e-07
    520    538   2   0.50000     0.5000000    0.0600000   3.869820e-04  3.188634e-07
    536    524   2   0.50000     0.3000000   -0.1200000   1.995577e-06  1.069504e-11
    536    537   2   0.50000     0.3000000    0.0600000   4.903125e-07  9.576416e-13
    536    538   2   0.50000     0.3000000    0.0600000   4.903125e-07  9.576416e-13
    522    525   2   0.50000    -0.5000000   -0.1200000   1.304585e-03  1.920112e-06
    522    539   2   0.50000    -0.5000000    0.0600000   3.205360e-04  1.719281e-07
    522    540   2   0.50000    -0.5000000    0.0600000   3.205360e-04  1.719281e-07
    537    525   2   0.50000     0.0600000   -0.1200000   2.494471e-04  1.671101e-07
    537    539   2   0.50000     0.0600000    0.0600000   6.128906e-05  1.496315e-08
    537    540   2   0.50000     0.0600000    0.0600000   6.128906e-05  1.496315e-08
    538    525   2   0.50000     0.0600000   -0.1200000   2.494471e-04  1.671101e-07
    538    539   2   0.50000     0.0600000    0.0600000   6.128906e-05  1.496315e-08
    538    540   2   0.50000     0.0600000    0.0600000   6.128906e-05  1.496315e-08
    523    526   2   0.50000     0.0800000    0.0800000   1.015252e-03  1.866303e-06
    523    541   2   0.50000     0.0800000    0.0600000   2.494471e-04  1.671101e-07
    523    542   2   0.50000     0.0800000    0.0600000   2.494471e-04  1.671101e-07
    539    526   2   0.50000     0.0600000    0.0800000   2.494471e-04  1.671101e-07
    539    541   2   0.50000     0.0600000    0.0600000   6.128906e-05  1.496315e-08
    539    542   2   0.50000     0.0600000    0.0600000   6.128906e-05  1.496315e-08
    540    526   2   0.50000     0.0600000    0.0800000   2.494471e-04  1.671101e-07
    540    541   2   0.50000     0.0600000    0.0600000   6.128906e-05  1.496315e-08
    540    542   2   0.50000     0.0600000    0.0600000   6.128906e-05  1.496315e-08
    524    527   2   0.50000    -0.1200000   -0.5000000   1.304585e-03  1.920112e-06
    524    543   2   0.50000    -0.1200000    0.0600000   2.494471e-04  1.671101e-07
    524    544   2   0.50000    -0.1200000    0.0600000   2.494471e-04  1.671101e-07
    541    527   2   0.50000     0.0600000   -0.5000000   3.205360e-04  1.719281e-07
    541    543   2   0.50000     0.0600000    0.0600000   6.128906e-05  1.496315e-08
    541    544   2   0.50000     0.0600000    0.0600000   6.128906e-05  1.496315e-08
    542    527   2   0.50000     0.0600000   -0.5000000   3.205360e-04  1.719281e-07
    542    543   2   0.50000     0.0600000    0.0600000   6.128906e-05  1.496315e-08
    542    544   2   0.50000     0.0600000    0.0600000   6.128906e-05  1.496315e-08
    525    545   2   0.50000    -0.1200000    0.3000000   1.995577e-06  1.069504e-11
    525    546   2   0.50000    -0.1200000    0.5000000   1.575021e-03  3.561100e-06
    543    545   2   0.50000     0.0600000    0.3000000   4.903125e-07  9.576416e-13
    543    546   2   0.50000     0.0600000    0.5000000   3.869820e-04  3.188634e-07
    544    545   2   0.50000     0.0600000    0.3000000   4.903125e-07  9.576416e-13
    544    546   2   0.50000     0.0600000    0.5000000   3.869820e-04  3.188634e-07
    526    547   2   0.50000     0.0800000   -0.5000000   1.095425e-03  1.218041e-06
    526    548   2   0.50000     0.0800000   -0.1200000   1.015252e-03  1.866303e-06
    545    547   2   0.50000     0.3000000   -0.5000000   2.153164e-06  6.980110e-12
    545    548   2   0.50000     0.3000000   -0.1200000   1.995577e-06  1.069504e-11
    527    549   2   0.50000    -0.5000000   -0.1200000   1.304585e-03  1.920112e-06
    527    560   2   0.50000    -0.5000000    0.0600000   3.205360e-04  1.719281e-07
    527    561   2   0.50000    -0.5000000    0.0600000   3.205360e-04  1.719281e-07
    547    549   2   0.50000    -0.5000000   -0.1200000   1.095425e-03  1.218041e-06
    547    560   2   0.50000    -0.5000000    0.0600000   2.691455e-04  1.090642e-07
    547    561   2   0.50000    -0.5000000    0.0600000   2.691455e-04  1.090642e-07
    546    550   2   0.50000     0.5000000   -0.1200000   1.575021e-03  3.561100e-06
    546    562   2   0.50000     0.5000000    0.0600000   3.869820e-04  3.188634e-07
    546    563   2   0.50000     0.5000000    0.0600000   3.869820e-04  3.188634e-07
    560    550   2   0.50000     0.0600000   -0.1200000   2.494471e-04  1.671101e-07
    560    562   2   0.50000     0.0600000    0.0600000   6.128906e-05  1.496315e-08
    560    563   2   0.50000     0.0600000    0.0600000   6.128906e-05  1.496315e-08
    561    550   2   0.50000     0.0600000   -0.1200000   2.494471e-04  1.671101e-07
    561    562   2   0.50000     0.0600000    0.0600000   6.128906e-05  1.496315e-08
    561    563   2   0.50000     0.0600000    0.0600000   6.128906e-05  1.496315e-08
    548    551   2   0.50000    -0.1200000   -0.1200000   1.015252e-03  1.866303e-06
    548    564   2   0.50000    -0.1200000    0.0600000   2.494471e-04  1.671101e-07
    548    565   2   0.50000    -0.1200000    0.0600000   2.494471e-04  1.671101e-07
    562    551   2   0.50000     0.0600000   -0.1200000   2.494471e-04  1.671101e-07
    562    564   2   0.50000     0.0600000    0.0600000   6.128906e-05  1.496315e-08
    562    565   2   0.50000     0.0600000    0.0600000   6.128906e-05  1.496315e-08
    563    551   2   0.50000     0.0600000   -0.1200000   2.494471e-04  1.671101e-07
    563    564   2   0.50000     0.0600000    0.0600000   6.128906e-05  1.496315e-08
    563    565   2   0.50000     0.0600000    0.0600000   6.128906e-05  1.496315e-08
    549    552   2   0.50000    -0.1200000    0.5000000   1.575021e-03  3.561100e-06
    549    566   2   0.50000    -0.1200000    0.0600000   2.494471e-04  1.671101e-07
    549    567   2   0.50000    -0.1200000    0.0600000   2.494471e-04  1.671101e-07
    564    552   2   0.50000     0.0600000    0.5000000   3.869820e-04  3.188634e-07
    564    566   2   0.50000     0.0600000    0.0600000   6.128906e-05  1.496315e-08
    564    567   2   0.50000     0.0600000    0.0600000   6.128906e-05  1.496315e-08
    565    552   2   0.50000     0.0600000    0.5000000   3.869820e-04  3.188634e-07
    565    566   2   0.50000     0.0600000    0.0600000   6.128906e-05  1.496315e-08
    565    567   2   0.50000     0.0600000    0.0600000   6.128906e-05  1.496315e-08
    550    553   2   0.50000    -0.1200000   -0.5000000   1.095425e-03  1.218041e-06
    550    554   2   0.50000    -0.1200000   -0.5000000   1.304585e-03  1.920112e-06
    566    553   2   0.50000     0.0600000   -0.5000000   2.691455e-04  1.090642e-07
    566    554   2   0.50000     0.0600000   -0.5000000   3.205360e-04  1.719281e-07
    567    553   2   0.50000     0.0600000   -0.5000000   2.691455e-04  1.090642e-07
    567    554   2   0.50000     0.0600000   -0.5000000   3.205360e-04  1.719281e-07
    551    555   2   0.50000    -0.1200000    0.0800000   1.015252e-03  1.866303e-06
    551    568   2   0.50000    -0.1200000    0.3000000   1.995577e-06  1.069504e-11
    553    555   2   0.50000    -0.5000000    0.0800000   1.095425e-03  1.218041e-06
    553    568   2   0.50000    -0.5000000    0.3000000   2.153164e-06  6.980110e-12
    552    556   2   0.50000     0.5000000   -0.1200000   1.575021e-03  3.561100e-06
    552    569   2   0.50000     0.5000000    0.0600000   3.869820e-04  3.188634e-07
    552    570   2   0.50000     0.5000000    0.0600000   3.869820e-04  3.188634e-07
    568    556   2   0.50000     0.3000000   -0.1200000   1.995577e-06  1.069504e-11
    568    569   2   0.50000     0.3000000    0.0600000   4.903125e-07  9.576416e-13
    568    570   2   0.50000     0.3000000    0.0600000   4.903125e-07  9.576416e-13
    554    557   2   0.50000    -0.5000000   -0.1200000   1.304585e-03  1.920112e-06
    554    571   2   0.50000    -0.5000000    0.0600000   3.205360e-04  1.719281e-07
    554    572   2   0.50000    -0.5000000    0.0600000   3.205360e-04  1.719281e-07
    569    557   2   0.50000     0.0600000   -0.1200000   2.494471e-04  1.671101e-07
    569    571   2   0.50000     0.0600000    0.0600000   6.128906e-05  1.496315e-08
    569    572   2   0.50000     0.0600000    0.0600000   6.128906e-05  1.496315e-08
    570    557   2   0.50000     0.0600000   -0.1200000   2.494471e-04  1.671101e-07
    570    571   2   0.50000     0.0600000    0.0600000   6.128906e-05  1.496315e-08
    570    572   2   0.50000     0.0600000    0.0600000   6.128906e-05  1.496315e-08
    555    558   2   0.50000     0.0800000    0.0800000   1.015252e-03  1.866303e-06
    555    573   2   0.50000     0.0800000    0.0600000   2.494471e-04  1.671101e-07
    555    574   2   0.50000     0.0800000    0.0600000   2.494471e-04  1.671101e-07
    571    558   2   0.50000     0.0600000    0.0800000   2.494471e-04  1.671101e-07
    571    573   2   0.50000     0.0600000    0.0600000   6.128906e-05  1.496315e-08
    571    574   2   0.50000     0.0600000    0.0600000   6.128906e-05  1.496315e-08
    572    558   2   0.50000     0.0600000    0.0800000   2.494471e-04  1.671101e-07
    572    573   2   0.50000     0.0600000    0.0600000   6.128906e-05  1.496315e-08
    572    574   2   0.50000     0.0600000    0.0600000   6.128906e-05  1.496315e-08
    556    559   2   0.50000    -0.1200000   -0.5000000   1.304585e-03  1.920112e-06
    556    575   2   0.50000    -0.1200000    0.0600000   2.494471e-04  1.671101e-07
    556    576   2   0.50000    -0.1200000    0.0600000   2.494471e-04  1.671101e-07
    573    559   2   0.50000     0.0600000   -0.5000000   3.205360e-04  1.719281e-07
    573    575   2   0.50000     0.0600000    0.0600000   6.128906e-05  1.496315e-08
    573    576   2   0.50000     0.0600000    0.0600000   6.128906e-05  1.496315e-08
    574    559   2   0.50000     0.0600000   -0.5000000   3.205360e-04  1.719281e-07
    574    575   2   0.50000     0.0600000    0.0600000   6.128906e-05  1.496315e-08
    574    576   2   0.50000     0.0600000    0.0600000   6.128906e-05  1.496315e-08
    557    577   2   0.50000    -0.1200000    0.3000000   1.995577e-06  1.069504e-11
    557    578   2   0.50000    -0.1200000    0.5000000   1.575021e-03  3.561100e-06
    575    577   2   0.50000     0.0600000    0.3000000   4.903125e-07  9.576416e-13
    575    578   2   0.50000     0.0600000    0.5000000   3.869820e-04  3.188634e-07
    576    577   2   0.50000     0.0600000    0.3000000   4.903125e-07  9.576416e-13
    576    578   2   0.50000     0.0600000    0.5000000   3.869820e-04  3.188634e-07
    558    579   2   0.50000     0.0800000   -0.5000000   1.095425e-03  1.218041e-06
    558    580   2   0.50000     0.0800000   -0.1200000   1.015252e-03  1.866303e-06
    577    579   2   0.50000     0.3000000   -0.5000000   2.153164e-06  6.980110e-12
    577    580   2   0.50000     0.3000000   -0.1200000   1.995577e-06  1.069504e-11
    559    581   2   0.50000    -0.5000000   -0.1200000   1.304585e-03  1.920112e-06
    559    592   2   0.50000    -0.5000000    0.0600000   3.205360e-04  1.719281e-07
    559    593   2   0.50000    -0.5000000    0.0600000   3.205360e-04  1.719281e-07
    579    581   2   0.50000    -0.5000000   -0.1200000   1.095425e-03  1.218041e-06
    579    592   2   0.50000    -0.5000000    0.0600000   2.691455e-04  1.090642e-07
    579    593   2   0.50000    -0.5000000    0.0600000   2.691455e-04  1.090642e-07
    578    582   2   0.50000     0.5000000   -0.1200000   1.575021e-03  3.561100e-06
    578    594   2   0.50000     0.5000000    0.0600000   3.869820e-04  3.188634e-07
    578    595   2   0.50000     0.5000000    0.0600000   3.869820e-04  3.188634e-07
    592    582   2   0.50000     0.0600000   -0.1200000   2.494471e-04  1.671101e-07
    592    594   2   0.50000     0.0600000    0.0600000   6.128906e-05  1.496315e-08
    592    595   2   0.50000     0.0600000    0.0600000   6.128906e-05  1.496315e-08
    593    582   2   0.50000     0.0600000   -0.1200000   2.494471e-04  1.671101e-07
    593    594   2   0.50000     0.0600000    0.0600000   6.128906e-05  1.496315e-08
    593    595   2   0.50000     0.0600000    0.0600000   6.128906e-05  1.496315e-08
    580    583   2   0.50000    -0.1200000   -0.1200000   1.015252e-03  1.866303e-06
    580    596   2   0.50000    -0.1200000    0.0600000   2.494471e-04  1.671101e-07
    580    597   2   0.50000    -0.1200000    0.0600000   2.494471e-04  1.671101e-07
    594    583   2   0.50000     0.0600000   -0.1200000   2.494471e-04  1.671101e-07
    594    596   2   0.50000     0.0600000    0.0600000   6.128906e-05  1.496315e-08
    594    597   2   0.50000     0.0600000    0.0600000   6.128906e-05  1.496315e-08
    595    583   2   0.50000     0.0600000   -0.1200000   2.494471e-04  1.671101e-07
    595    596   2   0.50000     0.0600000    0.0600000   6.128906e-05  1.496315e-08
    595    597   2   0.50000     0.0600000    0.0600000   6.128906e-05  1.496315e-08
    581    584   2   0.50000    -0.1200000    0.5000000   1.575021e-03  3.561100e-06
    581    598   2   0.50000    -0.1200000    0.0600000   2.494471e-04  1.671101e-07
    581    599   2   0.50000    -0.1200000    0.0600000   2.494471e-04  1.671101e-07
    596    584   2   0.50000     0.0600000    0.5000000   3.869820e-04  3.188634e-07
    596    598   2   0.50000     0.0600000    0.0600000   6.128906e-05  1.496315e-08
    596    599   2   0.50000     0.0600000    0.0600000   6.128906e-05  1.496315e-08
    597    584   2   0.50000     0.0600000    0.5000000   3.869820e-04  3.188634e-07
    597    598   2   0.50000     0.0600000    0.0600000   6.128906e-05  1.496315e-08
    597    599   2   0.50000     0.0600000    0.0600000   6.128906e-05  1.496315e-08
    582    585   2   0.50000    -0.1200000   -0.5000000   1.095425e-03  1.218041e-06
    582    586   2   0.50000    -0.1200000   -0.5000000   1.304585e-03  1.920112e-06
    598    585   2   0.50000     0.0600000   -0.5000000   2.691455e-04  1.090642e-07
    598    586   2   0.50000     0.0600000   -0.5000000   3.205360e-04  1.719281e-07
    599    585   2   0.50000     0.0600000   -0.5000000   2.691455e-04  1.090642e-07
    599    586   2   0.50000     0.0600000   -0.5000000   3.205360e-04  1.719281e-07
    583    587   2   0.50000    -0.1200000    0.0800000   1.015252e-03  1.866303e-06
    583    600   2   0.50000    -0.1200000    0.3000000   1.995577e-06  1.069504e-11
    585    587   2   0.50000    -0.5000000    0.0800000   1.095425e-03  1.218041e-06
    585    600   2   0.50000    -0.5000000    0.3000000   2.153164e-06  6.980110e-12
    584    588   2   0.50000     0.5000000   -0.1200000   1.575021e-03  3.561100e-06
    584    601   2   0.50000     0.5000000    0.0600000   3.869820e-04  3.188634e-07
    584    602   2   0.50000     0.5000000    0.0600000   3.869820e-04  3.188634e-07
    600    588   2   0.50000     0.3000000   -0.1200000   1.995577e-06  1.069504e-11
    600    601   2   0.50000     0.3000000    0.0600000   4.903125e-07  9.576416e-13
    600    602   2   0.50000     0.3000000    0.0600000   4.903125e-07  9.576416e-13
    586    589   2   0.50000    -0.5000000   -0.1200000   1.304585e-03  1.920112e-06
    586    603   2   0.50000    -0.5000000    0.0600000   3.205360e-04  1.719281e-07
    586    604   2   0.50000    -0.5000000    0.0600000   3.205360e-04  1.719281e-07
    601    589   2   0.50000     0.0600000   -0.1200000   2.494471e-04  1.671101e-07
    601    603   2   0.50000     0.0600000    0.0600000   6.128906e-05  1.496315e-08
    601    604   2   0.50000     0.0600000    0.0600000   6.128906e-05  1.496315e-08
    602    589   2   0.50000     0.0600000   -0.1200000   2.494471e-04  1.671101e-07
    602    603   2   0.50000     0.0600000    0.0600000   6.128906e-05  1.496315e-08
    602    604   2   0.50000     0.0600000    0.0600000   6.128906e-05  1.496315e-08
    587    590   2   0.50000     0.0800000    0.0800000   1.015252e-03  1.866303e-06
    587    605   2   0.50000     0.0800000    0.0600000   2.494471e-04  1.671101e-07
    587    606   2   0.50000     0.0800000    0.0600000   2.494471e-04  1.671101e-07
    603    590   2   0.50000     0.0600000    0.0800000   2.494471e-04  1.671101e-07
    603    605   2   0.50000     0.0600000    0.0600000   6.128906e-05  1.496315e-08
    603    606   2   0.50000     0.0600000    0.0600000   6.128906e-05  1.496315e-08
    604    590   2   0.50000     0.0600000    0.0800000   2.494471e-04  1.671101e-07
    604    605   2   0.50000     0.0600000    0.0600000   6.128906e-05  1.496315e-08
    604    606   2   0.50000     0.0600000    0.0600000   6.128906e-05  1.496315e-08
    588    591   2   0.50000    -0.1200000   -0.5000000   1.304585e-03  1.920112e-06
    588    607   2   0.50000    -0.1200000    0.0600000   2.494471e-04  1.671101e-07
    588    608   2   0.50000    -0.1200000    0.0600000   2.494471e-04  1.671101e-07
    605    591   2   0.50000     0.0600000   -0.5000000   3.205360e-04  1.719281e-07
    605    607   2   0.50000     0.0600000    0.0600000   6.128906e-05  1.496315e-08
    605    608   2   0.50000     0.0600000    0.0600000   6.128906e-05  1.496315e-08
    606    591   2   0.50000     0.0600000   -0.5000000   3.205360e-04  1.719281e-07
    606    607   2   0.50000     0.0600000    0.0600000   6.128906e-05  1.496315e-08
    606    608   2   0.50000     0.0600000    0.0600000   6.128906e-05  1.496315e-08
    589    609   2   0.50000    -0.1200000    0.3000000   1.995577e-06  1.069504e-11
    589    610   2   0.50000    -0.1200000    0.5000000   1.575021e-03  3.561100e-06
    607    609   2   0.50000     0.0600000    0.3000000   4.903125e-07  9.576416e-13
    607    610   2   0.50000     0.0600000    0.5000000   3.869820e-04  3.188634e-07
    608    609   2   0.50000     0.0600000    0.3000000   4.903125e-07  9.576416e-13
    608    610   2   0.50000     0.0600000    0.5000000   3.869820e-04  3.188634e-07
    590    611   2   0.50000     0.0800000   -0.5000000   1.095425e-03  1.218041e-06
    590    612   2   0.50000     0.0800000   -0.1200000   1.015252e-03  1.866303e-06
    609    611   2   0.50000     0.3000000   -0.5000000   2.153164e-06  6.980110e-12
    609    612   2   0.50000     0.3000000   -0.1200000   1.995577e-06  1.069504e-11
    591    613   2   0.50000    -0.5000000   -0.1200000   1.304585e-03  1.920112e-06
    591    624   2   0.50000    -0.5000000    0.0600000   3.205360e-04  1.719281e-07
    591    625   2   0.50000    -0.5000000    0.0600000   3.205360e-04  1.719281e-07
    611    613   2   0.50000    -0.5000000   -0.1200000   1.095425e-03  1.218041e-06
    611    624   2   0.50000    -0.5000000    0.0600000   2.691455e-04  1.090642e-07
    611    625   2   0.50000    -0.5000000    0.0600000   2.691455e-04  1.090642e-07
    610    614   2   0.50000     0.5000000   -0.1200000   1.575021e-03  3.561100e-06
    610    626   2   0.50000     0.5000000    0.0600000   3.869820e-04  3.188634e-07
    610    627   2   0.50000     0.5000000    0.0600000   3.869820e-04  3.188634e-07
    624    614   2   0.50000     0.0600000   -0.1200000   2.494471e-04  1.671101e-07
    624    626   2   0.50000     0.0600000    0.0600000   6.128906e-05  1.496315e-08
    624    627   2   0.50000     0.0600000    0.0600000   6.128906e-05  1.496315e-08
    625    614   2   0.50000     0.0600000   -0.1200000   2.494471e-04  1.671101e-07
    625    626   2   0.50000     0.0600000    0.0600000   6.128906e-05  1.496315e-08
    625    627   2   0.50000     0.0600000    0.0600000   6.128906e-05  1.496315e-08
    612    615   2   0.50000    -0.1200000   -0.1200000   1.015252e-03  1.866303e-06
    612    628   2   0.50000    -0.1200000    0.0600000   2.494471e-04  1.671101e-07
    612    629   2   0.50000    -0.1200000    0.0600000   2.494471e-04  1.671101e-07
    626    615   2   0.50000     0.0600000   -0.1200000   2.494471e-04  1.671101e-07
    626    628   2   0.50000     0.0600000    0.0600000   6.128906e-05  1.496315e-08
    626    629   2   0.50000     0.0600000    0.0600000   6.128906e-05  1.496315e-08
    627    615   2   0.50000     0.0600000   -0.1200000   2.494471e-04  1.671101e-07
    627    628   2   0.50000     0.0600000    0.0600000   6.128906e-05  1.496315e-08
    627    629   2   0.50000     0.0600000    0.0600000   6.128906e-05  1.496315e-08
    613    616   2   0.50000    -0.1200000    0.5000000   1.575021e-03  3.561100e-06
    613    630   2   0.50000    -0.1200000    0.0600000   2.494471e-04  1.671101e-07
    613    631   2   0.50000    -0.1200000    0.0600000   2.494471e-04  1.671101e-07
    628    616   2   0.50000     0.0600000    0.5000000   3.869820e-04  3.188634e-07
    628    630   2   0.50000     0.0600000    0.0600000   6.128906e-05  1.496315e-08
    628    631   2   0.50000     0.0600000    0.0600000   6.128906e-05  1.496315e-08
    629    616   2   0.50000     0.0600000    0.5000000   3.869820e-04  3.188634e-07
    629    630   2   0.50000     0.0600000    0.0600000   6.128906e-05  1.496315e-08
    629    631   2   0.50000     0.0600000    0.0600000   6.128906e-05  1.496315e-08
    614    617   2   0.50000    -0.1200000   -0.5000000   1.095425e-03  1.218041e-06
    614    618   2   0.50000    -0.1200000   -0.5000000   1.304585e-03  1.920112e-06
    630    617   2   0.50000     0.0600000   -0.5000000   2.691455e-04  1.090642e-07
    630    618   2   0.50000     0.0600000   -0.5000000   3.205360e-04  1.719281e-07
    631    617   2   0.50000     0.0600000   -0.5000000   2.691455e-04  1.090642e-07
    631    618   2   0.50000     0.0600000   -0.5000000   3.205360e-04  1.719281e-07
    615    619   2   0.50000    -0.1200000    0.0800000   1.015252e-03  1.866303e-06
    615    632   2   0.50000    -0.1200000    0.3000000   1.995577e-06  1.069504e-11
    617    619   2   0.50000    -0.5000000    0.0800000   1.095425e-03  1.218041e-06
    617    632   2   0.50000    -0.5000000    0.3000000   2.153164e-06  6.980110e-12
    616    620   2   0.50000     0.5000000   -0.1200000   1.575021e-03  3.561100e-06
    616    633   2   0.50000     0.5000000    0.0600000   3.869820e-04  3.188634e-07
    616    634   2   0.50000     0.5000000    0.0600000   3.869820e-04  3.188634e-07
    632    620   2   0.50000     0.3000000   -0.1200000   1.995577e-06  1.069504e-11
    632    633   2   0.50000     0.3000000    0.0600000   4.903125e-07  9.576416e-13
    632    634   2   0.50000     0.3000000    0.0600000   4.903125e-07  9.576416e-13
    618    621   2   0.50000    -0.5000000   -0.1200000   1.304585e-03  1.920112e-06
    618    635   2   0.50000    -0.5000000    0.0600000   3.205360e-04  1.719281e-07
    618    636   2   0.50000    -0.5000000    0.0600000   3.205360e-04  1.719281e-07
    633    621   2   0.50000     0.0600000   -0.1200000   2.494471e-04  1.671101e-07
    633    635   2   0.50000     0.0600000    0.0600000   6.128906e-05  1.496315e-08
    633    636   2   0.50000     0.0600000    0.0600000   6.128906e-05  1.496315e-08
    634    621   2   0.50000     0.0600000   -0.1200000   2.494471e-04  1.671101e-07
    634    635   2   0.50000     0.0600000    0.0600000   6.128906e-05  1.496315e-08
    634    636   2   0.50000     0.0600000    0.0600000   6.128906e-05  1.496315e-08
    619    622   2   0.50000     0.0800000    0.0600000   1.015252e-03  1.866303e-06
    619    637   2   0.50000     0.0800000    0.0600000   2.494471e-04  1.671101e-07
    619    638   2   0.50000     0.0800000    0.0600000   2.494471e-04  1.671101e-07
    635    622   2   0.50000     0.0600000    0.0600000   2.494471e-04  1.671101e-07
    635    637   2   0.50000     0.0600000    0.0600000   6.128906e-05  1.496315e-08
    635    638   2   0.50000     0.0600000    0.0600000   6.128906e-05  1.496315e-08
    636    622   2   0.50000     0.0600000    0.0600000   2.494471e-04  1.671101e-07
    636    637   2   0.50000     0.0600000    0.0600000   6.128906e-05  1.496315e-08
    636    638   2   0.50000     0.0600000    0.0600000   6.128906e-05  1.496315e-08
    620    623   2   0.50000    -0.1200000   -0.9000000   1.365727e-03  2.104311e-06
    620    639   2   0.50000    -0.1200000    0.0600000   1.763857e-04  1.181647e-07
    620    640   2   0.50000    -0.1200000    0.0600000   1.763857e-04  1.181647e-07
    637    623   2   0.50000     0.0600000   -0.9000000   3.355588e-04  1.884215e-07
    637    639   2   0.50000     0.0600000    0.0600000   4.333791e-05  1.058054e-08
    637    640   2   0.50000     0.0600000    0.0600000   4.333791e-05  1.058054e-08
    638    623   2   0.50000     0.0600000   -0.9000000   3.355588e-04  1.884215e-07
    638    639   2   0.50000     0.0600000    0.0600000   4.333791e-05  1.058054e-08
    638    640   2   0.50000     0.0600000    0.0600000   4.333791e-05  1.058054e-08
    621    641   2   0.50000    -0.1200000    0.3600000   1.995577e-06  1.069504e-11
    621    642   2   0.50000    -0.1200000    0.3600000   1.995577e-06  1.069504e-11
    639    641   2   0.50000     0.0600000    0.3600000   3.467033e-07  6.771549e-13
    639    642   2   0.50000     0.0600000    0.3600000   3.467033e-07  6.771549e-13
    640    641   2   0.50000     0.0600000    0.3600000   3.467033e-07  6.771549e-13
    640    642   2   0.50000     0.0600000    0.3600000   3.467033e-07  6.771549e-13

[ angles ]
; ai  aj  ak
      2      1      3   1    120.4000    669.4400
      2      1     33   1    123.0000    292.8800
      3      1     33   1    115.0000    292.8800
      1      3      4   1    111.1000    527.1840
      1      3     15   1    109.5000    292.8800
      1      3     16   1    109.5000    292.8800
      4      3     15   1    110.7000    313.8000
      4      3     16   1    110.7000    313.8000
     15      3     16   1    107.8000    276.1440
      3      4      5   1    112.7000    488.2728
      3      4     17   1    110.7000    313.8000
      3      4     18   1    110.7000    313.8000
      5      4     17   1    110.7000    313.8000
      5      4     18   1    110.7000    313.8000
     17      4     18   1    107.8000    276.1440
      4      5      6   1    112.7000    488.2728
      4      5     19   1    110.7000    313.8000
      4      5     20   1    110.7000    313.8000
      6      5     19   1    110.7000    313.8000
      6      5     20   1    110.7000    313.8000
     19      5     20   1    107.8000    276.1440
      5      6      7   1    111.1000    527.1840
      5      6     21   1    110.7000    313.8000
      5      6     22   1    110.7000    313.8000
      7      6     21   1    109.5000    292.8800
      7      6     22   1    109.5000    292.8800
     21      6     22   1    107.8000    276.1440
      6      7      8   1    120.4000    669.4400
      6      7      9   1    116.6000    585.7600
      8      7      9   1    122.9000    669.4400
      7      9     10   1    121.9000    418.4000
      7      9     23   1    119.8000    292.8800
     10      9     23   1    118.4000    317.9840
      9     10     11   1    110.7230    585.7600
      9     10     24   1    109.5000    292.8800
      9     10     25   1    109.5000    292.8800
     11     10     24   1    110.7000    313.8000
     11     10     25   1    110.7000    313.8000
     24     10     25   1    107.8000    276.1440
     10     11     12   1    112.7000    488.2728
     10     11     26   1    110.7000    313.8000
     10     11     27   1    110.7000    313.8000
     12     11     26   1    110.7000    313.8000
     12     11     27   1    110.7000    313.8000
     26     11     27   1    107.8000    276.1440
     11     12     13   1    112.7000    488.2728
     11     12     28   1    110.7000    313.8000
     11     12     29   1    110.7000    313.8000
     13     12     28   1    110.7000    313.8000
     13     12     29   1    110.7000    313.8000
     28     12     29   1    107.8000    276.1440
     12     13     14   1    110.7230    585.7600
     12     13     30   1    110.7000    313.8000
     12     13     31   1    110.7000    313.8000
     14     13     30   1    109.5000    292.8800
     14     13     31   1    109.5000    292.8800
     30     13     31   1    107.8000    276.1440
     13     14     32   1    118.4000    317.9840
     13     14     34   1    121.9000    418.4000
     32     14     34   1    119.8000    292.8800
     14     34     35   1    122.9000    669.4400
     14     34     36   1    116.6000    585.7600
     35     34     36   1    120.4000    669.4400
     34     36     37   1    111.1000    527.1840
     34     36     48   1    109.5000    292.8800
     34     36     49   1    109.5000    292.8800
     37     36     48   1    110.7000    313.8000
     37     36     49   1    110.7000    313.8000
     48     36     49   1    107.8000    276.1440
     36     37     38   1    112.7000    488.2728
     36     37     50   1    110.7000    313.8000
     36     37     51   1    110.7000    313.8000
     38     37     50   1    110.7000    313.8000
     38     37     51   1    110.7000    313.8000
     50     37     51   1    107.8000    276.1440
     37     38     39   1    112.7000    488.2728
     37     38     52   1    110.7000    313.8000
     37     38     53   1    110.7000    313.8000
     39     38     52   1    110.7000    313.8000
     39     38     53   1    110.7000    313.8000
     52     38     53   1    107.8000    276.1440
     38     39     40   1    111.1000    527.1840
     38     39     54   1    110.7000    313.8000
     38     39     55   1    110.7000    313.8000
     40     39     54   1    109.5000    292.8800
     40     39     55   1    109.5000    292.8800
     54     39     55   1    107.8000    276.1440
     39     40     41   1    120.4000    669.4400
     39     40     42   1    116.6000    585.7600
     41     40     42   1    122.9000    669.4400
     40     42     43   1    121.9000    418.4000
     40     42     56   1    119.8000    292.8800
     43     42     56   1    118.4000    317.9840
     42     43     44   1    110.7230    585.7600
     42     43     57   1    109.5000    292.8800
     42     43     58   1    109.5000    292.8800
     44     43     57   1    110.7000    313.8000
     44     43     58   1    110.7000    313.8000
     57     43     58   1    107.8000    276.1440
     43     44     45   1    112.7000    488.2728
     43     44     59   1    110.7000    313.8000
     43     44     60   1    110.7000    313.8000
     45     44     59   1    110.7000    313.8000
     45     44     60   1    110.7000    313.8000
     59     44     60   1    107.8000    276.1440
     44     45     46   1    112.7000    488.2728
     44     45     61   1    110.7000    313.8000
     44     45     62   1    110.7000    313.8000
     46     45     61   1    110.7000    313.8000
     46     45     62   1    110.7000    313.8000
     61     45     62   1    107.8000    276.1440
     45     46     47   1    110.7230    585.7600
     45     46     63   1    110.7000    313.8000
     45     46     64   1    110.7000    313.8000
     47     46     63   1    109.5000    292.8800
     47     46     64   1    109.5000    292.8800
     63     46     64   1    107.8000    276.1440
     46     47     65   1    118.4000    317.9840
     46     47     66   1    121.9000    418.4000
     65     47     66   1    119.8000    292.8800
     47     66     67   1    122.9000    669.4400
     47     66     68   1    116.6000    585.7600
     67     66     68   1    120.4000    669.4400
     66     68     69   1    111.1000    527.1840
     66     68     80   1    109.5000    292.8800
     66     68     81   1    109.5000    292.8800
     69     68     80   1    110.7000    313.8000
     69     68     81   1    110.7000    313.8000
     80     68     81   1    107.8000    276.1440
     68     69     70   1    112.7000    488.2728
     68     69     82   1    110.7000    313.8000
     68     69     83   1    110.7000    313.8000
     70     69     82   1    110.7000    313.8000
     70     69     83   1    110.7000    313.8000
     82     69     83   1    107.8000    276.1440
     69     70     71   1    112.7000    488.2728
     69     70     84   1    110.7000    313.8000
     69     70     85   1    110.7000    313.8000
     71     70     84   1    110.7000    313.8000
     71     70     85   1    110.7000    313.8000
     84     70     85   1    107.8000    276.1440
     70     71     72   1    111.1000    527.1840
     70     71     86   1    110.7000    313.8000
     70     71     87   1    110.7000    313.8000
     72     71     86   1    109.5000    292.8800
     72     71     87   1    109.5000    292.8800
     86     71     87   1    107.8000    276.1440
     71     72     73   1    120.4000    669.4400
     71     72     74   1    116.6000    585.7600
     73     72     74   1    122.9000    669.4400
     72     74     75   1    121.9000    418.4000
     72     74     88   1    119.8000    292.8800
     75     74     88   1    118.4000    317.9840
     74     75     76   1    110.7230    585.7600
     74     75     89   1    109.5000    292.8800
     74     75     90   1    109.5000    292.8800
     76     75     89   1    110.7000    313.8000
     76     75     90   1    110.7000    313.8000
     89     75     90   1    107.8000    276.1440
     75     76     77   1    112.7000    488.2728
     75     76     91   1    110.7000    313.8000
     75     76     92   1    110.7000    313.8000
     77     76     91   1    110.7000    313.8000
     77     76     92   1    110.7000    313.8000
     91     76     92   1    107.8000    276.1440
     76     77     78   1    112.7000    488.2728
     76     77     93   1    110.7000    313.8000
     76     77     94   1    110.7000    313.8000
     78     77     93   1    110.7000    313.8000
     78     77     94   1    110.7000    313.8000
     93     77     94   1    107.8000    276.1440
     77     78     79   1    110.7230    585.7600
     77     78     95   1    110.7000    313.8000
     77     78     96   1    110.7000    313.8000
     79     78     95   1    109.5000    292.8800
     79     78     96   1    109.5000    292.8800
     95     78     96   1    107.8000    276.1440
     78     79     97   1    118.4000    317.9840
     78     79     98   1    121.9000    418.4000
     97     79     98   1    119.8000    292.8800
     79     98     99   1    122.9000    669.4400
     79     98    100   1    116.6000    585.7600
     99     98    100   1    120.4000    669.4400
     98    100    101   1    111.1000    527.1840
     98    100    112   1    109.5000    292.8800
     98    100    113   1    109.5000    292.8800
    101    100    112   1    110.7000    313.8000
    101    100    113   1    110.7000    313.8000
    112    100    113   1    107.8000    276.1440
    100    101    102   1    112.7000    488.2728
    100    101    114   1    110.7000    313.8000
    100    101    115   1    110.7000    313.8000
    102    101    114   1    110.7000    313.8000
    102    101    115   1    110.7000    313.8000
    114    101    115   1    107.8000    276.1440
    101    102    103   1    112.7000    488.2728
    101    102    116   1    110.7000    313.8000
    101    102    117   1    110.7000    313.8000
    103    102    116   1    110.7000    313.8000
    103    102    117   1    110.7000    313.8000
    116    102    117   1    107.8000    276.1440
    102    103    104   1    111.1000    527.1840
    102    103    118   1    110.7000    313.8000
    102    103    119   1    110.7000    313.8000
    104    103    118   1    109.5000    292.8800
    104    103    119   1    109.5000    292.8800
    118    103    119   1    107.8000    276.1440
    103    104    105   1    120.4000    669.4400
    103    104    106   1    116.6000    585.7600
    105    104    106   1    122.9000    669.4400
    104    106    107   1    121.9000    418.4000
    104    106    120   1    119.8000    292.8800
    107    106    120   1    118.4000    317.9840
    106    107    108   1    110.7230    585.7600
    106    107    121   1    109.5000    292.8800
    106    107    122   1    109.5000    292.8800
    108    107    121   1    110.7000    313.8000
    108    107    122   1    110.7000    313.8000
    121    107    122   1    107.8000    276.1440
    107    108    109   1    112.7000    488.2728
    107    108    123   1    110.7000    313.8000
    107    108    124   1    110.7000    313.8000
    109    108    123   1    110.7000    313.8000
    109    108    124   1    110.7000    313.8000
    123    108    124   1    107.8000    276.1440
    108    109    110   1    112.7000    488.2728
    108    109    125   1    110.7000    313.8000
    108    109    126   1    110.7000    313.8000
    110    109    125   1    110.7000    313.8000
    110    109    126   1    110.7000    313.8000
    125    109    126   1    107.8000    276.1440
    109    110    111   1    110.7230    585.7600
    109    110    127   1    110.7000    313.8000
    109    110    128   1    110.7000    313.8000
    111    110    127   1    109.5000    292.8800
    111    110    128   1    109.5000    292.8800
    127    110    128   1    107.8000    276.1440
    110    111    129   1    118.4000    317.9840
    110    111    130   1    121.9000    418.4000
    129    111    130   1    119.8000    292.8800
    111    130    131   1    122.9000    669.4400
    111    130    132   1    116.6000    585.7600
    131    130    132   1    120.4000    669.4400
    130    132    133   1    111.1000    527.1840
    130    132    144   1    109.5000    292.8800
    130    132    145   1    109.5000    292.8800
    133    132    144   1    110.7000    313.8000
    133    132    145   1    110.7000    313.8000
    144    132    145   1    107.8000    276.1440
    132    133    134   1    112.7000    488.2728
    132    133    146   1    110.7000    313.8000
    132    133    147   1    110.7000    313.8000
    134    133    146   1    110.7000    313.8000
    134    133    147   1    110.7000    313.8000
    146    133    147   1    107.8000    276.1440
    133    134    135   1    112.7000    488.2728
    133    134    148   1    110.7000    313.8000
    133    134    149   1    110.7000    313.8000
    135    134    148   1    110.7000    313.8000
    135    134    149   1    110.7000    313.8000
    148    134    149   1    107.8000    276.1440
    134    135    136   1    111.1000    527.1840
    134    135    150   1    110.7000    313.8000
    134    135    151   1    110.7000    313.8000
    136    135    150   1    109.5000    292.8800
    136    135    151   1    109.5000    292.8800
    150    135    151   1    107.8000    276.1440
    135    136    137   1    120.4000    669.4400
    135    136    138   1    116.6000    585.7600
    137    136    138   1    122.9000    669.4400
    136    138    139   1    121.9000    418.4000
    136    138    152   1    119.8000    292.8800
    139    138    152   1    118.4000    317.9840
    138    139    140   1    110.7230    585.7600
    138    139    153   1    109.5000    292.8800
    138    139    154   1    109.5000    292.8800
    140    139    153   1    110.7000    313.8000
    140    139    154   1    110.7000    313.8000
    153    139    154   1    107.8000    276.1440
    139    140    141   1    112.7000    488.2728
    139    140    155   1    110.7000    313.8000
    139    140    156   1    110.7000    313.8000
    141    140    155   1    110.7000    313.8000
    141    140    156   1    110.7000    313.8000
    155    140    156   1    107.8000    276.1440
    140    141    142   1    112.7000    488.2728
    140    141    157   1    110.7000    313.8000
    140    141    158   1    110.7000    313.8000
    142    141    157   1    110.7000    313.8000
    142    141    158   1    110.7000    313.8000
    157    141    158   1    107.8000    276.1440
    141    142    143   1    110.7230    585.7600
    141    142    159   1    110.7000    313.8000
    141    142    160   1    110.7000    313.8000
    143    142    159   1    109.5000    292.8800
    143    142    160   1    109.5000    292.8800
    159    142    160   1    107.8000    276.1440
    142    143    161   1    118.4000    317.9840
    142    143    162   1    121.9000    418.4000
    161    143    162   1    119.8000    292.8800
    143    162    163   1    122.9000    669.4400
    143    162    164   1    116.6000    585.7600
    163    162    164   1    120.4000    669.4400
    162    164    165   1    111.1000    527.1840
    162    164    176   1    109.5000    292.8800
    162    164    177   1    109.5000    292.8800
    165    164    176   1    110.7000    313.8000
    165    164    177   1    110.7000    313.8000
    176    164    177   1    107.8000    276.1440
    164    165    166   1    112.7000    488.2728
    164    165    178   1    110.7000    313.8000
    164    165    179   1    110.7000    313.8000
    166    165    178   1    110.7000    313.8000
    166    165    179   1    110.7000    313.8000
    178    165    179   1    107.8000    276.1440
    165    166    167   1    112.7000    488.2728
    165    166    180   1    110.7000    313.8000
    165    166    181   1    110.7000    313.8000
    167    166    180   1    110.7000    313.8000
    167    166    181   1    110.7000    313.8000
    180    166    181   1    107.8000    276.1440
    166    167    168   1    111.1000    527.1840
    166    167    182   1    110.7000    313.8000
    166    167    183   1    110.7000    313.8000
    168    167    182   1    109.5000    292.8800
    168    167    183   1    109.5000    292.8800
    182    167    183   1    107.8000    276.1440
    167    168    169   1    120.4000    669.4400
    167    168    170   1    116.6000    585.7600
    169    168    170   1    122.9000    669.4400
    168    170    171   1    121.9000    418.4000
    168    170    184   1    119.8000    292.8800
    171    170    184   1    118.4000    317.9840
    170    171    172   1    110.7230    585.7600
    170    171    185   1    109.5000    292.8800
    170    171    186   1    109.5000    292.8800
    172    171    185   1    110.7000    313.8000
    172    171    186   1    110.7000    313.8000
    185    171    186   1    107.8000    276.1440
    171    172    173   1    112.7000    488.2728
    171    172    187   1    110.7000    313.8000
    171    172    188   1    110.7000    313.8000
    173    172    187   1    110.7000    313.8000
    173    172    188   1    110.7000    313.8000
    187    172    188   1    107.8000    276.1440
    172    173    174   1    112.7000    488.2728
    172    173    189   1    110.7000    313.8000
    172    173    190   1    110.7000    313.8000
    174    173    189   1    110.7000    313.8000
    174    173    190   1    110.7000    313.8000
    189    173    190   1    107.8000    276.1440
    173    174    175   1    110.7230    585.7600
    173    174    191   1    110.7000    313.8000
    173    174    192   1    110.7000    313.8000
    175    174    191   1    109.5000    292.8800
    175    174    192   1    109.5000    292.8800
    191    174    192   1    107.8000    276.1440
    174    175    193   1    118.4000    317.9840
    174    175    194   1    121.9000    418.4000
    193    175    194   1    119.8000    292.8800
    175    194    195   1    122.9000    669.4400
    175    194    196   1    116.6000    585.7600
    195    194    196   1    120.4000    669.4400
    194    196    197   1    111.1000    527.1840
    194    196    208   1    109.5000    292.8800
    194    196    209   1    109.5000    292.8800
    197    196    208   1    110.7000    313.8000
    197    196    209   1    110.7000    313.8000
    208    196    209   1    107.8000    276.1440
    196    197    198   1    112.7000    488.2728
    196    197    210   1    110.7000    313.8000
    196    197    211   1    110.7000    313.8000
    198    197    210   1    110.7000    313.8000
    198    197    211   1    110.7000    313.8000
    210    197    211   1    107.8000    276.1440
    197    198    199   1    112.7000    488.2728
    197    198    212   1    110.7000    313.8000
    197    198    213   1    110.7000    313.8000
    199    198    212   1    110.7000    313.8000
    199    198    213   1    110.7000    313.8000
    212    198    213   1    107.8000    276.1440
    198    199    200   1    111.1000    527.1840
    198    199    214   1    110.7000    313.8000
    198    199    215   1    110.7000    313.8000
    200    199    214   1    109.5000    292.8800
    200    199    215   1    109.5000    292.8800
    214    199    215   1    107.8000    276.1440
    199    200    201   1    120.4000    669.4400
    199    200    202   1    116.6000    585.7600
    201    200    202   1    122.9000    669.4400
    200    202    203   1    121.9000    418.4000
    200    202    216   1    119.8000    292.8800
    203    202    216   1    118.4000    317.9840
    202    203    204   1    110.7230    585.7600
    202    203    217   1    109.5000    292.8800
    202    203    218   1    109.5000    292.8800
    204    203    217   1    110.7000    313.8000
    204    203    218   1    110.7000    313.8000
    217    203    218   1    107.8000    276.1440
    203    204    205   1    112.7000    488.2728
    203    204    219   1    110.7000    313.8000
    203    204    220   1    110.7000    313.8000
    205    204    219   1    110.7000    313.8000
    205    204    220   1    110.7000    313.8000
    219    204    220   1    107.8000    276.1440
    204    205    206   1    112.7000    488.2728
    204    205    221   1    110.7000    313.8000
    204    205    222   1    110.7000    313.8000
    206    205    221   1    110.7000    313.8000
    206    205    222   1    110.7000    313.8000
    221    205    222   1    107.8000    276.1440
    205    206    207   1    110.7230    585.7600
    205    206    223   1    110.7000    313.8000
    205    206    224   1    110.7000    313.8000
    207    206    223   1    109.5000    292.8800
    207    206    224   1    109.5000    292.8800
    223    206    224   1    107.8000    276.1440
    206    207    225   1    118.4000    317.9840
    206    207    226   1    121.9000    418.4000
    225    207    226   1    119.8000    292.8800
    207    226    227   1    122.9000    669.4400
    207    226    228   1    116.6000    585.7600
    227    226    228   1    120.4000    669.4400
    226    228    229   1    111.1000    527.1840
    226    228    240   1    109.5000    292.8800
    226    228    241   1    109.5000    292.8800
    229    228    240   1    110.7000    313.8000
    229    228    241   1    110.7000    313.8000
    240    228    241   1    107.8000    276.1440
    228    229    230   1    112.7000    488.2728
    228    229    242   1    110.7000    313.8000
    228    229    243   1    110.7000    313.8000
    230    229    242   1    110.7000    313.8000
    230    229    243   1    110.7000    313.8000
    242    229    243   1    107.8000    276.1440
    229    230    231   1    112.7000    488.2728
    229    230    244   1    110.7000    313.8000
    229    230    245   1    110.7000    313.8000
    231    230    244   1    110.7000    313.8000
    231    230    245   1    110.7000    313.8000
    244    230    245   1    107.8000    276.1440
    230    231    232   1    111.1000    527.1840
    230    231    246   1    110.7000    313.8000
    230    231    247   1    110.7000    313.8000
    232    231    246   1    109.5000    292.8800
    232    231    247   1    109.5000    292.8800
    246    231    247   1    107.8000    276.1440
    231    232    233   1    120.4000    669.4400
    231    232    234   1    116.6000    585.7600
    233    232    234   1    122.9000    669.4400
    232    234    235   1    121.9000    418.4000
    232    234    248   1    119.8000    292.8800
    235    234    248   1    118.4000    317.9840
    234    235    236   1    110.7230    585.7600
    234    235    249   1    109.5000    292.8800
    234    235    250   1    109.5000    292.8800
    236    235    249   1    110.7000    313.8000
    236    235    250   1    110.7000    313.8000
    249    235    250   1    107.8000    276.1440
    235    236    237   1    112.7000    488.2728
    235    236    251   1    110.7000    313.8000
    235    236    252   1    110.7000    313.8000
    237    236    251   1    110.7000    313.8000
    237    236    252   1    110.7000    313.8000
    251    236    252   1    107.8000    276.1440
    236    237    238   1    112.7000    488.2728
    236    237    253   1    110.7000    313.8000
    236    237    254   1    110.7000    313.8000
    238    237    253   1    110.7000    313.8000
    238    237    254   1    110.7000    313.8000
    253    237    254   1    107.8000    276.1440
    237    238    239   1    110.7230    585.7600
    237    238    255   1    110.7000    313.8000
    237    238    256   1    110.7000    313.8000
    239    238    255   1    109.5000    292.8800
    239    238    256   1    109.5000    292.8800
    255    238    256   1    107.8000    276.1440
    238    239    257   1    118.4000    317.9840
    238    239    258   1    121.9000    418.4000
    257    239    258   1    119.8000    292.8800
    239    258    259   1    122.9000    669.4400
    239    258    260   1    116.6000    585.7600
    259    258    260   1    120.4000    669.4400
    258    260    261   1    111.1000    527.1840
    258    260    272   1    109.5000    292.8800
    258    260    273   1    109.5000    292.8800
    261    260    272   1    110.7000    313.8000
    261    260    273   1    110.7000    313.8000
    272    260    273   1    107.8000    276.1440
    260    261    262   1    112.7000    488.2728
    260    261    274   1    110.7000    313.8000
    260    261    275   1    110.7000    313.8000
    262    261    274   1    110.7000    313.8000
    262    261    275   1    110.7000    313.8000
    274    261    275   1    107.8000    276.1440
    261    262    263   1    112.7000    488.2728
    261    262    276   1    110.7000    313.8000
    261    262    277   1    110.7000    313.8000
    263    262    276   1    110.7000    313.8000
    263    262    277   1    110.7000    313.8000
    276    262    277   1    107.8000    276.1440
    262    263    264   1    111.1000    527.1840
    262    263    278   1    110.7000    313.8000
    262    263    279   1    110.7000    313.8000
    264    263    278   1    109.5000    292.8800
    264    263    279   1    109.5000    292.8800
    278    263    279   1    107.8000    276.1440
    263    264    265   1    120.4000    669.4400
    263    264    266   1    116.6000    585.7600
    265    264    266   1    122.9000    669.4400
    264    266    267   1    121.9000    418.4000
    264    266    280   1    119.8000    292.8800
    267    266    280   1    118.4000    317.9840
    266    267    268   1    110.7230    585.7600
    266    267    281   1    109.5000    292.8800
    266    267    282   1    109.5000    292.8800
    268    267    281   1    110.7000    313.8000
    268    267    282   1    110.7000    313.8000
    281    267    282   1    107.8000    276.1440
    267    268    269   1    112.7000    488.2728
    267    268    283   1    110.7000    313.8000
    267    268    284   1    110.7000    313.8000
    269    268    283   1    110.7000    313.8000
    269    268    284   1    110.7000    313.8000
    283    268    284   1    107.8000    276.1440
    268    269    270   1    112.7000    488.2728
    268    269    285   1    110.7000    313.8000
    268    269    286   1    110.7000    313.8000
    270    269    285   1    110.7000    313.8000
    270    269    286   1    110.7000    313.8000
    285    269    286   1    107.8000    276.1440
    269    270    271   1    110.7230    585.7600
    269    270    287   1    110.7000    313.8000
    269    270    288   1    110.7000    313.8000
    271    270    287   1    109.5000    292.8800
    271    270    288   1    109.5000    292.8800
    287    270    288   1    107.8000    276.1440
    270    271    289   1    118.4000    317.9840
    270    271    290   1    121.9000    418.4000
    289    271    290   1    119.8000    292.8800
    271    290    291   1    122.9000    669.4400
    271    290    292   1    116.6000    585.7600
    291    290    292   1    120.4000    669.4400
    290    292    293   1    111.1000    527.1840
    290    292    304   1    109.5000    292.8800
    290    292    305   1    109.5000    292.8800
    293    292    304   1    110.7000    313.8000
    293    292    305   1    110.7000    313.8000
    304    292    305   1    107.8000    276.1440
    292    293    294   1    112.7000    488.2728
    292    293    306   1    110.7000    313.8000
    292    293    307   1    110.7000    313.8000
    294    293    306   1    110.7000    313.8000
    294    293    307   1    110.7000    313.8000
    306    293    307   1    107.8000    276.1440
    293    294    295   1    112.7000    488.2728
    293    294    308   1    110.7000    313.8000
    293    294    309   1    110.7000    313.8000
    295    294    308   1    110.7000    313.8000
    295    294    309   1    110.7000    313.8000
    308    294    309   1    107.8000    276.1440
    294    295    296   1    111.1000    527.1840
    294    295    310   1    110.7000    313.8000
    294    295    311   1    110.7000    313.8000
    296    295    310   1    109.5000    292.8800
    296    295    311   1    109.5000    292.8800
    310    295    311   1    107.8000    276.1440
    295    296    297   1    120.4000    669.4400
    295    296    298   1    116.6000    585.7600
    297    296    298   1    122.9000    669.4400
    296    298    299   1    121.9000    418.4000
    296    298    312   1    119.8000    292.8800
    299    298    312   1    118.4000    317.9840
    298    299    300   1    110.7230    585.7600
    298    299    313   1    109.5000    292.8800
    298    299    314   1    109.5000    292.8800
    300    299    313   1    110.7000    313.8000
    300    299    314   1    110.7000    313.8000
    313    299    314   1    107.8000    276.1440
    299    300    301   1    112.7000    488.2728
    299    300    315   1    110.7000    313.8000
    299    300    316   1    110.7000    313.8000
    301    300    315   1    110.7000    313.8000
    301    300    316   1    110.7000    313.8000
    315    300    316   1    107.8000    276.1440
    300    301    302   1    112.7000    488.2728
    300    301    317   1    110.7000    313.8000
    300    301    318   1    110.7000    313.8000
    302    301    317   1    110.7000    313.8000
    302    301    318   1    110.7000    313.8000
    317    301    318   1    107.8000    276.1440
    301    302    303   1    110.7230    585.7600
    301    302    319   1    110.7000    313.8000
    301    302    320   1    110.7000    313.8000
    303    302    319   1    109.5000    292.8800
    303    302    320   1    109.5000    292.8800
    319    302    320   1    107.8000    276.1440
    302    303    321   1    118.4000    317.9840
    302    303    322   1    121.9000    418.4000
    321    303    322   1    119.8000    292.8800
    303    322    323   1    122.9000    669.4400
    303    322    324   1    116.6000    585.7600
    323    322    324   1    120.4000    669.4400
    322    324    325   1    111.1000    527.1840
    322    324    336   1    109.5000    292.8800
    322    324    337   1    109.5000    292.8800
    325    324    336   1    110.7000    313.8000
    325    324    337   1    110.7000    313.8000
    336    324    337   1    107.8000    276.1440
    324    325    326   1    112.7000    488.2728
    324    325    338   1    110.7000    313.8000
    324    325    339   1    110.7000    313.8000
    326    325    338   1    110.7000    313.8000
    326    325    339   1    110.7000    313.8000
    338    325    339   1    107.8000    276.1440
    325    326    327   1    112.7000    488.2728
    325    326    340   1    110.7000    313.8000
    325    326    341   1    110.7000    313.8000
    327    326    340   1    110.7000    313.8000
    327    326    341   1    110.7000    313.8000
    340    326    341   1    107.8000    276.1440
    326    327    328   1    111.1000    527.1840
    326    327    342   1    110.7000    313.8000
    326    327    343   1    110.7000    313.8000
    328    327    342   1    109.5000    292.8800
    328    327    343   1    109.5000    292.8800
    342    327    343   1    107.8000    276.1440
    327    328    329   1    120.4000    669.4400
    327    328    330   1    116.6000    585.7600
    329    328    330   1    122.9000    669.4400
    328    330    331   1    121.9000    418.4000
    328    330    344   1    119.8000    292.8800
    331    330    344   1    118.4000    317.9840
    330    331    332   1    110.7230    585.7600
    330    331    345   1    109.5000    292.8800
    330    331    346   1    109.5000    292.8800
    332    331    345   1    110.7000    313.8000
    332    331    346   1    110.7000    313.8000
    345    331    346   1    107.8000    276.1440
    331    332    333   1    112.7000    488.2728
    331    332    347   1    110.7000    313.8000
    331    332    348   1    110.7000    313.8000
    333    332    347   1    110.7000    313.8000
    333    332    348   1    110.7000    313.8000
    347    332    348   1    107.8000    276.1440
    332    333    334   1    112.7000    488.2728
    332    333    349   1    110.7000    313.8000
    332    333    350   1    110.7000    313.8000
    334    333    349   1    110.7000    313.8000
    334    333    350   1    110.7000    313.8000
    349    333    350   1    107.8000    276.1440
    333    334    335   1    110.7230    585.7600
    333    334    351   1    110.7000    313.8000
    333    334    352   1    110.7000    313.8000
    335    334    351   1    109.5000    292.8800
    335    334    352   1    109.5000    292.8800
    351    334    352   1    107.8000    276.1440
    334    335    353   1    118.4000    317.9840
    334    335    354   1    121.9000    418.4000
    353    335    354   1    119.8000    292.8800
    335    354    355   1    122.9000    669.4400
    335    354    356   1    116.6000    585.7600
    355    354    356   1    120.4000    669.4400
    354    356    357   1    111.1000    527.1840
    354    356    368   1    109.5000    292.8800
    354    356    369   1    109.5000    292.8800
    357    356    368   1    110.7000    313.8000
    357    356    369   1    110.7000    313.8000
    368    356    369   1    107.8000    276.1440
    356    357    358   1    112.7000    488.2728
    356    357    370   1    110.7000    313.8000
    356    357    371   1    110.7000    313.8000
    358    357    370   1    110.7000    313.8000
    358    357    371   1    110.7000    313.8000
    370    357    371   1    107.8000    276.1440
    357    358    359   1    112.7000    488.2728
    357    358    372   1    110.7000    313.8000
    357    358    373   1    110.7000    313.8000
    359    358    372   1    110.7000    313.8000
    359    358    373   1    110.7000    313.8000
    372    358    373   1    107.8000    276.1440
    358    359    360   1    111.1000    527.1840
    358    359    374   1    110.7000    313.8000
    358    359    375   1    110.7000    313.8000
    360    359    374   1    109.5000    292.8800
    360    359    375   1    109.5000    292.8800
    374    359    375   1    107.8000    276.1440
    359    360    361   1    120.4000    669.4400
    359    360    362   1    116.6000    585.7600
    361    360    362   1    122.9000    669.4400
    360    362    363   1    121.9000    418.4000
    360    362    376   1    119.8000    292.8800
    363    362    376   1    118.4000    317.9840
    362    363    364   1    110.7230    585.7600
    362    363    377   1    109.5000    292.8800
    362    363    378   1    109.5000    292.8800
    364    363    377   1    110.7000    313.8000
    364    363    378   1    110.7000    313.8000
    377    363    378   1    107.8000    276.1440
    363    364    365   1    112.7000    488.2728
    363    364    379   1    110.7000    313.8000
    363    364    380   1    110.7000    313.8000
    365    364    379   1    110.7000    313.8000
    365    364    380   1    110.7000    313.8000
    379    364    380   1    107.8000    276.1440
    364    365    366   1    112.7000    488.2728
    364    365    381   1    110.7000    313.8000
    364    365    382   1    110.7000    313.8000
    366    365    381   1    110.7000    313.8000
    366    365    382   1    110.7000    313.8000
    381    365    382   1    107.8000    276.1440
    365    366    367   1    110.7230    585.7600
    365    366    383   1    110.7000    313.8000
    365    366    384   1    110.7000    313.8000
    367    366    383   1    109.5000    292.8800
    367    366    384   1    109.5000    292.8800
    383    366    384   1    107.8000    276.1440
    366    367    385   1    118.4000    317.9840
    366    367    386   1    121.9000    418.4000
    385    367    386   1    119.8000    292.8800
    367    386    387   1    122.9000    669.4400
    367    386    388   1    116.6000    585.7600
    387    386    388   1    120.4000    669.4400
    386    388    389   1    111.1000    527.1840
    386    388    400   1    109.5000    292.8800
    386    388    401   1    109.5000    292.8800
    389    388    400   1    110.7000    313.8000
    389    388    401   1    110.7000    313.8000
    400    388    401   1    107.8000    276.1440
    388    389    390   1    112.7000    488.2728
    388    389    402   1    110.7000    313.8000
    388    389    403   1    110.7000    313.8000
    390    389    402   1    110.7000    313.8000
    390    389    403   1    110.7000    313.8000
    402    389    403   1    107.8000    276.1440
    389    390    391   1    112.7000    488.2728
    389    390    404   1    110.7000    313.8000
    389    390    405   1    110.7000    313.8000
    391    390    404   1    110.7000    313.8000
    391    390    405   1    110.7000    313.8000
    404    390    405   1    107.8000    276.1440
    390    391    392   1    111.1000    527.1840
    390    391    406   1    110.7000    313.8000
    390    391    407   1    110.7000    313.8000
    392    391    406   1    109.5000    292.8800
    392    391    407   1    109.5000    292.8800
    406    391    407   1    107.8000    276.1440
    391    392    393   1    120.4000    669.4400
    391    392    394   1    116.6000    585.7600
    393    392    394   1    122.9000    669.4400
    392    394    395   1    121.9000    418.4000
    392    394    408   1    119.8000    292.8800
    395    394    408   1    118.4000    317.9840
    394    395    396   1    110.7230    585.7600
    394    395    409   1    109.5000    292.8800
    394    395    410   1    109.5000    292.8800
    396    395    409   1    110.7000    313.8000
    396    395    410   1    110.7000    313.8000
    409    395    410   1    107.8000    276.1440
    395    396    397   1    112.7000    488.2728
    395    396    411   1    110.7000    313.8000
    395    396    412   1    110.7000    313.8000
    397    396    411   1    110.7000    313.8000
    397    396    412   1    110.7000    313.8000
    411    396    412   1    107.8000    276.1440
    396    397    398   1    112.7000    488.2728
    396    397    413   1    110.7000    313.8000
    396    397    414   1    110.7000    313.8000
    398    397    413   1    110.7000    313.8000
    398    397    414   1    110.7000    313.8000
    413    397    414   1    107.8000    276.1440
    397    398    399   1    110.7230    585.7600
    397    398    415   1    110.7000    313.8000
    397    398    416   1    110.7000    313.8000
    399    398    415   1    109.5000    292.8800
    399    398    416   1    109.5000    292.8800
    415    398    416   1    107.8000    276.1440
    398    399    417   1    118.4000    317.9840
    398    399    418   1    121.9000    418.4000
    417    399    418   1    119.8000    292.8800
    399    418    419   1    122.9000    669.4400
    399    418    420   1    116.6000    585.7600
    419    418    420   1    120.4000    669.4400
    418    420    421   1    111.1000    527.1840
    418    420    432   1    109.5000    292.8800
    418    420    433   1    109.5000    292.8800
    421    420    432   1    110.7000    313.8000
    421    420    433   1    110.7000    313.8000
    432    420    433   1    107.8000    276.1440
    420    421    422   1    112.7000    488.2728
    420    421    434   1    110.7000    313.8000
    420    421    435   1    110.7000    313.8000
    422    421    434   1    110.7000    313.8000
    422    421    435   1    110.7000    313.8000
    434    421    435   1    107.8000    276.1440
    421    422    423   1    112.7000    488.2728
    421    422    436   1    110.7000    313.8000
    421    422    437   1    110.7000    313.8000
    423    422    436   1    110.7000    313.8000
    423    422    437   1    110.7000    313.8000
    436    422    437   1    107.8000    276.1440
    422    423    424   1    111.1000    527.1840
    422    423    438   1    110.7000    313.8000
    422    423    439   1    110.7000    313.8000
    424    423    438   1    109.5000    292.8800
    424    423    439   1    109.5000    292.8800
    438    423    439   1    107.8000    276.1440
    423    424    425   1    120.4000    669.4400
    423    424    426   1    116.6000    585.7600
    425    424    426   1    122.9000    669.4400
    424    426    427   1    121.9000    418.4000
    424    426    440   1    119.8000    292.8800
    427    426    440   1    118.4000    317.9840
    426    427    428   1    110.7230    585.7600
    426    427    441   1    109.5000    292.8800
    426    427    442   1    109.5000    292.8800
    428    427    441   1    110.7000    313.8000
    428    427    442   1    110.7000    313.8000
    441    427    442   1    107.8000    276.1440
    427    428    429   1    112.7000    488.2728
    427    428    443   1    110.7000    313.8000
    427    428    444   1    110.7000    313.8000
    429    428    443   1    110.7000    313.8000
    429    428    444   1    110.7000    313.8000
    443    428    444   1    107.8000    276.1440
    428    429    430   1    112.7000    488.2728
    428    429    445   1    110.7000    313.8000
    428    429    446   1    110.7000    313.8000
    430    429    445   1    110.7000    313.8000
    430    429    446   1    110.7000    313.8000
    445    429    446   1    107.8000    276.1440
    429    430    431   1    110.7230    585.7600
    429    430    447   1    110.7000    313.8000
    429    430    448   1    110.7000    313.8000
    431    430    447   1    109.5000    292.8800
    431    430    448   1    109.5000    292.8800
    447    430    448   1    107.8000    276.1440
    430    431    449   1    118.4000    317.9840
    430    431    450   1    121.9000    418.4000
    449    431    450   1    119.8000    292.8800
    431    450    451   1    122.9000    669.4400
    431    450    452   1    116.6000    585.7600
    451    450    452   1    120.4000    669.4400
    450    452    453   1    111.1000    527.1840
    450    452    464   1    109.5000    292.8800
    450    452    465   1    109.5000    292.8800
    453    452    464   1    110.7000    313.8000
    453    452    465   1    110.7000    313.8000
    464    452    465   1    107.8000    276.1440
    452    453    454   1    112.7000    488.2728
    452    453    466   1    110.7000    313.8000
    452    453    467   1    110.7000    313.8000
    454    453    466   1    110.7000    313.8000
    454    453    467   1    110.7000    313.8000
    466    453    467   1    107.8000    276.1440
    453    454    455   1    112.7000    488.2728
    453    454    468   1    110.7000    313.8000
    453    454    469   1    110.7000    313.8000
    455    454    468   1    110.7000    313.8000
    455    454    469   1    110.7000    313.8000
    468    454    469   1    107.8000    276.1440
    454    455    456   1    111.1000    527.1840
    454    455    470   1    110.7000    313.8000
    454    455    471   1    110.7000    313.8000
    456    455    470   1    109.5000    292.8800
    456    455    471   1    109.5000    292.8800
    470    455    471   1    107.8000    276.1440
    455    456    457   1    120.4000    669.4400
    455    456    458   1    116.6000    585.7600
    457    456    458   1    122.9000    669.4400
    456    458    459   1    121.9000    418.4000
    456    458    472   1    119.8000    292.8800
    459    458    472   1    118.4000    317.9840
    458    459    460   1    110.7230    585.7600
    458    459    473   1    109.5000    292.8800
    458    459    474   1    109.5000    292.8800
    460    459    473   1    110.7000    313.8000
    460    459    474   1    110.7000    313.8000
    473    459    474   1    107.8000    276.1440
    459    460    461   1    112.7000    488.2728
    459    460    475   1    110.7000    313.8000
    459    460    476   1    110.7000    313.8000
    461    460    475   1    110.7000    313.8000
    461    460    476   1    110.7000    313.8000
    475    460    476   1    107.8000    276.1440
    460    461    462   1    112.7000    488.2728
    460    461    477   1    110.7000    313.8000
    460    461    478   1    110.7000    313.8000
    462    461    477   1    110.7000    313.8000
    462    461    478   1    110.7000    313.8000
    477    461    478   1    107.8000    276.1440
    461    462    463   1    110.7230    585.7600
    461    462    479   1    110.7000    313.8000
    461    462    480   1    110.7000    313.8000
    463    462    479   1    109.5000    292.8800
    463    462    480   1    109.5000    292.8800
    479    462    480   1    107.8000    276.1440
    462    463    481   1    118.4000    317.9840
    462    463    482   1    121.9000    418.4000
    481    463    482   1    119.8000    292.8800
    463    482    483   1    122.9000    669.4400
    463    482    484   1    116.6000    585.7600
    483    482    484   1    120.4000    669.4400
    482    484    485   1    111.1000    527.1840
    482    484    496   1    109.5000    292.8800
    482    484    497   1    109.5000    292.8800
    485    484    496   1    110.7000    313.8000
    485    484    497   1    110.7000    313.8000
    496    484    497   1    107.8000    276.1440
    484    485    486   1    112.7000    488.2728
    484    485    498   1    110.7000    313.8000
    484    485    499   1    110.7000    313.8000
    486    485    498   1    110.7000    313.8000
    486    485    499   1    110.7000    313.8000
    498    485    499   1    107.8000    276.1440
    485    486    487   1    112.7000    488.2728
    485    486    500   1    110.7000    313.8000
    485    486    501   1    110.7000    313.8000
    487    486    500   1    110.7000    313.8000
    487    486    501   1    110.7000    313.8000
    500    486    501   1    107.8000    276.1440
    486    487    488   1    111.1000    527.1840
    486    487    502   1    110.7000    313.8000
    486    487    503   1    110.7000    313.8000
    488    487    502   1    109.5000    292.8800
    488    487    503   1    109.5000    292.8800
    502    487    503   1    107.8000    276.1440
    487    488    489   1    120.4000    669.4400
    487    488    490   1    116.6000    585.7600
    489    488    490   1    122.9000    669.4400
    488    490    491   1    121.9000    418.4000
    488    490    504   1    119.8000    292.8800
    491    490    504   1    118.4000    317.9840
    490    491    492   1    110.7230    585.7600
    490    491    505   1    109.5000    292.8800
    490    491    506   1    109.5000    292.8800
    492    491    505   1    110.7000    313.8000
    492    491    506   1    110.7000    313.8000
    505    491    506   1    107.8000    276.1440
    491    492    493   1    112.7000    488.2728
    491    492    507   1    110.7000    313.8000
    491    492    508   1    110.7000    313.8000
    493    492    507   1    110.7000    313.8000
    493    492    508   1    110.7000    313.8000
    507    492    508   1    107.8000    276.1440
    492    493    494   1    112.7000    488.2728
    492    493    509   1    110.7000    313.8000
    492    493    510   1    110.7000    313.8000
    494    493    509   1    110.7000    313.8000
    494    493    510   1    110.7000    313.8000
    509    493    510   1    107.8000    276.1440
    493    494    495   1    110.7230    585.7600
    493    494    511   1    110.7000    313.8000
    493    494    512   1    110.7000    313.8000
    495    494    511   1    109.5000    292.8800
    495    494    512   1    109.5000    292.8800
    511    494    512   1    107.8000    276.1440
    494    495    513   1    118.4000    317.9840
    494    495    514   1    121.9000    418.4000
    513    495    514   1    119.8000    292.8800
    495    514    515   1    122.9000    669.4400
    495    514    516   1    116.6000    585.7600
    515    514    516   1    120.4000    669.4400
    514    516    517   1    111.1000    527.1840
    514    516    528   1    109.5000    292.8800
    514    516    529   1    109.5000    292.8800
    517    516    528   1    110.7000    313.8000
    517    516    529   1    110.7000    313.8000
    528    516    529   1    107.8000    276.1440
    516    517    518   1    112.7000    488.2728
    516    517    530   1    110.7000    313.8000
    516    517    531   1    110.7000    313.8000
    518    517    530   1    110.7000    313.8000
    518    517    531   1    110.7000    313.8000
    530    517    531   1    107.8000    276.1440
    517    518    519   1    112.7000    488.2728
    517    518    532   1    110.7000    313.8000
    517    518    533   1    110.7000    313.8000
    519    518    532   1    110.7000    313.8000
    519    518    533   1    110.7000    313.8000
    532    518    533   1    107.8000    276.1440
    518    519    520   1    111.1000    527.1840
    518    519    534   1    110.7000    313.8000
    518    519    535   1    110.7000    313.8000
    520    519    534   1    109.5000    292.8800
    520    519    535   1    109.5000    292.8800
    534    519    535   1    107.8000    276.1440
    519    520    521   1    120.4000    669.4400
    519    520    522   1    116.6000    585.7600
    521    520    522   1    122.9000    669.4400
    520    522    523   1    121.9000    418.4000
    520    522    536   1    119.8000    292.8800
    523    522    536   1    118.4000    317.9840
    522    523    524   1    110.7230    585.7600
    522    523    537   1    109.5000    292.8800
    522    523    538   1    109.5000    292.8800
    524    523    537   1    110.7000    313.8000
    524    523    538   1    110.7000    313.8000
    537    523    538   1    107.8000    276.1440
    523    524    525   1    112.7000    488.2728
    523    524    539   1    110.7000    313.8000
    523    524    540   1    110.7000    313.8000
    525    524    539   1    110.7000    313.8000
    525    524    540   1    110.7000    313.8000
    539    524    540   1    107.8000    276.1440
    524    525    526   1    112.7000    488.2728
    524    525    541   1    110.7000    313.8000
    524    525    542   1    110.7000    313.8000
    526    525    541   1    110.7000    313.8000
    526    525    542   1    110.7000    313.8000
    541    525    542   1    107.8000    276.1440
    525    526    527   1    110.7230    585.7600
    525    526    543   1    110.7000    313.8000
    525    526    544   1    110.7000    313.8000
    527    526    543   1    109.5000    292.8800
    527    526    544   1    109.5000    292.8800
    543    526    544   1    107.8000    276.1440
    526    527    545   1    118.4000    317.9840
    526    527    546   1    121.9000    418.4000
    545    527    546   1    119.8000    292.8800
    527    546    547   1    122.9000    669.4400
    527    546    548   1    116.6000    585.7600
    547    546    548   1    120.4000    669.4400
    546    548    549   1    111.1000    527.1840
    546    548    560   1    109.5000    292.8800
    546    548    561   1    109.5000    292.8800
    549    548    560   1    110.7000    313.8000
    549    548    561   1    110.7000    313.8000
    560    548    561   1    107.8000    276.1440
    548    549    550   1    112.7000    488.2728
    548    549    562   1    110.7000    313.8000
    548    549    563   1    110.7000    313.8000
    550    549    562   1    110.7000    313.8000
    550    549    563   1    110.7000    313.8000
    562    549    563   1    107.8000    276.1440
    549    550    551   1    112.7000    488.2728
    549    550    564   1    110.7000    313.8000
    549    550    565   1    110.7000    313.8000
    551    550    564   1    110.7000    313.8000
    551    550    565   1    110.7000    313.8000
    564    550    565   1    107.8000    276.1440
    550    551    552   1    111.1000    527.1840
    550    551    566   1    110.7000    313.8000
    550    551    567   1    110.7000    313.8000
    552    551    566   1    109.5000    292.8800
    552    551    567   1    109.5000    292.8800
    566    551    567   1    107.8000    276.1440
    551    552    553   1    120.4000    669.4400
    551    552    554   1    116.6000    585.7600
    553    552    554   1    122.9000    669.4400
    552    554    555   1    121.9000    418.4000
    552    554    568   1    119.8000    292.8800
    555    554    568   1    118.4000    317.9840
    554    555    556   1    110.7230    585.7600
    554    555    569   1    109.5000    292.8800
    554    555    570   1    109.5000    292.8800
    556    555    569   1    110.7000    313.8000
    556    555    570   1    110.7000    313.8000
    569    555    570   1    107.8000    276.1440
    555    556    557   1    112.7000    488.2728
    555    556    571   1    110.7000    313.8000
    555    556    572   1    110.7000    313.8000
    557    556    571   1    110.7000    313.8000
    557    556    572   1    110.7000    313.8000
    571    556    572   1    107.8000    276.1440
    556    557    558   1    112.7000    488.2728
    556    557    573   1    110.7000    313.8000
    556    557    574   1    110.7000    313.8000
    558    557    573   1    110.7000    313.8000
    558    557    574   1    110.7000    313.8000
    573    557    574   1    107.8000    276.1440
    557    558    559   1    110.7230    585.7600
    557    558    575   1    110.7000    313.8000
    557    558    576   1    110.7000    313.8000
    559    558    575   1    109.5000    292.8800
    559    558    576   1    109.5000    292.8800
    575    558    576   1    107.8000    276.1440
    558    559    577   1    118.4000    317.9840
    558    559    578   1    121.9000    418.4000
    577    559    578   1    119.8000    292.8800
    559    578    579   1    122.9000    669.4400
    559    578    580   1    116.6000    585.7600
    579    578    580   1    120.4000    669.4400
    578    580    581   1    111.1000    527.1840
    578    580    592   1    109.5000    292.8800
    578    580    593   1    109.5000    292.8800
    581    580    592   1    110.7000    313.8000
    581    580    593   1    110.7000    313.8000
    592    580    593   1    107.8000    276.1440
    580    581    582   1    112.7000    488.2728
    580    581    594   1    110.7000    313.8000
    580    581    595   1    110.7000    313.8000
    582    581    594   1    110.7000    313.8000
    582    581    595   1    110.7000    313.8000
    594    581    595   1    107.8000    276.1440
    581    582    583   1    112.7000    488.2728
    581    582    596   1    110.7000    313.8000
    581    582    597   1    110.7000    313.8000
    583    582    596   1    110.7000    313.8000
    583    582    597   1    110.7000    313.8000
    596    582    597   1    107.8000    276.1440
    582    583    584   1    111.1000    527.1840
    582    583    598   1    110.7000    313.8000
    582    583    599   1    110.7000    313.8000
    584    583    598   1    109.5000    292.8800
    584    583    599   1    109.5000    292.8800
    598    583    599   1    107.8000    276.1440
    583    584    585   1    120.4000    669.4400
    583    584    586   1    116.6000    585.7600
    585    584    586   1    122.9000    669.4400
    584    586    587   1    121.9000    418.4000
    584    586    600   1    119.8000    292.8800
    587    586    600   1    118.4000    317.9840
    586    587    588   1    110.7230    585.7600
    586    587    601   1    109.5000    292.8800
    586    587    602   1    109.5000    292.8800
    588    587    601   1    110.7000    313.8000
    588    587    602   1    110.7000    313.8000
    601    587    602   1    107.8000    276.1440
    587    588    589   1    112.7000    488.2728
    587    588    603   1    110.7000    313.8000
    587    588    604   1    110.7000    313.8000
    589    588    603   1    110.7000    313.8000
    589    588    604   1    110.7000    313.8000
    603    588    604   1    107.8000    276.1440
    588    589    590   1    112.7000    488.2728
    588    589    605   1    110.7000    313.8000
    588    589    606   1    110.7000    313.8000
    590    589    605   1    110.7000    313.8000
    590    589    606   1    110.7000    313.8000
    605    589    606   1    107.8000    276.1440
    589    590    591   1    110.7230    585.7600
    589    590    607   1    110.7000    313.8000
    589    590    608   1    110.7000    313.8000
    591    590    607   1    109.5000    292.8800
    591    590    608   1    109.5000    292.8800
    607    590    608   1    107.8000    276.1440
    590    591    609   1    118.4000    317.9840
    590    591    610   1    121.9000    418.4000
    609    591    610   1    119.8000    292.8800
    591    610    611   1    122.9000    669.4400
    591    610    612   1    116.6000    585.7600
    611    610    612   1    120.4000    669.4400
    610    612    613   1    111.1000    527.1840
    610    612    624   1    109.5000    292.8800
    610    612    625   1    109.5000    292.8800
    613    612    624   1    110.7000    313.8000
    613    612    625   1    110.7000    313.8000
    624    612    625   1    107.8000    276.1440
    612    613    614   1    112.7000    488.2728
    612    613    626   1    110.7000    313.8000
    612    613    627   1    110.7000    313.8000
    614    613    626   1    110.7000    313.8000
    614    613    627   1    110.7000    313.8000
    626    613    627   1    107.8000    276.1440
    613    614    615   1    112.7000    488.2728
    613    614    628   1    110.7000    313.8000
    613    614    629   1    110.7000    313.8000
    615    614    628   1    110.7000    313.8000
    615    614    629   1    110.7000    313.8000
    628    614    629   1    107.8000    276.1440
    614    615    616   1    111.1000    527.1840
    614    615    630   1    110.7000    313.8000
    614    615    631   1    110.7000    313.8000
    616    615    630   1    109.5000    292.8800
    616    615    631   1    109.5000    292.8800
    630    615    631   1    107.8000    276.1440
    615    616    617   1    120.4000    669.4400
    615    616    618   1    116.6000    585.7600
    617    616    618   1    122.9000    669.4400
    616    618    619   1    121.9000    418.4000
    616    618    632   1    119.8000    292.8800
    619    618    632   1    118.4000    317.9840
    618    619    620   1    110.7230    585.7600
    618    619    633   1    109.5000    292.8800
    618    619    634   1    109.5000    292.8800
    620    619    633   1    110.7000    313.8000
    620    619    634   1    110.7000    313.8000
    633    619    634   1    107.8000    276.1440
    619    620    621   1    112.7000    488.2728
    619    620    635   1    110.7000    313.8000
    619    620    636   1    110.7000    313.8000
    621    620    635   1    110.7000    313.8000
    621    620    636   1    110.7000    313.8000
    635    620    636   1    107.8000    276.1440
    620    621    622   1    112.7000    488.2728
    620    621    637   1    110.7000    313.8000
    620    621    638   1    110.7000    313.8000
    622    621    637   1    110.7000    313.8000
    622    621    638   1    110.7000    313.8000
    637    621    638   1    107.8000    276.1440
    621    622    623   1    109.4700    470.2816
    621    622    639   1    110.7000    313.8000
    621    622    640   1    110.7000    313.8000
    623    622    639   1    109.5000    292.8800
    623    622    640   1    109.5000    292.8800
    639    622    640   1    107.8000    276.1440
    622    623    641   1    109.5000    292.8800
    622    623    642   1    109.5000    292.8800
    641    623    642   1    106.4000    364.8448

[ dihedrals ]
; Proper dihedrals
      2      1      3      4   5     0.00000     2.52295     0.00000  0.0
      2      1      3     15   5     0.00000     0.00000     0.00000  0.0
      2      1      3     16   5     0.00000     0.00000     0.00000  0.0
     33      1      3      4   5     6.23834    -0.04184     0.00000  0.0
     33      1      3     15   5     0.00000     0.00000     0.00000  0.0
     33      1      3     16   5     0.00000     0.00000     0.00000  0.0
      1      3      4      5   5    -8.00818    -1.52298     2.46438  0.0
      1      3      4     17   5     0.00000     0.00000    -0.94140  0.0
      1      3      4     18   5     0.00000     0.00000    -0.94140  0.0
     15      3      4      5   5     0.00000     0.00000     1.25520  0.0
     15      3      4     17   5     0.00000     0.00000     1.25520  0.0
     15      3      4     18   5     0.00000     0.00000     1.25520  0.0
     16      3      4      5   5     0.00000     0.00000     1.25520  0.0
     16      3      4     17   5     0.00000     0.00000     1.25520  0.0
     16      3      4     18   5     0.00000     0.00000     1.25520  0.0
      3      4      5      6   5     4.74884    -0.63178     1.67360  0.0
      3      4      5     19   5     0.00000     0.00000     1.25520  0.0
      3      4      5     20   5     0.00000     0.00000     1.25520  0.0
     17      4      5      6   5     0.00000     0.00000     1.25520  0.0
     17      4      5     19   5     0.00000     0.00000     1.25520  0.0
     17      4      5     20   5     0.00000     0.00000     1.25520  0.0
     18      4      5      6   5     0.00000     0.00000     1.25520  0.0
     18      4      5     19   5     0.00000     0.00000     1.25520  0.0
     18      4      5     20   5     0.00000     0.00000     1.25520  0.0
      4      5      6      7   5    -8.00818    -1.52298     2.46438  0.0
      4      5      6     21   5     0.00000     0.00000     1.25520  0.0
      4      5      6     22   5     0.00000     0.00000     1.25520  0.0
     19      5      6      7   5     0.00000     0.00000    -0.94140  0.0
     19      5      6     21   5     0.00000     0.00000     1.25520  0.0
     19      5      6     22   5     0.00000     0.00000     1.25520  0.0
     20      5      6      7   5     0.00000     0.00000    -0.94140  0.0
     20      5      6     21   5     0.00000     0.00000     1.25520  0.0
     20      5      6     22   5     0.00000     0.00000     1.25520  0.0
      5      6      7      8   5     0.00000     2.52295     0.00000  0.0
      5      6      7      9   5    11.69428    -0.66526    -1.56900  0.0
     21      6      7      8   5     0.00000     0.00000     0.00000  0.0
     21      6      7      9   5     0.00000     0.00000     0.00000  0.0
     22      6      7      8   5     0.00000     0.00000     0.00000  0.0
     22      6      7      9   5     0.00000     0.00000     0.00000  0.0
      6      7      9     10   5    12.53945    12.88254     0.00000  0.0
      6      7      9     23   5     0.00000    20.50160     0.00000  0.0
      8      7      9     10   5     0.00000    25.47638     0.00000  0.0
      8      7      9     23   5     0.00000    20.50160     0.00000  0.0
      7      9     10     11   5    -3.67774    -0.67781     0.28033  0.0
      7      9     10     24   5     0.00000     0.00000     0.00000  0.0
      7      9     10     25   5     0.00000     0.00000     0.00000  0.0
     23      9     10     11   5     0.00000     0.00000     0.00000  0.0
     23      9     10     24   5     0.00000     0.00000     0.00000  0.0
     23      9     10     25   5     0.00000     0.00000     0.00000  0.0
      9     10     11     12   5     3.67355     4.10869     2.37651  0.0
      9     10     11     26   5     0.00000     0.00000     1.25520  0.0
      9     10     11     27   5     0.00000     0.00000     1.25520  0.0
     24     10     11     12   5     0.00000     0.00000     1.25520  0.0
     24     10     11     26   5     0.00000     0.00000     1.25520  0.0
     24     10     11     27   5     0.00000     0.00000     1.25520  0.0
     25     10     11     12   5     0.00000     0.00000     1.25520  0.0
     25     10     11     26   5     0.00000     0.00000     1.25520  0.0
     25     10     11     27   5     0.00000     0.00000     1.25520  0.0
     10     11     12     13   5     4.74884    -0.63178     1.67360  0.0
     10     11     12     28   5     0.00000     0.00000     1.25520  0.0
     10     11     12     29   5     0.00000     0.00000     1.25520  0.0
     26     11     12     13   5     0.00000     0.00000     1.25520  0.0
     26     11     12     28   5     0.00000     0.00000     1.25520  0.0
     26     11     12     29   5     0.00000     0.00000     1.25520  0.0
     27     11     12     13   5     0.00000     0.00000     1.25520  0.0
     27     11     12     28   5     0.00000     0.00000     1.25520  0.0
     27     11     12     29   5     0.00000     0.00000     1.25520  0.0
     11     12     13     14   5     3.67355     4.10869     2.37651  0.0
     11     12     13     30   5     0.00000     0.00000     1.25520  0.0
     11     12     13     31   5     0.00000     0.00000     1.25520  0.0
     28     12     13     14   5     0.00000     0.00000     1.25520  0.0
     28     12     13     30   5     0.00000     0.00000     1.25520  0.0
     28     12     13     31   5     0.00000     0.00000     1.25520  0.0
     29     12     13     14   5     0.00000     0.00000     1.25520  0.0
     29     12     13     30   5     0.00000     0.00000     1.25520  0.0
     29     12     13     31   5     0.00000     0.00000     1.25520  0.0
     12     13     14     32   5     0.00000     0.00000     0.00000  0.0
     12     13     14     34   5    -3.67774    -0.67781     0.28033  0.0
     30     13     14     32   5     0.00000     0.00000     0.00000  0.0
     30     13     14     34   5     0.00000     0.00000     0.00000  0.0
     31     13     14     32   5     0.00000     0.00000     0.00000  0.0
     31     13     14     34   5     0.00000     0.00000     0.00000  0.0
     13     14     34     35   5     0.00000    25.47638     0.00000  0.0
     13     14     34     36   5    12.53945    12.88254     0.00000  0.0
     32     14     34     35   5     0.00000    20.50160     0.00000  0.0
     32     14     34     36   5     0.00000    20.50160     0.00000  0.0
     14     34     36     37   5    11.69428    -0.66526    -1.56900  0.0
     14     34     36     48   5     0.00000     0.00000     0.00000  0.0
     14     34     36     49   5     0.00000     0.00000     0.00000  0.0
     35     34     36     37   5     0.00000     2.52295     0.00000  0.0
     35     34     36     48   5     0.00000     0.00000     0.00000  0.0
     35     34     36     49   5     0.00000     0.00000     0.00000  0.0
     34     36     37     38   5    -8.00818    -1.52298     2.46438  0.0
     34     36     37     50   5     0.00000     0.00000    -0.94140  0.0
     34     36     37     51   5     0.00000     0.00000    -0.94140  0.0
     48     36     37     38   5     0.00000     0.00000     1.25520  0.0
     48     36     37     50   5     0.00000     0.00000     1.25520  0.0
     48     36     37     51   5     0.00000     0.00000     1.25520  0.0
     49     36     37     38   5     0.00000     0.00000     1.25520  0.0
     49     36     37     50   5     0.00000     0.00000     1.25520  0.0
     49     36     37     51   5     0.00000     0.00000     1.25520  0.0
     36     37     38     39   5     4.74884    -0.63178     1.67360  0.0
     36     37     38     52   5     0.00000     0.00000     1.25520  0.0
     36     37     38     53   5     0.00000     0.00000     1.25520  0.0
     50     37     38     39   5     0.00000     0.00000     1.25520  0.0
     50     37     38     52   5     0.00000     0.00000     1.25520  0.0
     50     37     38     53   5     0.00000     0.00000     1.25520  0.0
     51     37     38     39   5     0.00000     0.00000     1.25520  0.0
     51     37     38     52   5     0.00000     0.00000     1.25520  0.0
     51     37     38     53   5     0.00000     0.00000     1.25520  0.0
     37     38     39     40   5    -8.00818    -1.52298     2.46438  0.0
     37     38     39     54   5     0.00000     0.00000     1.25520  0.0
     37     38     39     55   5     0.00000     0.00000     1.25520  0.0
     52     38     39     40   5     0.00000     0.00000    -0.94140  0.0
     52     38     39     54   5     0.00000     0.00000     1.25520  0.0
     52     38     39     55   5     0.00000     0.00000     1.25520  0.0
     53     38     39     40   5     0.00000     0.00000    -0.94140  0.0
     53     38     39     54   5     0.00000     0.00000     1.25520  0.0
     53     38     39     55   5     0.00000     0.00000     1.25520  0.0
     38     39     40     41   5     0.00000     2.52295     0.00000  0.0
     38     39     40     42   5    11.69428    -0.66526    -1.56900  0.0
     54     39     40     41   5     0.00000     0.00000     0.00000  0.0
     54     39     40     42   5     0.00000     0.00000     0.00000  0.0
     55     39     40     41   5     0.00000     0.00000     0.00000  0.0
     55     39     40     42   5     0.00000     0.00000     0.00000  0.0
     39     40     42     43   5    12.53945    12.88254     0.00000  0.0
     39     40     42     56   5     0.00000    20.50160     0.00000  0.0
     41     40     42     43   5     0.00000    25.47638     0.00000  0.0
     41     40     42     56   5     0.00000    20.50160     0.00000  0.0
     40     42     43     44   5    -3.67774    -0.67781     0.28033  0.0
     40     42     43     57   5     0.00000     0.00000     0.00000  0.0
     40     42     43     58   5     0.00000     0.00000     0.00000  0.0
     56     42     43     44   5     0.00000     0.00000     0.00000  0.0
     56     42     43     57   5     0.00000     0.00000     0.00000  0.0
     56     42     43     58   5     0.00000     0.00000     0.00000  0.0
     42     43     44     45   5     3.67355     4.10869     2.37651  0.0
     42     43     44     59   5     0.00000     0.00000     1.25520  0.0
     42     43     44     60   5     0.00000     0.00000     1.25520  0.0
     57     43     44     45   5     0.00000     0.00000     1.25520  0.0
     57     43     44     59   5     0.00000     0.00000     1.25520  0.0
     57     43     44     60   5     0.00000     0.00000     1.25520  0.0
     58     43     44     45   5     0.00000     0.00000     1.25520  0.0
     58     43     44     59   5     0.00000     0.00000     1.25520  0.0
     58     43     44     60   5     0.00000     0.00000     1.25520  0.0
     43     44     45     46   5     4.74884    -0.63178     1.67360  0.0
     43     44     45     61   5     0.00000     0.00000     1.25520  0.0
     43     44     45     62   5     0.00000     0.00000     1.25520  0.0
     59     44     45     46   5     0.00000     0.00000     1.25520  0.0
     59     44     45     61   5     0.00000     0.00000     1.25520  0.0
     59     44     45     62   5     0.00000     0.00000     1.25520  0.0
     60     44     45     46   5     0.00000     0.00000     1.25520  0.0
     60     44     45     61   5     0.00000     0.00000     1.25520  0.0
     60     44     45     62   5     0.00000     0.00000     1.25520  0.0
     44     45     46     47   5     3.67355     4.10869     2.37651  0.0
     44     45     46     63   5     0.00000     0.00000     1.25520  0.0
     44     45     46     64   5     0.00000     0.00000     1.25520  0.0
     61     45     46     47   5     0.00000     0.00000     1.25520  0.0
     61     45     46     63   5     0.00000     0.00000     1.25520  0.0
     61     45     46     64   5     0.00000     0.00000     1.25520  0.0
     62     45     46     47   5     0.00000     0.00000     1.25520  0.0
     62     45     46     63   5     0.00000     0.00000     1.25520  0.0
     62     45     46     64   5     0.00000     0.00000     1.25520  0.0
     45     46     47     65   5     0.00000     0.00000     0.00000  0.0
     45     46     47     66   5    -3.67774    -0.67781     0.28033  0.0
     63     46     47     65   5     0.00000     0.00000     0.00000  0.0
     63     46     47     66   5     0.00000     0.00000     0.00000  0.0
     64     46     47     65   5     0.00000     0.00000     0.00000  0.0
     64     46     47     66   5     0.00000     0.00000     0.00000  0.0
     46     47     66     67   5     0.00000    25.47638     0.00000  0.0
     46     47     66     68   5    12.53945    12.88254     0.00000  0.0
     65     47     66     67   5     0.00000    20.50160     0.00000  0.0
     65     47     66     68   5     0.00000    20.50160     0.00000  0.0
     47     66     68     69   5    11.69428    -0.66526    -1.56900  0.0
     47     66     68     80   5     0.00000     0.00000     0.00000  0.0
     47     66     68     81   5     0.00000     0.00000     0.00000  0.0
     67     66     68     69   5     0.00000     2.52295     0.00000  0.0
     67     66     68     80   5     0.00000     0.00000     0.00000  0.0
     67     66     68     81   5     0.00000     0.00000     0.00000  0.0
     66     68     69     70   5    -8.00818    -1.52298     2.46438  0.0
     66     68     69     82   5     0.00000     0.00000    -0.94140  0.0
     66     68     69     83   5     0.00000     0.00000    -0.94140  0.0
     80     68     69     70   5     0.00000     0.00000     1.25520  0.0
     80     68     69     82   5     0.00000     0.00000     1.25520  0.0
     80     68     69     83   5     0.00000     0.00000     1.25520  0.0
     81     68     69     70   5     0.00000     0.00000     1.25520  0.0
     81     68     69     82   5     0.00000     0.00000     1.25520  0.0
     81     68     69     83   5     0.00000     0.00000     1.25520  0.0
     68     69     70     71   5     4.74884    -0.63178     1.67360  0.0
     68     69     70     84   5     0.00000     0.00000     1.25520  0.0
     68     69     70     85   5     0.00000     0.00000     1.25520  0.0
     82     69     70     71   5     0.00000     0.00000     1.25520  0.0
     82     69     70     84   5     0.00000     0.00000     1.25520  0.0
     82     69     70     85   5     0.00000     0.00000     1.25520  0.0
     83     69     70     71   5     0.00000     0.00000     1.25520  0.0
     83     69     70     84   5     0.00000     0.00000     1.25520  0.0
     83     69     70     85   5     0.00000     0.00000     1.25520  0.0
     69     70     71     72   5    -8.00818    -1.52298     2.46438  0.0
     69     70     71     86   5     0.00000     0.00000     1.25520  0.0
     69     70     71     87   5     0.00000     0.00000     1.25520  0.0
     84     70     71     72   5     0.00000     0.00000    -0.94140  0.0
     84     70     71     86   5     0.00000     0.00000     1.25520  0.0
     84     70     71     87   5     0.00000     0.00000     1.25520  0.0
     85     70     71     72   5     0.00000     0.00000    -0.94140  0.0
     85     70     71     86   5     0.00000     0.00000     1.25520  0.0
     85     70     71     87   5     0.00000     0.00000     1.25520  0.0
     70     71     72     73   5     0.00000     2.52295     0.00000  0.0
     70     71     72     74   5    11.69428    -0.66526    -1.56900  0.0
     86     71     72     73   5     0.00000     0.00000     0.00000  0.0
     86     71     72     74   5     0.00000     0.00000     0.00000  0.0
     87     71     72     73   5     0.00000     0.00000     0.00000  0.0
     87     71     72     74   5     0.00000     0.00000     0.00000  0.0
     71     72     74     75   5    12.53945    12.88254     0.00000  0.0
     71     72     74     88   5     0.00000    20.50160     0.00000  0.0
     73     72     74     75   5     0.00000    25.47638     0.00000  0.0
     73     72     74     88   5     0.00000    20.50160     0.00000  0.0
     72     74     75     76   5    -3.67774    -0.67781     0.28033  0.0
     72     74     75     89   5     0.00000     0.00000     0.00000  0.0
     72     74     75     90   5     0.00000     0.00000     0.00000  0.0
     88     74     75     76   5     0.00000     0.00000     0.00000  0.0
     88     74     75     89   5     0.00000     0.00000     0.00000  0.0
     88     74     75     90   5     0.00000     0.00000     0.00000  0.0
     74     75     76     77   5     3.67355     4.10869     2.37651  0.0
     74     75     76     91   5     0.00000     0.00000     1.25520  0.0
     74     75     76     92   5     0.00000     0.00000     1.25520  0.0
     89     75     76     77   5     0.00000     0.00000     1.25520  0.0
     89     75     76     91   5     0.00000     0.00000     1.25520  0.0
     89     75     76     92   5     0.00000     0.00000     1.25520  0.0
     90     75     76     77   5     0.00000     0.00000     1.25520  0.0
     90     75     76     91   5     0.00000     0.00000     1.25520  0.0
     90     75     76     92   5     0.00000     0.00000     1.25520  0.0
     75     76     77     78   5     4.74884    -0.63178     1.67360  0.0
     75     76     77     93   5     0.00000     0.00000     1.25520  0.0
     75     76     77     94   5     0.00000     0.00000     1.25520  0.0
     91     76     77     78   5     0.00000     0.00000     1.25520  0.0
     91     76     77     93   5     0.00000     0.00000     1.25520  0.0
     91     76     77     94   5     0.00000     0.00000     1.25520  0.0
     92     76     77     78   5     0.00000     0.00000     1.25520  0.0
     92     76     77     93   5     0.00000     0.00000     1.25520  0.0
     92     76     77     94   5     0.00000     0.00000     1.25520  0.0
     76     77     78     79   5     3.67355     4.10869     2.37651  0.0
     76     77     78     95   5     0.00000     0.00000     1.25520  0.0
     76     77     78     96   5     0.00000     0.00000     1.25520  0.0
     93     77     78     79   5     0.00000     0.00000     1.25520  0.0
     93     77     78     95   5     0.00000     0.00000     1.25520  0.0
     93     77     78     96   5     0.00000     0.00000     1.25520  0.0
     94     77     78     79   5     0.00000     0.00000     1.25520  0.0
     94     77     78     95   5     0.00000     0.00000     1.25520  0.0
     94     77     78     96   5     0.00000     0.00000     1.25520  0.0
     77     78     79     97   5     0.00000     0.00000     0.00000  0.0
     77     78     79     98   5    -3.67774    -0.67781     0.28033  0.0
     95     78     79     97   5     0.00000     0.00000     0.00000  0.0
     95     78     79     98   5     0.00000     0.00000     0.00000  0.0
     96     78     79     97   5     0.00000     0.00000     0.00000  0.0
     96     78     79     98   5     0.00000     0.00000     0.00000  0.0
     78     79     98     99   5     0.00000    25.47638     0.00000  0.0
     78     79     98    100   5    12.53945    12.88254     0.00000  0.0
     97     79     98     99   5     0.00000    20.50160     0.00000  0.0
     97     79     98    100   5     0.00000    20.50160     0.00000  0.0
     79     98    100    101   5    11.69428    -0.66526    -1.56900  0.0
     79     98    100    112   5     0.00000     0.00000     0.00000  0.0
     79     98    100    113   5     0.00000     0.00000     0.00000  0.0
     99     98    100    101   5     0.00000     2.52295     0.00000  0.0
     99     98    100    112   5     0.00000     0.00000     0.00000  0.0
     99     98    100    113   5     0.00000     0.00000     0.00000  0.0
     98    100    101    102   5    -8.00818    -1.52298     2.46438  0.0
     98    100    101    114   5     0.00000     0.00000    -0.94140  0.0
     98    100    101    115   5     0.00000     0.00000    -0.94140  0.0
    112    100    101    102   5     0.00000     0.00000     1.25520  0.0
    112    100    101    114   5     0.00000     0.00000     1.25520  0.0
    112    100    101    115   5     0.00000     0.00000     1.25520  0.0
    113    100    101    102   5     0.00000     0.00000     1.25520  0.0
    113    100    101    114   5     0.00000     0.00000     1.25520  0.0
    113    100    101    115   5     0.00000     0.00000     1.25520  0.0
    100    101    102    103   5     4.74884    -0.63178     1.67360  0.0
    100    101    102    116   5     0.00000     0.00000     1.25520  0.0
    100    101    102    117   5     0.00000     0.00000     1.25520  0.0
    114    101    102    103   5     0.00000     0.00000     1.25520  0.0
    114    101    102    116   5     0.00000     0.00000     1.25520  0.0
    114    101    102    117   5     0.00000     0.00000     1.25520  0.0
    115    101    102    103   5     0.00000     0.00000     1.25520  0.0
    115    101    102    116   5     0.00000     0.00000     1.25520  0.0
    115    101    102    117   5     0.00000     0.00000     1.25520  0.0
    101    102    103    104   5    -8.00818    -1.52298     2.46438  0.0
    101    102    103    118   5     0.00000     0.00000     1.25520  0.0
    101    102    103    119   5     0.00000     0.00000     1.25520  0.0
    116    102    103    104   5     0.00000     0.00000    -0.94140  0.0
    116    102    103    118   5     0.00000     0.00000     1.25520  0.0
    116    102    103    119   5     0.00000     0.00000     1.25520  0.0
    117    102    103    104   5     0.00000     0.00000    -0.94140  0.0
    117    102    103    118   5     0.00000     0.00000     1.25520  0.0
    117    102    103    119   5     0.00000     0.00000     1.25520  0.0
    102    103    104    105   5     0.00000     2.52295     0.00000  0.0
    102    103    104    106   5    11.69428    -0.66526    -1.56900  0.0
    118    103    104    105   5     0.00000     0.00000     0.00000  0.0
    118    103    104    106   5     0.00000     0.00000     0.00000  0.0
    119    103    104    105   5     0.00000     0.00000     0.00000  0.0
    119    103    104    106   5     0.00000     0.00000     0.00000  0.0
    103    104    106    107   5    12.53945    12.88254     0.00000  0.0
    103    104    106    120   5     0.00000    20.50160     0.00000  0.0
    105    104    106    107   5     0.00000    25.47638     0.00000  0.0
    105    104    106    120   5     0.00000    20.50160     0.00000  0.0
    104    106    107    108   5    -3.67774    -0.67781     0.28033  0.0
    104    106    107    121   5     0.00000     0.00000     0.00000  0.0
    104    106    107    122   5     0.00000     0.00000     0.00000  0.0
    120    106    107    108   5     0.00000     0.00000     0.00000  0.0
    120    106    107    121   5     0.00000     0.00000     0.00000  0.0
    120    106    107    122   5     0.00000     0.00000     0.00000  0.0
    106    107    108    109   5     3.67355     4.10869     2.37651  0.0
    106    107    108    123   5     0.00000     0.00000     1.25520  0.0
    106    107    108    124   5     0.00000     0.00000     1.25520  0.0
    121    107    108    109   5     0.00000     0.00000     1.25520  0.0
    121    107    108    123   5     0.00000     0.00000     1.25520  0.0
    121    107    108    124   5     0.00000     0.00000     1.25520  0.0
    122    107    108    109   5     0.00000     0.00000     1.25520  0.0
    122    107    108    123   5     0.00000     0.00000     1.25520  0.0
    122    107    108    124   5     0.00000     0.00000     1.25520  0.0
    107    108    109    110   5     4.74884    -0.63178     1.67360  0.0
    107    108    109    125   5     0.00000     0.00000     1.25520  0.0
    107    108    109    126   5     0.00000     0.00000     1.25520  0.0
    123    108    109    110   5     0.00000     0.00000     1.25520  0.0
    123    108    109    125   5     0.00000     0.00000     1.25520  0.0
    123    108    109    126   5     0.00000     0.00000     1.25520  0.0
    124    108    109    110   5     0.00000     0.00000     1.25520  0.0
    124    108    109    125   5     0.00000     0.00000     1.25520  0.0
    124    108    109    126   5     0.00000     0.00000     1.25520  0.0
    108    109    110    111   5     3.67355     4.10869     2.37651  0.0
    108    109    110    127   5     0.00000     0.00000     1.25520  0.0
    108    109    110    128   5     0.00000     0.00000     1.25520  0.0
    125    109    110    111   5     0.00000     0.00000     1.25520  0.0
    125    109    110    127   5     0.00000     0.00000     1.25520  0.0
    125    109    110    128   5     0.00000     0.00000     1.25520  0.0
    126    109    110    111   5     0.00000     0.00000     1.25520  0.0
    126    109    110    127   5     0.00000     0.00000     1.25520  0.0
    126    109    110    128   5     0.00000     0.00000     1.25520  0.0
    109    110    111    129   5     0.00000     0.00000     0.00000  0.0
    109    110    111    130   5    -3.67774    -0.67781     0.28033  0.0
    127    110    111    129   5     0.00000     0.00000     0.00000  0.0
    127    110    111    130   5     0.00000     0.00000     0.00000  0.0
    128    110    111    129   5     0.00000     0.00000     0.00000  0.0
    128    110    111    130   5     0.00000     0.00000     0.00000  0.0
    110    111    130    131   5     0.00000    25.47638     0.00000  0.0
    110    111    130    132   5    12.53945    12.88254     0.00000  0.0
    129    111    130    131   5     0.00000    20.50160     0.00000  0.0
    129    111    130    132   5     0.00000    20.50160     0.00000  0.0
    111    130    132    133   5    11.69428    -0.66526    -1.56900  0.0
    111    130    132    144   5     0.00000     0.00000     0.00000  0.0
    111    130    132    145   5     0.00000     0.00000     0.00000  0.0
    131    130    132    133   5     0.00000     2.52295     0.00000  0.0
    131    130    132    144   5     0.00000     0.00000     0.00000  0.0
    131    130    132    145   5     0.00000     0.00000     0.00000  0.0
    130    132    133    134   5    -8.00818    -1.52298     2.46438  0.0
    130    132    133    146   5     0.00000     0.00000    -0.94140  0.0
    130    132    133    147   5     0.00000     0.00000    -0.94140  0.0
    144    132    133    134   5     0.00000     0.00000     1.25520  0.0
    144    132    133    146   5     0.00000     0.00000     1.25520  0.0
    144    132    133    147   5     0.00000     0.00000     1.25520  0.0
    145    132    133    134   5     0.00000     0.00000     1.25520  0.0
    145    132    133    146   5     0.00000     0.00000     1.25520  0.0
    145    132    133    147   5     0.00000     0.00000     1.25520  0.0
    132    133    134    135   5     4.74884    -0.63178     1.67360  0.0
    132    133    134    148   5     0.00000     0.00000     1.25520  0.0
    132    133    134    149   5     0.00000     0.00000     1.25520  0.0
    146    133    134    135   5     0.00000     0.00000     1.25520  0.0
    146    133    134    148   5     0.00000     0.00000     1.25520  0.0
    146    133    134    149   5     0.00000     0.00000     1.25520  0.0
    147    133    134    135   5     0.00000     0.00000     1.25520  0.0
    147    133    134    148   5     0.00000     0.00000     1.25520  0.0
    147    133    134    149   5     0.00000     0.00000     1.25520  0.0
    133    134    135    136   5    -8.00818    -1.52298     2.46438  0.0
    133    134    135    150   5     0.00000     0.00000     1.25520  0.0
    133    134    135    151   5     0.00000     0.00000     1.25520  0.0
    148    134    135    136   5     0.00000     0.00000    -0.94140  0.0
    148    134    135    150   5     0.00000     0.00000     1.25520  0.0
    148    134    135    151   5     0.00000     0.00000     1.25520  0.0
    149    134    135    136   5     0.00000     0.00000    -0.94140  0.0
    149    134    135    150   5     0.00000     0.00000     1.25520  0.0
    149    134    135    151   5     0.00000     0.00000     1.25520  0.0
    134    135    136    137   5     0.00000     2.52295     0.00000  0.0
    134    135    136    138   5    11.69428    -0.66526    -1.56900  0.0
    150    135    136    137   5     0.00000     0.00000     0.00000  0.0
    150    135    136    138   5     0.00000     0.00000     0.00000  0.0
    151    135    136    137   5     0.00000     0.00000     0.00000  0.0
    151    135    136    138   5     0.00000     0.00000     0.00000  0.0
    135    136    138    139   5    12.53945    12.88254     0.00000  0.0
    135    136    138    152   5     0.00000    20.50160     0.00000  0.0
    137    136    138    139   5     0.00000    25.47638     0.00000  0.0
    137    136    138    152   5     0.00000    20.50160     0.00000  0.0
    136    138    139    140   5    -3.67774    -0.67781     0.28033  0.0
    136    138    139    153   5     0.00000     0.00000     0.00000  0.0
    136    138    139    154   5     0.00000     0.00000     0.00000  0.0
    152    138    139    140   5     0.00000     0.00000     0.00000  0.0
    152    138    139    153   5     0.00000     0.00000     0.00000  0.0
    152    138    139    154   5     0.00000     0.00000     0.00000  0.0
    138    139    140    141   5     3.67355     4.10869     2.37651  0.0
    138    139    140    155   5     0.00000     0.00000     1.25520  0.0
    138    139    140    156   5     0.00000     0.00000     1.25520  0.0
    153    139    140    141   5     0.00000     0.00000     1.25520  0.0
    153    139    140    155   5     0.00000     0.00000     1.25520  0.0
    153    139    140    156   5     0.00000     0.00000     1.25520  0.0
    154    139    140    141   5     0.00000     0.00000     1.25520  0.0
    154    139    140    155   5     0.00000     0.00000     1.25520  0.0
    154    139    140    156   5     0.00000     0.00000     1.25520  0.0
    139    140    141    142   5     4.74884    -0.63178     1.67360  0.0
    139    140    141    157   5     0.00000     0.00000     1.25520  0.0
    139    140    141    158   5     0.00000     0.00000     1.25520  0.0
    155    140    141    142   5     0.00000     0.00000     1.25520  0.0
    155    140    141    157   5     0.00000     0.00000     1.25520  0.0
    155    140    141    158   5     0.00000     0.00000     1.25520  0.0
    156    140    141    142   5     0.00000     0.00000     1.25520  0.0
    156    140    141    157   5     0.00000     0.00000     1.25520  0.0
    156    140    141    158   5     0.00000     0.00000     1.25520  0.0
    140    141    142    143   5     3.67355     4.10869     2.37651  0.0
    140    141    142    159   5     0.00000     0.00000     1.25520  0.0
    140    141    142    160   5     0.00000     0.00000     1.25520  0.0
    157    141    142    143   5     0.00000     0.00000     1.25520  0.0
    157    141    142    159   5     0.00000     0.00000     1.25520  0.0
    157    141    142    160   5     0.00000     0.00000     1.25520  0.0
    158    141    142    143   5     0.00000     0.00000     1.25520  0.0
    158    141    142    159   5     0.00000     0.00000     1.25520  0.0
    158    141    142    160   5     0.00000     0.00000     1.25520  0.0
    141    142    143    161   5     0.00000     0.00000     0.00000  0.0
    141    142    143    162   5    -3.67774    -0.67781     0.28033  0.0
    159    142    143    161   5     0.00000     0.00000     0.00000  0.0
    159    142    143    162   5     0.00000     0.00000     0.00000  0.0
    160    142    143    161   5     0.00000     0.00000     0.00000  0.0
    160    142    143    162   5     0.00000     0.00000     0.00000  0.0
    142    143    162    163   5     0.00000    25.47638     0.00000  0.0
    142    143    162    164   5    12.53945    12.88254     0.00000  0.0
    161    143    162    163   5     0.00000    20.50160     0.00000  0.0
    161    143    162    164   5     0.00000    20.50160     0.00000  0.0
    143    162    164    165   5    11.69428    -0.66526    -1.56900  0.0
    143    162    164    176   5     0.00000     0.00000     0.00000  0.0
    143    162    164    177   5     0.00000     0.00000     0.00000  0.0
    163    162    164    165   5     0.00000     2.52295     0.00000  0.0
    163    162    164    176   5     0.00000     0.00000     0.00000  0.0
    163    162    164    177   5     0.00000     0.00000     0.00000  0.0
    162    164    165    166   5    -8.00818    -1.52298     2.46438  0.0
    162    164    165    178   5     0.00000     0.00000    -0.94140  0.0
    162    164    165    179   5     0.00000     0.00000    -0.94140  0.0
    176    164    165    166   5     0.00000     0.00000     1.25520  0.0
    176    164    165    178   5     0.00000     0.00000     1.25520  0.0
    176    164    165    179   5     0.00000     0.00000     1.25520  0.0
    177    164    165    166   5     0.00000     0.00000     1.25520  0.0
    177    164    165    178   5     0.00000     0.00000     1.25520  0.0
    177    164    165    179   5     0.00000     0.00000     1.25520  0.0
    164    165    166    167   5     4.74884    -0.63178     1.67360  0.0
    164    165    166    180   5     0.00000     0.00000     1.25520  0.0
    164    165    166    181   5     0.00000     0.00000     1.25520  0.0
    178    165    166    167   5     0.00000     0.00000     1.25520  0.0
    178    165    166    180   5     0.00000     0.00000     1.25520  0.0
    178    165    166    181   5     0.00000     0.00000     1.25520  0.0
    179    165    166    167   5     0.00000     0.00000     1.25520  0.0
    179    165    166    180   5     0.00000     0.00000     1.25520  0.0
    179    165    166    181   5     0.00000     0.00000     1.25520  0.0
    165    166    167    168   5    -8.00818    -1.52298     2.46438  0.0
    165    166    167    182   5     0.00000     0.00000     1.25520  0.0
    165    166    167    183   5     0.00000     0.00000     1.25520  0.0
    180    166    167    168   5     0.00000     0.00000    -0.94140  0.0
    180    166    167    182   5     0.00000     0.00000     1.25520  0.0
    180    166    167    183   5     0.00000     0.00000     1.25520  0.0
    181    166    167    168   5     0.00000     0.00000    -0.94140  0.0
    181    166    167    182   5     0.00000     0.00000     1.25520  0.0
    181    166    167    183   5     0.00000     0.00000     1.25520  0.0
    166    167    168    169   5     0.00000     2.52295     0.00000  0.0
    166    167    168    170   5    11.69428    -0.66526    -1.56900  0.0
    182    167    168    169   5     0.00000     0.00000     0.00000  0.0
    182    167    168    170   5     0.00000     0.00000     0.00000  0.0
    183    167    168    169   5     0.00000     0.00000     0.00000  0.0
    183    167    168    170   5     0.00000     0.00000     0.00000  0.0
    167    168    170    171   5    12.53945    12.88254     0.00000  0.0
    167    168    170    184   5     0.00000    20.50160     0.00000  0.0
    169    168    170    171   5     0.00000    25.47638     0.00000  0.0
    169    168    170    184   5     0.00000    20.50160     0.00000  0.0
    168    170    171    172   5    -3.67774    -0.67781     0.28033  0.0
    168    170    171    185   5     0.00000     0.00000     0.00000  0.0
    168    170    171    186   5     0.00000     0.00000     0.00000  0.0
    184    170    171    172   5     0.00000     0.00000     0.00000  0.0
    184    170    171    185   5     0.00000     0.00000     0.00000  0.0
    184    170    171    186   5     0.00000     0.00000     0.00000  0.0
    170    171    172    173   5     3.67355     4.10869     2.37651  0.0
    170    171    172    187   5     0.00000     0.00000     1.25520  0.0
    170    171    172    188   5     0.00000     0.00000     1.25520  0.0
    185    171    172    173   5     0.00000     0.00000     1.25520  0.0
    185    171    172    187   5     0.00000     0.00000     1.25520  0.0
    185    171    172    188   5     0.00000     0.00000     1.25520  0.0
    186    171    172    173   5     0.00000     0.00000     1.25520  0.0
    186    171    172    187   5     0.00000     0.00000     1.25520  0.0
    186    171    172    188   5     0.00000     0.00000     1.25520  0.0
    171    172    173    174   5     4.74884    -0.63178     1.67360  0.0
    171    172    173    189   5     0.00000     0.00000     1.25520  0.0
    171    172    173    190   5     0.00000     0.00000     1.25520  0.0
    187    172    173    174   5     0.00000     0.00000     1.25520  0.0
    187    172    173    189   5     0.00000     0.00000     1.25520  0.0
    187    172    173    190   5     0.00000     0.00000     1.25520  0.0
    188    172    173    174   5     0.00000     0.00000     1.25520  0.0
    188    172    173    189   5     0.00000     0.00000     1.25520  0.0
    188    172    173    190   5     0.00000     0.00000     1.25520  0.0
    172    173    174    175   5     3.67355     4.10869     2.37651  0.0
    172    173    174    191   5     0.00000     0.00000     1.25520  0.0
    172    173    174    192   5     0.00000     0.00000     1.25520  0.0
    189    173    174    175   5     0.00000     0.00000     1.25520  0.0
    189    173    174    191   5     0.00000     0.00000     1.25520  0.0
    189    173    174    192   5     0.00000     0.00000     1.25520  0.0
    190    173    174    175   5     0.00000     0.00000     1.25520  0.0
    190    173    174    191   5     0.00000     0.00000     1.25520  0.0
    190    173    174    192   5     0.00000     0.00000     1.25520  0.0
    173    174    175    193   5     0.00000     0.00000     0.00000  0.0
    173    174    175    194   5    -3.67774    -0.67781     0.28033  0.0
    191    174    175    193   5     0.00000     0.00000     0.00000  0.0
    191    174    175    194   5     0.00000     0.00000     0.00000  0.0
    192    174    175    193   5     0.00000     0.00000     0.00000  0.0
    192    174    175    194   5     0.00000     0.00000     0.00000  0.0
    174    175    194    195   5     0.00000    25.47638     0.00000  0.0
    174    175    194    196   5    12.53945    12.88254     0.00000  0.0
    193    175    194    195   5     0.00000    20.50160     0.00000  0.0
    193    175    194    196   5     0.00000    20.50160     0.00000  0.0
    175    194    196    197   5    11.69428    -0.66526    -1.56900  0.0
    175    194    196    208   5     0.00000     0.00000     0.00000  0.0
    175    194    196    209   5     0.00000     0.00000     0.00000  0.0
    195    194    196    197   5     0.00000     2.52295     0.00000  0.0
    195    194    196    208   5     0.00000     0.00000     0.00000  0.0
    195    194    196    209   5     0.00000     0.00000     0.00000  0.0
    194    196    197    198   5    -8.00818    -1.52298     2.46438  0.0
    194    196    197    210   5     0.00000     0.00000    -0.94140  0.0
    194    196    197    211   5     0.00000     0.00000    -0.94140  0.0
    208    196    197    198   5     0.00000     0.00000     1.25520  0.0
    208    196    197    210   5     0.00000     0.00000     1.25520  0.0
    208    196    197    211   5     0.00000     0.00000     1.25520  0.0
    209    196    197    198   5     0.00000     0.00000     1.25520  0.0
    209    196    197    210   5     0.00000     0.00000     1.25520  0.0
    209    196    197    211   5     0.00000     0.00000     1.25520  0.0
    196    197    198    199   5     4.74884    -0.63178     1.67360  0.0
    196    197    198    212   5     0.00000     0.00000     1.25520  0.0
    196    197    198    213   5     0.00000     0.00000     1.25520  0.0
    210    197    198    199   5     0.00000     0.00000     1.25520  0.0
    210    197    198    212   5     0.00000     0.00000     1.25520  0.0
    210    197    198    213   5     0.00000     0.00000     1.25520  0.0
    211    197    198    199   5     0.00000     0.00000     1.25520  0.0
    211    197    198    212   5     0.00000     0.00000     1.25520  0.0
    211    197    198    213   5     0.00000     0.00000     1.25520  0.0
    197    198    199    200   5    -8.00818    -1.52298     2.46438  0.0
    197    198    199    214   5     0.00000     0.00000     1.25520  0.0
    197    198    199    215   5     0.00000     0.00000     1.25520  0.0
    212    198    199    200   5     0.00000     0.00000    -0.94140  0.0
    212    198    199    214   5     0.00000     0.00000     1.25520  0.0
    212    198    199    215   5     0.00000     0.00000     1.25520  0.0
    213    198    199    200   5     0.00000     0.00000    -0.94140  0.0
    213    198    199    214   5     0.00000     0.00000     1.25520  0.0
    213    198    199    215   5     0.00000     0.00000     1.25520  0.0
    198    199    200    201   5     0.00000     2.52295     0.00000  0.0
    198    199    200    202   5    11.69428    -0.66526    -1.56900  0.0
    214    199    200    201   5     0.00000     0.00000     0.00000  0.0
    214    199    200    202   5     0.00000     0.00000     0.00000  0.0
    215    199    200    201   5     0.00000     0.00000     0.00000  0.0
    215    199    200    202   5     0.00000     0.00000     0.00000  0.0
    199    200    202    203   5    12.53945    12.88254     0.00000  0.0
    199    200    202    216   5     0.00000    20.50160     0.00000  0.0
    201    200    202    203   5     0.00000    25.47638     0.00000  0.0
    201    200    202    216   5     0.00000    20.50160     0.00000  0.0
    200    202    203    204   5    -3.67774    -0.67781     0.28033  0.0
    200    202    203    217   5     0.00000     0.00000     0.00000  0.0
    200    202    203    218   5     0.00000     0.00000     0.00000  0.0
    216    202    203    204   5     0.00000     0.00000     0.00000  0.0
    216    202    203    217   5     0.00000     0.00000     0.00000  0.0
    216    202    203    218   5     0.00000     0.00000     0.00000  0.0
    202    203    204    205   5     3.67355     4.10869     2.37651  0.0
    202    203    204    219   5     0.00000     0.00000     1.25520  0.0
    202    203    204    220   5     0.00000     0.00000     1.25520  0.0
    217    203    204    205   5     0.00000     0.00000     1.25520  0.0
    217    203    204    219   5     0.00000     0.00000     1.25520  0.0
    217    203    204    220   5     0.00000     0.00000     1.25520  0.0
    218    203    204    205   5     0.00000     0.00000     1.25520  0.0
    218    203    204    219   5     0.00000     0.00000     1.25520  0.0
    218    203    204    220   5     0.00000     0.00000     1.25520  0.0
    203    204    205    206   5     4.74884    -0.63178     1.67360  0.0
    203    204    205    221   5     0.00000     0.00000     1.25520  0.0
    203    204    205    222   5     0.00000     0.00000     1.25520  0.0
    219    204    205    206   5     0.00000     0.00000     1.25520  0.0
    219    204    205    221   5     0.00000     0.00000     1.25520  0.0
    219    204    205    222   5     0.00000     0.00000     1.25520  0.0
    220    204    205    206   5     0.00000     0.00000     1.25520  0.0
    220    204    205    221   5     0.00000     0.00000     1.25520  0.0
    220    204    205    222   5     0.00000     0.00000     1.25520  0.0
    204    205    206    207   5     3.67355     4.10869     2.37651  0.0
    204    205    206    223   5     0.00000     0.00000     1.25520  0.0
    204    205    206    224   5     0.00000     0.00000     1.25520  0.0
    221    205    206    207   5     0.00000     0.00000     1.25520  0.0
    221    205    206    223   5     0.00000     0.00000     1.25520  0.0
    221    205    206    224   5     0.00000     0.00000     1.25520  0.0
    222    205    206    207   5     0.00000     0.00000     1.25520  0.0
    222    205    206    223   5     0.00000     0.00000     1.25520  0.0
    222    205    206    224   5     0.00000     0.00000     1.25520  0.0
    205    206    207    225   5     0.00000     0.00000     0.00000  0.0
    205    206    207    226   5    -3.67774    -0.67781     0.28033  0.0
    223    206    207    225   5     0.00000     0.00000     0.00000  0.0
    223    206    207    226   5     0.00000     0.00000     0.00000  0.0
    224    206    207    225   5     0.00000     0.00000     0.00000  0.0
    224    206    207    226   5     0.00000     0.00000     0.00000  0.0
    206    207    226    227   5     0.00000    25.47638     0.00000  0.0
    206    207    226    228   5    12.53945    12.88254     0.00000  0.0
    225    207    226    227   5     0.00000    20.50160     0.00000  0.0
    225    207    226    228   5     0.00000    20.50160     0.00000  0.0
    207    226    228    229   5    11.69428    -0.66526    -1.56900  0.0
    207    226    228    240   5     0.00000     0.00000     0.00000  0.0
    207    226    228    241   5     0.00000     0.00000     0.00000  0.0
    227    226    228    229   5     0.00000     2.52295     0.00000  0.0
    227    226    228    240   5     0.00000     0.00000     0.00000  0.0
    227    226    228    241   5     0.00000     0.00000     0.00000  0.0
    226    228    229    230   5    -8.00818    -1.52298     2.46438  0.0
    226    228    229    242   5     0.00000     0.00000    -0.94140  0.0
    226    228    229    243   5     0.00000     0.00000    -0.94140  0.0
    240    228    229    230   5     0.00000     0.00000     1.25520  0.0
    240    228    229    242   5     0.00000     0.00000     1.25520  0.0
    240    228    229    243   5     0.00000     0.00000     1.25520  0.0
    241    228    229    230   5     0.00000     0.00000     1.25520  0.0
    241    228    229    242   5     0.00000     0.00000     1.25520  0.0
    241    228    229    243   5     0.00000     0.00000     1.25520  0.0
    228    229    230    231   5     4.74884    -0.63178     1.67360  0.0
    228    229    230    244   5     0.00000     0.00000     1.25520  0.0
    228    229    230    245   5     0.00000     0.00000     1.25520  0.0
    242    229    230    231   5     0.00000     0.00000     1.25520  0.0
    242    229    230    244   5     0.00000     0.00000     1.25520  0.0
    242    229    230    245   5     0.00000     0.00000     1.25520  0.0
    243    229    230    231   5     0.00000     0.00000     1.25520  0.0
    243    229    230    244   5     0.00000     0.00000     1.25520  0.0
    243    229    230    245   5     0.00000     0.00000     1.25520  0.0
    229    230    231    232   5    -8.00818    -1.52298     2.46438  0.0
    229    230    231    246   5     0.00000     0.00000     1.25520  0.0
    229    230    231    247   5     0.00000     0.00000     1.25520  0.0
    244    230    231    232   5     0.00000     0.00000    -0.94140  0.0
    244    230    231    246   5     0.00000     0.00000     1.25520  0.0
    244    230    231    247   5     0.00000     0.00000     1.25520  0.0
    245    230    231    232   5     0.00000     0.00000    -0.94140  0.0
    245    230    231    246   5     0.00000     0.00000     1.25520  0.0
    245    230    231    247   5     0.00000     0.00000     1.25520  0.0
    230    231    232    233   5     0.00000     2.52295     0.00000  0.0
    230    231    232    234   5    11.69428    -0.66526    -1.56900  0.0
    246    231    232    233   5     0.00000     0.00000     0.00000  0.0
    246    231    232    234   5     0.00000     0.00000     0.00000  0.0
    247    231    232    233   5     0.00000     0.00000     0.00000  0.0
    247    231    232    234   5     0.00000     0.00000     0.00000  0.0
    231    232    234    235   5    12.53945    12.88254     0.00000  0.0
    231    232    234    248   5     0.00000    20.50160     0.00000  0.0
    233    232    234    235   5     0.00000    25.47638     0.00000  0.0
    233    232    234    248   5     0.00000    20.50160     0.00000  0.0
    232    234    235    236   5    -3.67774    -0.67781     0.28033  0.0
    232    234    235    249   5     0.00000     0.00000     0.00000  0.0
    232    234    235    250   5     0.00000     0.00000     0.00000  0.0
    248    234    235    236   5     0.00000     0.00000     0.00000  0.0
    248    234    235    249   5     0.00000     0.00000     0.00000  0.0
    248    234    235    250   5     0.00000     0.00000     0.00000  0.0
    234    235    236    237   5     3.67355     4.10869     2.37651  0.0
    234    235    236    251   5     0.00000     0.00000     1.25520  0.0
    234    235    236    252   5     0.00000     0.00000     1.25520  0.0
    249    235    236    237   5     0.00000     0.00000     1.25520  0.0
    249    235    236    251   5     0.00000     0.00000     1.25520  0.0
    249    235    236    252   5     0.00000     0.00000     1.25520  0.0
    250    235    236    237   5     0.00000     0.00000     1.25520  0.0
    250    235    236    251   5     0.00000     0.00000     1.25520  0.0
    250    235    236    252   5     0.00000     0.00000     1.25520  0.0
    235    236    237    238   5     4.74884    -0.63178     1.67360  0.0
    235    236    237    253   5     0.00000     0.00000     1.25520  0.0
    235    236    237    254   5     0.00000     0.00000     1.25520  0.0
    251    236    237    238   5     0.00000     0.00000     1.25520  0.0
    251    236    237    253   5     0.00000     0.00000     1.25520  0.0
    251    236    237    254   5     0.00000     0.00000     1.25520  0.0
    252    236    237    238   5     0.00000     0.00000     1.25520  0.0
    252    236    237    253   5     0.00000     0.00000     1.25520  0.0
    252    236    237    254   5     0.00000     0.00000     1.25520  0.0
    236    237    238    239   5     3.67355     4.10869     2.37651  0.0
    236    237    238    255   5     0.00000     0.00000     1.25520  0.0
    236    237    238    256   5     0.00000     0.00000     1.25520  0.0
    253    237    238    239   5     0.00000     0.00000     1.25520  0.0
    253    237    238    255   5     0.00000     0.00000     1.25520  0.0
    253    237    238    256   5     0.00000     0.00000     1.25520  0.0
    254    237    238    239   5     0.00000     0.00000     1.25520  0.0
    254    237    238    255   5     0.00000     0.00000     1.25520  0.0
    254    237    238    256   5     0.00000     0.00000     1.25520  0.0
    237    238    239    257   5     0.00000     0.00000     0.00000  0.0
    237    238    239    258   5    -3.67774    -0.67781     0.28033  0.0
    255    238    239    257   5     0.00000     0.00000     0.00000  0.0
    255    238    239    258   5     0.00000     0.00000     0.00000  0.0
    256    238    239    257   5     0.00000     0.00000     0.00000  0.0
    256    238    239    258   5     0.00000     0.00000     0.00000  0.0
    238    239    258    259   5     0.00000    25.47638     0.00000  0.0
    238    239    258    260   5    12.53945    12.88254     0.00000  0.0
    257    239    258    259   5     0.00000    20.50160     0.00000  0.0
    257    239    258    260   5     0.00000    20.50160     0.00000  0.0
    239    258    260    261   5    11.69428    -0.66526    -1.56900  0.0
    239    258    260    272   5     0.00000     0.00000     0.00000  0.0
    239    258    260    273   5     0.00000     0.00000     0.00000  0.0
    259    258    260    261   5     0.00000     2.52295     0.00000  0.0
    259    258    260    272   5     0.00000     0.00000     0.00000  0.0
    259    258    260    273   5     0.00000     0.00000     0.00000  0.0
    258    260    261    262   5    -8.00818    -1.52298     2.46438  0.0
    258    260    261    274   5     0.00000     0.00000    -0.94140  0.0
    258    260    261    275   5     0.00000     0.00000    -0.94140  0.0
    272    260    261    262   5     0.00000     0.00000     1.25520  0.0
    272    260    261    274   5     0.00000     0.00000     1.25520  0.0
    272    260    261    275   5     0.00000     0.00000     1.25520  0.0
    273    260    261    262   5     0.00000     0.00000     1.25520  0.0
    273    260    261    274   5     0.00000     0.00000     1.25520  0.0
    273    260    261    275   5     0.00000     0.00000     1.25520  0.0
    260    261    262    263   5     4.74884    -0.63178     1.67360  0.0
    260    261    262    276   5     0.00000     0.00000     1.25520  0.0
    260    261    262    277   5     0.00000     0.00000     1.25520  0.0
    274    261    262    263   5     0.00000     0.00000     1.25520  0.0
    274    261    262    276   5     0.00000     0.00000     1.25520  0.0
    274    261    262    277   5     0.00000     0.00000     1.25520  0.0
    275    261    262    263   5     0.00000     0.00000     1.25520  0.0
    275    261    262    276   5     0.00000     0.00000     1.25520  0.0
    275    261    262    277   5     0.00000     0.00000     1.25520  0.0
    261    262    263    264   5    -8.00818    -1.52298     2.46438  0.0
    261    262    263    278   5     0.00000     0.00000     1.25520  0.0
    261    262    263    279   5     0.00000     0.00000     1.25520  0.0
    276    262    263    264   5     0.00000     0.00000    -0.94140  0.0
    276    262    263    278   5     0.00000     0.00000     1.25520  0.0
    276    262    263    279   5     0.00000     0.00000     1.25520  0.0
    277    262    263    264   5     0.00000     0.00000    -0.94140  0.0
    277    262    263    278   5     0.00000     0.00000     1.25520  0.0
    277    262    263    279   5     0.00000     0.00000     1.25520  0.0
    262    263    264    265   5     0.00000     2.52295     0.00000  0.0
    262    263    264    266   5    11.69428    -0.66526    -1.56900  0.0
    278    263    264    265   5     0.00000     0.00000     0.00000  0.0
    278    263    264    266   5     0.00000     0.00000     0.00000  0.0
    279    263    264    265   5     0.00000     0.00000     0.00000  0.0
    279    263    264    266   5     0.00000     0.00000     0.00000  0.0
    263    264    266    267   5    12.53945    12.88254     0.00000  0.0
    263    264    266    280   5     0.00000    20.50160     0.00000  0.0
    265    264    266    267   5     0.00000    25.47638     0.00000  0.0
    265    264    266    280   5     0.00000    20.50160     0.00000  0.0
    264    266    267    268   5    -3.67774    -0.67781     0.28033  0.0
    264    266    267    281   5     0.00000     0.00000     0.00000  0.0
    264    266    267    282   5     0.00000     0.00000     0.00000  0.0
    280    266    267    268   5     0.00000     0.00000     0.00000  0.0
    280    266    267    281   5     0.00000     0.00000     0.00000  0.0
    280    266    267    282   5     0.00000     0.00000     0.00000  0.0
    266    267    268    269   5     3.67355     4.10869     2.37651  0.0
    266    267    268    283   5     0.00000     0.00000     1.25520  0.0
    266    267    268    284   5     0.00000     0.00000     1.25520  0.0
    281    267    268    269   5     0.00000     0.00000     1.25520  0.0
    281    267    268    283   5     0.00000     0.00000     1.25520  0.0
    281    267    268    284   5     0.00000     0.00000     1.25520  0.0
    282    267    268    269   5     0.00000     0.00000     1.25520  0.0
    282    267    268    283   5     0.00000     0.00000     1.25520  0.0
    282    267    268    284   5     0.00000     0.00000     1.25520  0.0
    267    268    269    270   5     4.74884    -0.63178     1.67360  0.0
    267    268    269    285   5     0.00000     0.00000     1.25520  0.0
    267    268    269    286   5     0.00000     0.00000     1.25520  0.0
    283    268    269    270   5     0.00000     0.00000     1.25520  0.0
    283    268    269    285   5     0.00000     0.00000     1.25520  0.0
    283    268    269    286   5     0.00000     0.00000     1.25520  0.0
    284    268    269    270   5     0.00000     0.00000     1.25520  0.0
    284    268    269    285   5     0.00000     0.00000     1.25520  0.0
    284    268    269    286   5     0.00000     0.00000     1.25520  0.0
    268    269    270    271   5     3.67355     4.10869     2.37651  0.0
    268    269    270    287   5     0.00000     0.00000     1.25520  0.0
    268    269    270    288   5     0.00000     0.00000     1.25520  0.0
    285    269    270    271   5     0.00000     0.00000     1.25520  0.0
    285    269    270    287   5     0.00000     0.00000     1.25520  0.0
    285    269    270    288   5     0.00000     0.00000     1.25520  0.0
    286    269    270    271   5     0.00000     0.00000     1.25520  0.0
    286    269    270    287   5     0.00000     0.00000     1.25520  0.0
    286    269    270    288   5     0.00000     0.00000     1.25520  0.0
    269    270    271    289   5     0.00000     0.00000     0.00000  0.0
    269    270    271    290   5    -3.67774    -0.67781     0.28033  0.0
    287    270    271    289   5     0.00000     0.00000     0.00000  0.0
    287    270    271    290   5     0.00000     0.00000     0.00000  0.0
    288    270    271    289   5     0.00000     0.00000     0.00000  0.0
    288    270    271    290   5     0.00000     0.00000     0.00000  0.0
    270    271    290    291   5     0.00000    25.47638     0.00000  0.0
    270    271    290    292   5    12.53945    12.88254     0.00000  0.0
    289    271    290    291   5     0.00000    20.50160     0.00000  0.0
    289    271    290    292   5     0.00000    20.50160     0.00000  0.0
    271    290    292    293   5    11.69428    -0.66526    -1.56900  0.0
    271    290    292    304   5     0.00000     0.00000     0.00000  0.0
    271    290    292    305   5     0.00000     0.00000     0.00000  0.0
    291    290    292    293   5     0.00000     2.52295     0.00000  0.0
    291    290    292    304   5     0.00000     0.00000     0.00000  0.0
    291    290    292    305   5     0.00000     0.00000     0.00000  0.0
    290    292    293    294   5    -8.00818    -1.52298     2.46438  0.0
    290    292    293    306   5     0.00000     0.00000    -0.94140  0.0
    290    292    293    307   5     0.00000     0.00000    -0.94140  0.0
    304    292    293    294   5     0.00000     0.00000     1.25520  0.0
    304    292    293    306   5     0.00000     0.00000     1.25520  0.0
    304    292    293    307   5     0.00000     0.00000     1.25520  0.0
    305    292    293    294   5     0.00000     0.00000     1.25520  0.0
    305    292    293    306   5     0.00000     0.00000     1.25520  0.0
    305    292    293    307   5     0.00000     0.00000     1.25520  0.0
    292    293    294    295   5     4.74884    -0.63178     1.67360  0.0
    292    293    294    308   5     0.00000     0.00000     1.25520  0.0
    292    293    294    309   5     0.00000     0.00000     1.25520  0.0
    306    293    294    295   5     0.00000     0.00000     1.25520  0.0
    306    293    294    308   5     0.00000     0.00000     1.25520  0.0
    306    293    294    309   5     0.00000     0.00000     1.25520  0.0
    307    293    294    295   5     0.00000     0.00000     1.25520  0.0
    307    293    294    308   5     0.00000     0.00000     1.25520  0.0
    307    293    294    309   5     0.00000     0.00000     1.25520  0.0
    293    294    295    296   5    -8.00818    -1.52298     2.46438  0.0
    293    294    295    310   5     0.00000     0.00000     1.25520  0.0
    293    294    295    311   5     0.00000     0.00000     1.25520  0.0
    308    294    295    296   5     0.00000     0.00000    -0.94140  0.0
    308    294    295    310   5     0.00000     0.00000     1.25520  0.0
    308    294    295    311   5     0.00000     0.00000     1.25520  0.0
    309    294    295    296   5     0.00000     0.00000    -0.94140  0.0
    309    294    295    310   5     0.00000     0.00000     1.25520  0.0
    309    294    295    311   5     0.00000     0.00000     1.25520  0.0
    294    295    296    297   5     0.00000     2.52295     0.00000  0.0
    294    295    296    298   5    11.69428    -0.66526    -1.56900  0.0
    310    295    296    297   5     0.00000     0.00000     0.00000  0.0
    310    295    296    298   5     0.00000     0.00000     0.00000  0.0
    311    295    296    297   5     0.00000     0.00000     0.00000  0.0
    311    295    296    298   5     0.00000     0.00000     0.00000  0.0
    295    296    298    299   5    12.53945    12.88254     0.00000  0.0
    295    296    298    312   5     0.00000    20.50160     0.00000  0.0
    297    296    298    299   5     0.00000    25.47638     0.00000  0.0
    297    296    298    312   5     0.00000    20.50160     0.00000  0.0
    296    298    299    300   5    -3.67774    -0.67781     0.28033  0.0
    296    298    299    313   5     0.00000     0.00000     0.00000  0.0
    296    298    299    314   5     0.00000     0.00000     0.00000  0.0
    312    298    299    300   5     0.00000     0.00000     0.00000  0.0
    312    298    299    313   5     0.00000     0.00000     0.00000  0.0
    312    298    299    314   5     0.00000     0.00000     0.00000  0.0
    298    299    300    301   5     3.67355     4.10869     2.37651  0.0
    298    299    300    315   5     0.00000     0.00000     1.25520  0.0
    298    299    300    316   5     0.00000     0.00000     1.25520  0.0
    313    299    300    301   5     0.00000     0.00000     1.25520  0.0
    313    299    300    315   5     0.00000     0.00000     1.25520  0.0
    313    299    300    316   5     0.00000     0.00000     1.25520  0.0
    314    299    300    301   5     0.00000     0.00000     1.25520  0.0
    314    299    300    315   5     0.00000     0.00000     1.25520  0.0
    314    299    300    316   5     0.00000     0.00000     1.25520  0.0
    299    300    301    302   5     4.74884    -0.63178     1.67360  0.0
    299    300    301    317   5     0.00000     0.00000     1.25520  0.0
    299    300    301    318   5     0.00000     0.00000     1.25520  0.0
    315    300    301    302   5     0.00000     0.00000     1.25520  0.0
    315    300    301    317   5     0.00000     0.00000     1.25520  0.0
    315    300    301    318   5     0.00000     0.00000     1.25520  0.0
    316    300    301    302   5     0.00000     0.00000     1.25520  0.0
    316    300    301    317   5     0.00000     0.00000     1.25520  0.0
    316    300    301    318   5     0.00000     0.00000     1.25520  0.0
    300    301    302    303   5     3.67355     4.10869     2.37651  0.0
    300    301    302    319   5     0.00000     0.00000     1.25520  0.0
    300    301    302    320   5     0.00000     0.00000     1.25520  0.0
    317    301    302    303   5     0.00000     0.00000     1.25520  0.0
    317    301    302    319   5     0.00000     0.00000     1.25520  0.0
    317    301    302    320   5     0.00000     0.00000     1.25520  0.0
    318    301    302    303   5     0.00000     0.00000     1.25520  0.0
    318    301    302    319   5     0.00000     0.00000     1.25520  0.0
    318    301    302    320   5     0.00000     0.00000     1.25520  0.0
    301    302    303    321   5     0.00000     0.00000     0.00000  0.0
    301    302    303    322   5    -3.67774    -0.67781     0.28033  0.0
    319    302    303    321   5     0.00000     0.00000     0.00000  0.0
    319    302    303    322   5     0.00000     0.00000     0.00000  0.0
    320    302    303    321   5     0.00000     0.00000     0.00000  0.0
    320    302    303    322   5     0.00000     0.00000     0.00000  0.0
    302    303    322    323   5     0.00000    25.47638     0.00000  0.0
    302    303    322    324   5    12.53945    12.88254     0.00000  0.0
    321    303    322    323   5     0.00000    20.50160     0.00000  0.0
    321    303    322    324   5     0.00000    20.50160     0.00000  0.0
    303    322    324    325   5    11.69428    -0.66526    -1.56900  0.0
    303    322    324    336   5     0.00000     0.00000     0.00000  0.0
    303    322    324    337   5     0.00000     0.00000     0.00000  0.0
    323    322    324    325   5     0.00000     2.52295     0.00000  0.0
    323    322    324    336   5     0.00000     0.00000     0.00000  0.0
    323    322    324    337   5     0.00000     0.00000     0.00000  0.0
    322    324    325    326   5    -8.00818    -1.52298     2.46438  0.0
    322    324    325    338   5     0.00000     0.00000    -0.94140  0.0
    322    324    325    339   5     0.00000     0.00000    -0.94140  0.0
    336    324    325    326   5     0.00000     0.00000     1.25520  0.0
    336    324    325    338   5     0.00000     0.00000     1.25520  0.0
    336    324    325    339   5     0.00000     0.00000     1.25520  0.0
    337    324    325    326   5     0.00000     0.00000     1.25520  0.0
    337    324    325    338   5     0.00000     0.00000     1.25520  0.0
    337    324    325    339   5     0.00000     0.00000     1.25520  0.0
    324    325    326    327   5     4.74884    -0.63178     1.67360  0.0
    324    325    326    340   5     0.00000     0.00000     1.25520  0.0
    324    325    326    341   5     0.00000     0.00000     1.25520  0.0
    338    325    326    327   5     0.00000     0.00000     1.25520  0.0
    338    325    326    340   5     0.00000     0.00000     1.25520  0.0
    338    325    326    341   5     0.00000     0.00000     1.25520  0.0
    339    325    326    327   5     0.00000     0.00000     1.25520  0.0
    339    325    326    340   5     0.00000     0.00000     1.25520  0.0
    339    325    326    341   5     0.00000     0.00000     1.25520  0.0
    325    326    327    328   5    -8.00818    -1.52298     2.46438  0.0
    325    326    327    342   5     0.00000     0.00000     1.25520  0.0
    325    326    327    343   5     0.00000     0.00000     1.25520  0.0
    340    326    327    328   5     0.00000     0.00000    -0.94140  0.0
    340    326    327    342   5     0.00000     0.00000     1.25520  0.0
    340    326    327    343   5     0.00000     0.00000     1.25520  0.0
    341    326    327    328   5     0.00000     0.00000    -0.94140  0.0
    341    326    327    342   5     0.00000     0.00000     1.25520  0.0
    341    326    327    343   5     0.00000     0.00000     1.25520  0.0
    326    327    328    329   5     0.00000     2.52295     0.00000  0.0
    326    327    328    330   5    11.69428    -0.66526    -1.56900  0.0
    342    327    328    329   5     0.00000     0.00000     0.00000  0.0
    342    327    328    330   5     0.00000     0.00000     0.00000  0.0
    343    327    328    329   5     0.00000     0.00000     0.00000  0.0
    343    327    328    330   5     0.00000     0.00000     0.00000  0.0
    327    328    330    331   5    12.53945    12.88254     0.00000  0.0
    327    328    330    344   5     0.00000    20.50160     0.00000  0.0
    329    328    330    331   5     0.00000    25.47638     0.00000  0.0
    329    328    330    344   5     0.00000    20.50160     0.00000  0.0
    328    330    331    332   5    -3.67774    -0.67781     0.28033  0.0
    328    330    331    345   5     0.00000     0.00000     0.00000  0.0
    328    330    331    346   5     0.00000     0.00000     0.00000  0.0
    344    330    331    332   5     0.00000     0.00000     0.00000  0.0
    344    330    331    345   5     0.00000     0.00000     0.00000  0.0
    344    330    331    346   5     0.00000     0.00000     0.00000  0.0
    330    331    332    333   5     3.67355     4.10869     2.37651  0.0
    330    331    332    347   5     0.00000     0.00000     1.25520  0.0
    330    331    332    348   5     0.00000     0.00000     1.25520  0.0
    345    331    332    333   5     0.00000     0.00000     1.25520  0.0
    345    331    332    347   5     0.00000     0.00000     1.25520  0.0
    345    331    332    348   5     0.00000     0.00000     1.25520  0.0
    346    331    332    333   5     0.00000     0.00000     1.25520  0.0
    346    331    332    347   5     0.00000     0.00000     1.25520  0.0
    346    331    332    348   5     0.00000     0.00000     1.25520  0.0
    331    332    333    334   5     4.74884    -0.63178     1.67360  0.0
    331    332    333    349   5     0.00000     0.00000     1.25520  0.0
    331    332    333    350   5     0.00000     0.00000     1.25520  0.0
    347    332    333    334   5     0.00000     0.00000     1.25520  0.0
    347    332    333    349   5     0.00000     0.00000     1.25520  0.0
    347    332    333    350   5     0.00000     0.00000     1.25520  0.0
    348    332    333    334   5     0.00000     0.00000     1.25520  0.0
    348    332    333    349   5     0.00000     0.00000     1.25520  0.0
    348    332    333    350   5     0.00000     0.00000     1.25520  0.0
    332    333    334    335   5     3.67355     4.10869     2.37651  0.0
    332    333    334    351   5     0.00000     0.00000     1.25520  0.0
    332    333    334    352   5     0.00000     0.00000     1.25520  0.0
    349    333    334    335   5     0.00000     0.00000     1.25520  0.0
    349    333    334    351   5     0.00000     0.00000     1.25520  0.0
    349    333    334    352   5     0.00000     0.00000     1.25520  0.0
    350    333    334    335   5     0.00000     0.00000     1.25520  0.0
    350    333    334    351   5     0.00000     0.00000     1.25520  0.0
    350    333    334    352   5     0.00000     0.00000     1.25520  0.0
    333    334    335    353   5     0.00000     0.00000     0.00000  0.0
    333    334    335    354   5    -3.67774    -0.67781     0.28033  0.0
    351    334    335    353   5     0.00000     0.00000     0.00000  0.0
    351    334    335    354   5     0.00000     0.00000     0.00000  0.0
    352    334    335    353   5     0.00000     0.00000     0.00000  0.0
    352    334    335    354   5     0.00000     0.00000     0.00000  0.0
    334    335    354    355   5     0.00000    25.47638     0.00000  0.0
    334    335    354    356   5    12.53945    12.88254     0.00000  0.0
    353    335    354    355   5     0.00000    20.50160     0.00000  0.0
    353    335    354    356   5     0.00000    20.50160     0.00000  0.0
    335    354    356    357   5    11.69428    -0.66526    -1.56900  0.0
    335    354    356    368   5     0.00000     0.00000     0.00000  0.0
    335    354    356    369   5     0.00000     0.00000     0.00000  0.0
    355    354    356    357   5     0.00000     2.52295     0.00000  0.0
    355    354    356    368   5     0.00000     0.00000     0.00000  0.0
    355    354    356    369   5     0.00000     0.00000     0.00000  0.0
    354    356    357    358   5    -8.00818    -1.52298     2.46438  0.0
    354    356    357    370   5     0.00000     0.00000    -0.94140  0.0
    354    356    357    371   5     0.00000     0.00000    -0.94140  0.0
    368    356    357    358   5     0.00000     0.00000     1.25520  0.0
    368    356    357    370   5     0.00000     0.00000     1.25520  0.0
    368    356    357    371   5     0.00000     0.00000     1.25520  0.0
    369    356    357    358   5     0.00000     0.00000     1.25520  0.0
    369    356    357    370   5     0.00000     0.00000     1.25520  0.0
    369    356    357    371   5     0.00000     0.00000     1.25520  0.0
    356    357    358    359   5     4.74884    -0.63178     1.67360  0.0
    356    357    358    372   5     0.00000     0.00000     1.25520  0.0
    356    357    358    373   5     0.00000     0.00000     1.25520  0.0
    370    357    358    359   5     0.00000     0.00000     1.25520  0.0
    370    357    358    372   5     0.00000     0.00000     1.25520  0.0
    370    357    358    373   5     0.00000     0.00000     1.25520  0.0
    371    357    358    359   5     0.00000     0.00000     1.25520  0.0
    371    357    358    372   5     0.00000     0.00000     1.25520  0.0
    371    357    358    373   5     0.00000     0.00000     1.25520  0.0
    357    358    359    360   5    -8.00818    -1.52298     2.46438  0.0
    357    358    359    374   5     0.00000     0.00000     1.25520  0.0
    357    358    359    375   5     0.00000     0.00000     1.25520  0.0
    372    358    359    360   5     0.00000     0.00000    -0.94140  0.0
    372    358    359    374   5     0.00000     0.00000     1.25520  0.0
    372    358    359    375   5     0.00000     0.00000     1.25520  0.0
    373    358    359    360   5     0.00000     0.00000    -0.94140  0.0
    373    358    359    374   5     0.00000     0.00000     1.25520  0.0
    373    358    359    375   5     0.00000     0.00000     1.25520  0.0
    358    359    360    361   5     0.00000     2.52295     0.00000  0.0
    358    359    360    362   5    11.69428    -0.66526    -1.56900  0.0
    374    359    360    361   5     0.00000     0.00000     0.00000  0.0
    374    359    360    362   5     0.00000     0.00000     0.00000  0.0
    375    359    360    361   5     0.00000     0.00000     0.00000  0.0
    375    359    360    362   5     0.00000     0.00000     0.00000  0.0
    359    360    362    363   5    12.53945    12.88254     0.00000  0.0
    359    360    362    376   5     0.00000    20.50160     0.00000  0.0
    361    360    362    363   5     0.00000    25.47638     0.00000  0.0
    361    360    362    376   5     0.00000    20.50160     0.00000  0.0
    360    362    363    364   5    -3.67774    -0.67781     0.28033  0.0
    360    362    363    377   5     0.00000     0.00000     0.00000  0.0
    360    362    363    378   5     0.00000     0.00000     0.00000  0.0
    376    362    363    364   5     0.00000     0.00000     0.00000  0.0
    376    362    363    377   5     0.00000     0.00000     0.00000  0.0
    376    362    363    378   5     0.00000     0.00000     0.00000  0.0
    362    363    364    365   5     3.67355     4.10869     2.37651  0.0
    362    363    364    379   5     0.00000     0.00000     1.25520  0.0
    362    363    364    380   5     0.00000     0.00000     1.25520  0.0
    377    363    364    365   5     0.00000     0.00000     1.25520  0.0
    377    363    364    379   5     0.00000     0.00000     1.25520  0.0
    377    363    364    380   5     0.00000     0.00000     1.25520  0.0
    378    363    364    365   5     0.00000     0.00000     1.25520  0.0
    378    363    364    379   5     0.00000     0.00000     1.25520  0.0
    378    363    364    380   5     0.00000     0.00000     1.25520  0.0
    363    364    365    366   5     4.74884    -0.63178     1.67360  0.0
    363    364    365    381   5     0.00000     0.00000     1.25520  0.0
    363    364    365    382   5     0.00000     0.00000     1.25520  0.0
    379    364    365    366   5     0.00000     0.00000     1.25520  0.0
    379    364    365    381   5     0.00000     0.00000     1.25520  0.0
    379    364    365    382   5     0.00000     0.00000     1.25520  0.0
    380    364    365    366   5     0.00000     0.00000     1.25520  0.0
    380    364    365    381   5     0.00000     0.00000     1.25520  0.0
    380    364    365    382   5     0.00000     0.00000     1.25520  0.0
    364    365    366    367   5     3.67355     4.10869     2.37651  0.0
    364    365    366    383   5     0.00000     0.00000     1.25520  0.0
    364    365    366    384   5     0.00000     0.00000     1.25520  0.0
    381    365    366    367   5     0.00000     0.00000     1.25520  0.0
    381    365    366    383   5     0.00000     0.00000     1.25520  0.0
    381    365    366    384   5     0.00000     0.00000     1.25520  0.0
    382    365    366    367   5     0.00000     0.00000     1.25520  0.0
    382    365    366    383   5     0.00000     0.00000     1.25520  0.0
    382    365    366    384   5     0.00000     0.00000     1.25520  0.0
    365    366    367    385   5     0.00000     0.00000     0.00000  0.0
    365    366    367    386   5    -3.67774    -0.67781     0.28033  0.0
    383    366    367    385   5     0.00000     0.00000     0.00000  0.0
    383    366    367    386   5     0.00000     0.00000     0.00000  0.0
    384    366    367    385   5     0.00000     0.00000     0.00000  0.0
    384    366    367    386   5     0.00000     0.00000     0.00000  0.0
    366    367    386    387   5     0.00000    25.47638     0.00000  0.0
    366    367    386    388   5    12.53945    12.88254     0.00000  0.0
    385    367    386    387   5     0.00000    20.50160     0.00000  0.0
    385    367    386    388   5     0.00000    20.50160     0.00000  0.0
    367    386    388    389   5    11.69428    -0.66526    -1.56900  0.0
    367    386    388    400   5     0.00000     0.00000     0.00000  0.0
    367    386    388    401   5     0.00000     0.00000     0.00000  0.0
    387    386    388    389   5     0.00000     2.52295     0.00000  0.0
    387    386    388    400   5     0.00000     0.00000     0.00000  0.0
    387    386    388    401   5     0.00000     0.00000     0.00000  0.0
    386    388    389    390   5    -8.00818    -1.52298     2.46438  0.0
    386    388    389    402   5     0.00000     0.00000    -0.94140  0.0
    386    388    389    403   5     0.00000     0.00000    -0.94140  0.0
    400    388    389    390   5     0.00000     0.00000     1.25520  0.0
    400    388    389    402   5     0.00000     0.00000     1.25520  0.0
    400    388    389    403   5     0.00000     0.00000     1.25520  0.0
    401    388    389    390   5     0.00000     0.00000     1.25520  0.0
    401    388    389    402   5     0.00000     0.00000     1.25520  0.0
    401    388    389    403   5     0.00000     0.00000     1.25520  0.0
    388    389    390    391   5     4.74884    -0.63178     1.67360  0.0
    388    389    390    404   5     0.00000     0.00000     1.25520  0.0
    388    389    390    405   5     0.00000     0.00000     1.25520  0.0
    402    389    390    391   5     0.00000     0.00000     1.25520  0.0
    402    389    390    404   5     0.00000     0.00000     1.25520  0.0
    402    389    390    405   5     0.00000     0.00000     1.25520  0.0
    403    389    390    391   5     0.00000     0.00000     1.25520  0.0
    403    389    390    404   5     0.00000     0.00000     1.25520  0.0
    403    389    390    405   5     0.00000     0.00000     1.25520  0.0
    389    390    391    392   5    -8.00818    -1.52298     2.46438  0.0
    389    390    391    406   5     0.00000     0.00000     1.25520  0.0
    389    390    391    407   5     0.00000     0.00000     1.25520  0.0
    404    390    391    392   5     0.00000     0.00000    -0.94140  0.0
    404    390    391    406   5     0.00000     0.00000     1.25520  0.0
    404    390    391    407   5     0.00000     0.00000     1.25520  0.0
    405    390    391    392   5     0.00000     0.00000    -0.94140  0.0
    405    390    391    406   5     0.00000     0.00000     1.25520  0.0
    405    390    391    407   5     0.00000     0.00000     1.25520  0.0
    390    391    392    393   5     0.00000     2.52295     0.00000  0.0
    390    391    392    394   5    11.69428    -0.66526    -1.56900  0.0
    406    391    392    393   5     0.00000     0.00000     0.00000  0.0
    406    391    392    394   5     0.00000     0.00000     0.00000  0.0
    407    391    392    393   5     0.00000     0.00000     0.00000  0.0
    407    391    392    394   5     0.00000     0.00000     0.00000  0.0
    391    392    394    395   5    12.53945    12.88254     0.00000  0.0
    391    392    394    408   5     0.00000    20.50160     0.00000  0.0
    393    392    394    395   5     0.00000    25.47638     0.00000  0.0
    393    392    394    408   5     0.00000    20.50160     0.00000  0.0
    392    394    395    396   5    -3.67774    -0.67781     0.28033  0.0
    392    394    395    409   5     0.00000     0.00000     0.00000  0.0
    392    394    395    410   5     0.00000     0.00000     0.00000  0.0
    408    394    395    396   5     0.00000     0.00000     0.00000  0.0
    408    394    395    409   5     0.00000     0.00000     0.00000  0.0
    408    394    395    410   5     0.00000     0.00000     0.00000  0.0
    394    395    396    397   5     3.67355     4.10869     2.37651  0.0
    394    395    396    411   5     0.00000     0.00000     1.25520  0.0
    394    395    396    412   5     0.00000     0.00000     1.25520  0.0
    409    395    396    397   5     0.00000     0.00000     1.25520  0.0
    409    395    396    411   5     0.00000     0.00000     1.25520  0.0
    409    395    396    412   5     0.00000     0.00000     1.25520  0.0
    410    395    396    397   5     0.00000     0.00000     1.25520  0.0
    410    395    396    411   5     0.00000     0.00000     1.25520  0.0
    410    395    396    412   5     0.00000     0.00000     1.25520  0.0
    395    396    397    398   5     4.74884    -0.63178     1.67360  0.0
    395    396    397    413   5     0.00000     0.00000     1.25520  0.0
    395    396    397    414   5     0.00000     0.00000     1.25520  0.0
    411    396    397    398   5     0.00000     0.00000     1.25520  0.0
    411    396    397    413   5     0.00000     0.00000     1.25520  0.0
    411    396    397    414   5     0.00000     0.00000     1.25520  0.0
    412    396    397    398   5     0.00000     0.00000     1.25520  0.0
    412    396    397    413   5     0.00000     0.00000     1.25520  0.0
    412    396    397    414   5     0.00000     0.00000     1.25520  0.0
    396    397    398    399   5     3.67355     4.10869     2.37651  0.0
    396    397    398    415   5     0.00000     0.00000     1.25520  0.0
    396    397    398    416   5     0.00000     0.00000     1.25520  0.0
    413    397    398    399   5     0.00000     0.00000     1.25520  0.0
    413    397    398    415   5     0.00000     0.00000     1.25520  0.0
    413    397    398    416   5     0.00000     0.00000     1.25520  0.0
    414    397    398    399   5     0.00000     0.00000     1.25520  0.0
    414    397    398    415   5     0.00000     0.00000     1.25520  0.0
    414    397    398    416   5     0.00000     0.00000     1.25520  0.0
    397    398    399    417   5     0.00000     0.00000     0.00000  0.0
    397    398    399    418   5    -3.67774    -0.67781     0.28033  0.0
    415    398    399    417   5     0.00000     0.00000     0.00000  0.0
    415    398    399    418   5     0.00000     0.00000     0.00000  0.0
    416    398    399    417   5     0.00000     0.00000     0.00000  0.0
    416    398    399    418   5     0.00000     0.00000     0.00000  0.0
    398    399    418    419   5     0.00000    25.47638     0.00000  0.0
    398    399    418    420   5    12.53945    12.88254     0.00000  0.0
    417    399    418    419   5     0.00000    20.50160     0.00000  0.0
    417    399    418    420   5     0.00000    20.50160     0.00000  0.0
    399    418    420    421   5    11.69428    -0.66526    -1.56900  0.0
    399    418    420    432   5     0.00000     0.00000     0.00000  0.0
    399    418    420    433   5     0.00000     0.00000     0.00000  0.0
    419    418    420    421   5     0.00000     2.52295     0.00000  0.0
    419    418    420    432   5     0.00000     0.00000     0.00000  0.0
    419    418    420    433   5     0.00000     0.00000     0.00000  0.0
    418    420    421    422   5    -8.00818    -1.52298     2.46438  0.0
    418    420    421    434   5     0.00000     0.00000    -0.94140  0.0
    418    420    421    435   5     0.00000     0.00000    -0.94140  0.0
    432    420    421    422   5     0.00000     0.00000     1.25520  0.0
    432    420    421    434   5     0.00000     0.00000     1.25520  0.0
    432    420    421    435   5     0.00000     0.00000     1.25520  0.0
    433    420    421    422   5     0.00000     0.00000     1.25520  0.0
    433    420    421    434   5     0.00000     0.00000     1.25520  0.0
    433    420    421    435   5     0.00000     0.00000     1.25520  0.0
    420    421    422    423   5     4.74884    -0.63178     1.67360  0.0
    420    421    422    436   5     0.00000     0.00000     1.25520  0.0
    420    421    422    437   5     0.00000     0.00000     1.25520  0.0
    434    421    422    423   5     0.00000     0.00000     1.25520  0.0
    434    421    422    436   5     0.00000     0.00000     1.25520  0.0
    434    421    422    437   5     0.00000     0.00000     1.25520  0.0
    435    421    422    423   5     0.00000     0.00000     1.25520  0.0
    435    421    422    436   5     0.00000     0.00000     1.25520  0.0
    435    421    422    437   5     0.00000     0.00000     1.25520  0.0
    421    422    423    424   5    -8.00818    -1.52298     2.46438  0.0
    421    422    423    438   5     0.00000     0.00000     1.25520  0.0
    421    422    423    439   5     0.00000     0.00000     1.25520  0.0
    436    422    423    424   5     0.00000     0.00000    -0.94140  0.0
    436    422    423    438   5     0.00000     0.00000     1.25520  0.0
    436    422    423    439   5     0.00000     0.00000     1.25520  0.0
    437    422    423    424   5     0.00000     0.00000    -0.94140  0.0
    437    422    423    438   5     0.00000     0.00000     1.25520  0.0
    437    422    423    439   5     0.00000     0.00000     1.25520  0.0
    422    423    424    425   5     0.00000     2.52295     0.00000  0.0
    422    423    424    426   5    11.69428    -0.66526    -1.56900  0.0
    438    423    424    425   5     0.00000     0.00000     0.00000  0.0
    438    423    424    426   5     0.00000     0.00000     0.00000  0.0
    439    423    424    425   5     0.00000     0.00000     0.00000  0.0
    439    423    424    426   5     0.00000     0.00000     0.00000  0.0
    423    424    426    427   5    12.53945    12.88254     0.00000  0.0
    423    424    426    440   5     0.00000    20.50160     0.00000  0.0
    425    424    426    427   5     0.00000    25.47638     0.00000  0.0
    425    424    426    440   5     0.00000    20.50160     0.00000  0.0
    424    426    427    428   5    -3.67774    -0.67781     0.28033  0.0
    424    426    427    441   5     0.00000     0.00000     0.00000  0.0
    424    426    427    442   5     0.00000     0.00000     0.00000  0.0
    440    426    427    428   5     0.00000     0.00000     0.00000  0.0
    440    426    427    441   5     0.00000     0.00000     0.00000  0.0
    440    426    427    442   5     0.00000     0.00000     0.00000  0.0
    426    427    428    429   5     3.67355     4.10869     2.37651  0.0
    426    427    428    443   5     0.00000     0.00000     1.25520  0.0
    426    427    428    444   5     0.00000     0.00000     1.25520  0.0
    441    427    428    429   5     0.00000     0.00000     1.25520  0.0
    441    427    428    443   5     0.00000     0.00000     1.25520  0.0
    441    427    428    444   5     0.00000     0.00000     1.25520  0.0
    442    427    428    429   5     0.00000     0.00000     1.25520  0.0
    442    427    428    443   5     0.00000     0.00000     1.25520  0.0
    442    427    428    444   5     0.00000     0.00000     1.25520  0.0
    427    428    429    430   5     4.74884    -0.63178     1.67360  0.0
    427    428    429    445   5     0.00000     0.00000     1.25520  0.0
    427    428    429    446   5     0.00000     0.00000     1.25520  0.0
    443    428    429    430   5     0.00000     0.00000     1.25520  0.0
    443    428    429    445   5     0.00000     0.00000     1.25520  0.0
    443    428    429    446   5     0.00000     0.00000     1.25520  0.0
    444    428    429    430   5     0.00000     0.00000     1.25520  0.0
    444    428    429    445   5     0.00000     0.00000     1.25520  0.0
    444    428    429    446   5     0.00000     0.00000     1.25520  0.0
    428    429    430    431   5     3.67355     4.10869     2.37651  0.0
    428    429    430    447   5     0.00000     0.00000     1.25520  0.0
    428    429    430    448   5     0.00000     0.00000     1.25520  0.0
    445    429    430    431   5     0.00000     0.00000     1.25520  0.0
    445    429    430    447   5     0.00000     0.00000     1.25520  0.0
    445    429    430    448   5     0.00000     0.00000     1.25520  0.0
    446    429    430    431   5     0.00000     0.00000     1.25520  0.0
    446    429    430    447   5     0.00000     0.00000     1.25520  0.0
    446    429    430    448   5     0.00000     0.00000     1.25520  0.0
    429    430    431    449   5     0.00000     0.00000     0.00000  0.0
    429    430    431    450   5    -3.67774    -0.67781     0.28033  0.0
    447    430    431    449   5     0.00000     0.00000     0.00000  0.0
    447    430    431    450   5     0.00000     0.00000     0.00000  0.0
    448    430    431    449   5     0.00000     0.00000     0.00000  0.0
    448    430    431    450   5     0.00000     0.00000     0.00000  0.0
    430    431    450    451   5     0.00000    25.47638     0.00000  0.0
    430    431    450    452   5    12.53945    12.88254     0.00000  0.0
    449    431    450    451   5     0.00000    20.50160     0.00000  0.0
    449    431    450    452   5     0.00000    20.50160     0.00000  0.0
    431    450    452    453   5    11.69428    -0.66526    -1.56900  0.0
    431    450    452    464   5     0.00000     0.00000     0.00000  0.0
    431    450    452    465   5     0.00000     0.00000     0.00000  0.0
    451    450    452    453   5     0.00000     2.52295     0.00000  0.0
    451    450    452    464   5     0.00000     0.00000     0.00000  0.0
    451    450    452    465   5     0.00000     0.00000     0.00000  0.0
    450    452    453    454   5    -8.00818    -1.52298     2.46438  0.0
    450    452    453    466   5     0.00000     0.00000    -0.94140  0.0
    450    452    453    467   5     0.00000     0.00000    -0.94140  0.0
    464    452    453    454   5     0.00000     0.00000     1.25520  0.0
    464    452    453    466   5     0.00000     0.00000     1.25520  0.0
    464    452    453    467   5     0.00000     0.00000     1.25520  0.0
    465    452    453    454   5     0.00000     0.00000     1.25520  0.0
    465    452    453    466   5     0.00000     0.00000     1.25520  0.0
    465    452    453    467   5     0.00000     0.00000     1.25520  0.0
    452    453    454    455   5     4.74884    -0.63178     1.67360  0.0
    452    453    454    468   5     0.00000     0.00000     1.25520  0.0
    452    453    454    469   5     0.00000     0.00000     1.25520  0.0
    466    453    454    455   5     0.00000     0.00000     1.25520  0.0
    466    453    454    468   5     0.00000     0.00000     1.25520  0.0
    466    453    454    469   5     0.00000     0.00000     1.25520  0.0
    467    453    454    455   5     0.00000     0.00000     1.25520  0.0
    467    453    454    468   5     0.00000     0.00000     1.25520  0.0
    467    453    454    469   5     0.00000     0.00000     1.25520  0.0
    453    454    455    456   5    -8.00818    -1.52298     2.46438  0.0
    453    454    455    470   5     0.00000     0.00000     1.25520  0.0
    453    454    455    471   5     0.00000     0.00000     1.25520  0.0
    468    454    455    456   5     0.00000     0.00000    -0.94140  0.0
    468    454    455    470   5     0.00000     0.00000     1.25520  0.0
    468    454    455    471   5     0.00000     0.00000     1.25520  0.0
    469    454    455    456   5     0.00000     0.00000    -0.94140  0.0
    469    454    455    470   5     0.00000     0.00000     1.25520  0.0
    469    454    455    471   5     0.00000     0.00000     1.25520  0.0
    454    455    456    457   5     0.00000     2.52295     0.00000  0.0
    454    455    456    458   5    11.69428    -0.66526    -1.56900  0.0
    470    455    456    457   5     0.00000     0.00000     0.00000  0.0
    470    455    456    458   5     0.00000     0.00000     0.00000  0.0
    471    455    456    457   5     0.00000     0.00000     0.00000  0.0
    471    455    456    458   5     0.00000     0.00000     0.00000  0.0
    455    456    458    459   5    12.53945    12.88254     0.00000  0.0
    455    456    458    472   5     0.00000    20.50160     0.00000  0.0
    457    456    458    459   5     0.00000    25.47638     0.00000  0.0
    457    456    458    472   5     0.00000    20.50160     0.00000  0.0
    456    458    459    460   5    -3.67774    -0.67781     0.28033  0.0
    456    458    459    473   5     0.00000     0.00000     0.00000  0.0
    456    458    459    474   5     0.00000     0.00000     0.00000  0.0
    472    458    459    460   5     0.00000     0.00000     0.00000  0.0
    472    458    459    473   5     0.00000     0.00000     0.00000  0.0
    472    458    459    474   5     0.00000     0.00000     0.00000  0.0
    458    459    460    461   5     3.67355     4.10869     2.37651  0.0
    458    459    460    475   5     0.00000     0.00000     1.25520  0.0
    458    459    460    476   5     0.00000     0.00000     1.25520  0.0
    473    459    460    461   5     0.00000     0.00000     1.25520  0.0
    473    459    460    475   5     0.00000     0.00000     1.25520  0.0
    473    459    460    476   5     0.00000     0.00000     1.25520  0.0
    474    459    460    461   5     0.00000     0.00000     1.25520  0.0
    474    459    460    475   5     0.00000     0.00000     1.25520  0.0
    474    459    460    476   5     0.00000     0.00000     1.25520  0.0
    459    460    461    462   5     4.74884    -0.63178     1.67360  0.0
    459    460    461    477   5     0.00000     0.00000     1.25520  0.0
    459    460    461    478   5     0.00000     0.00000     1.25520  0.0
    475    460    461    462   5     0.00000     0.00000     1.25520  0.0
    475    460    461    477   5     0.00000     0.00000     1.25520  0.0
    475    460    461    478   5     0.00000     0.00000     1.25520  0.0
    476    460    461    462   5     0.00000     0.00000     1.25520  0.0
    476    460    461    477   5     0.00000     0.00000     1.25520  0.0
    476    460    461    478   5     0.00000     0.00000     1.25520  0.0
    460    461    462    463   5     3.67355     4.10869     2.37651  0.0
    460    461    462    479   5     0.00000     0.00000     1.25520  0.0
    460    461    462    480   5     0.00000     0.00000     1.25520  0.0
    477    461    462    463   5     0.00000     0.00000     1.25520  0.0
    477    461    462    479   5     0.00000     0.00000     1.25520  0.0
    477    461    462    480   5     0.00000     0.00000     1.25520  0.0
    478    461    462    463   5     0.00000     0.00000     1.25520  0.0
    478    461    462    479   5     0.00000     0.00000     1.25520  0.0
    478    461    462    480   5     0.00000     0.00000     1.25520  0.0
    461    462    463    481   5     0.00000     0.00000     0.00000  0.0
    461    462    463    482   5    -3.67774    -0.67781     0.28033  0.0
    479    462    463    481   5     0.00000     0.00000     0.00000  0.0
    479    462    463    482   5     0.00000     0.00000     0.00000  0.0
    480    462    463    481   5     0.00000     0.00000     0.00000  0.0
    480    462    463    482   5     0.00000     0.00000     0.00000  0.0
    462    463    482    483   5     0.00000    25.47638     0.00000  0.0
    462    463    482    484   5    12.53945    12.88254     0.00000  0.0
    481    463    482    483   5     0.00000    20.50160     0.00000  0.0
    481    463    482    484   5     0.00000    20.50160     0.00000  0.0
    463    482    484    485   5    11.69428    -0.66526    -1.56900  0.0
    463    482    484    496   5     0.00000     0.00000     0.00000  0.0
    463    482    484    497   5     0.00000     0.00000     0.00000  0.0
    483    482    484    485   5     0.00000     2.52295     0.00000  0.0
    483    482    484    496   5     0.00000     0.00000     0.00000  0.0
    483    482    484    497   5     0.00000     0.00000     0.00000  0.0
    482    484    485    486   5    -8.00818    -1.52298     2.46438  0.0
    482    484    485    498   5     0.00000     0.00000    -0.94140  0.0
    482    484    485    499   5     0.00000     0.00000    -0.94140  0.0
    496    484    485    486   5     0.00000     0.00000     1.25520  0.0
    496    484    485    498   5     0.00000     0.00000     1.25520  0.0
    496    484    485    499   5     0.00000     0.00000     1.25520  0.0
    497    484    485    486   5     0.00000     0.00000     1.25520  0.0
    497    484    485    498   5     0.00000     0.00000     1.25520  0.0
    497    484    485    499   5     0.00000     0.00000     1.25520  0.0
    484    485    486    487   5     4.74884    -0.63178     1.67360  0.0
    484    485    486    500   5     0.00000     0.00000     1.25520  0.0
    484    485    486    501   5     0.00000     0.00000     1.25520  0.0
    498    485    486    487   5     0.00000     0.00000     1.25520  0.0
    498    485    486    500   5     0.00000     0.00000     1.25520  0.0
    498    485    486    501   5     0.00000     0.00000     1.25520  0.0
    499    485    486    487   5     0.00000     0.00000     1.25520  0.0
    499    485    486    500   5     0.00000     0.00000     1.25520  0.0
    499    485    486    501   5     0.00000     0.00000     1.25520  0.0
    485    486    487    488   5    -8.00818    -1.52298     2.46438  0.0
    485    486    487    502   5     0.00000     0.00000     1.25520  0.0
    485    486    487    503   5     0.00000     0.00000     1.25520  0.0
    500    486    487    488   5     0.00000     0.00000    -0.94140  0.0
    500    486    487    502   5     0.00000     0.00000     1.25520  0.0
    500    486    487    503   5     0.00000     0.00000     1.25520  0.0
    501    486    487    488   5     0.00000     0.00000    -0.94140  0.0
    501    486    487    502   5     0.00000     0.00000     1.25520  0.0
    501    486    487    503   5     0.00000     0.00000     1.25520  0.0
    486    487    488    489   5     0.00000     2.52295     0.00000  0.0
    486    487    488    490   5    11.69428    -0.66526    -1.56900  0.0
    502    487    488    489   5     0.00000     0.00000     0.00000  0.0
    502    487    488    490   5     0.00000     0.00000     0.00000  0.0
    503    487    488    489   5     0.00000     0.00000     0.00000  0.0
    503    487    488    490   5     0.00000     0.00000     0.00000  0.0
    487    488    490    491   5    12.53945    12.88254     0.00000  0.0
    487    488    490    504   5     0.00000    20.50160     0.00000  0.0
    489    488    490    491   5     0.00000    25.47638     0.00000  0.0
    489    488    490    504   5     0.00000    20.50160     0.00000  0.0
    488    490    491    492   5    -3.67774    -0.67781     0.28033  0.0
    488    490    491    505   5     0.00000     0.00000     0.00000  0.0
    488    490    491    506   5     0.00000     0.00000     0.00000  0.0
    504    490    491    492   5     0.00000     0.00000     0.00000  0.0
    504    490    491    505   5     0.00000     0.00000     0.00000  0.0
    504    490    491    506   5     0.00000     0.00000     0.00000  0.0
    490    491    492    493   5     3.67355     4.10869     2.37651  0.0
    490    491    492    507   5     0.00000     0.00000     1.25520  0.0
    490    491    492    508   5     0.00000     0.00000     1.25520  0.0
    505    491    492    493   5     0.00000     0.00000     1.25520  0.0
    505    491    492    507   5     0.00000     0.00000     1.25520  0.0
    505    491    492    508   5     0.00000     0.00000     1.25520  0.0
    506    491    492    493   5     0.00000     0.00000     1.25520  0.0
    506    491    492    507   5     0.00000     0.00000     1.25520  0.0
    506    491    492    508   5     0.00000     0.00000     1.25520  0.0
    491    492    493    494   5     4.74884    -0.63178     1.67360  0.0
    491    492    493    509   5     0.00000     0.00000     1.25520  0.0
    491    492    493    510   5     0.00000     0.00000     1.25520  0.0
    507    492    493    494   5     0.00000     0.00000     1.25520  0.0
    507    492    493    509   5     0.00000     0.00000     1.25520  0.0
    507    492    493    510   5     0.00000     0.00000     1.25520  0.0
    508    492    493    494   5     0.00000     0.00000     1.25520  0.0
    508    492    493    509   5     0.00000     0.00000     1.25520  0.0
    508    492    493    510   5     0.00000     0.00000     1.25520  0.0
    492    493    494    495   5     3.67355     4.10869     2.37651  0.0
    492    493    494    511   5     0.00000     0.00000     1.25520  0.0
    492    493    494    512   5     0.00000     0.00000     1.25520  0.0
    509    493    494    495   5     0.00000     0.00000     1.25520  0.0
    509    493    494    511   5     0.00000     0.00000     1.25520  0.0
    509    493    494    512   5     0.00000     0.00000     1.25520  0.0
    510    493    494    495   5     0.00000     0.00000     1.25520  0.0
    510    493    494    511   5     0.00000     0.00000     1.25520  0.0
    510    493    494    512   5     0.00000     0.00000     1.25520  0.0
    493    494    495    513   5     0.00000     0.00000     0.00000  0.0
    493    494    495    514   5    -3.67774    -0.67781     0.28033  0.0
    511    494    495    513   5     0.00000     0.00000     0.00000  0.0
    511    494    495    514   5     0.00000     0.00000     0.00000  0.0
    512    494    495    513   5     0.00000     0.00000     0.00000  0.0
    512    494    495    514   5     0.00000     0.00000     0.00000  0.0
    494    495    514    515   5     0.00000    25.47638     0.00000  0.0
    494    495    514    516   5    12.53945    12.88254     0.00000  0.0
    513    495    514    515   5     0.00000    20.50160     0.00000  0.0
    513    495    514    516   5     0.00000    20.50160     0.00000  0.0
    495    514    516    517   5    11.69428    -0.66526    -1.56900  0.0
    495    514    516    528   5     0.00000     0.00000     0.00000  0.0
    495    514    516    529   5     0.00000     0.00000     0.00000  0.0
    515    514    516    517   5     0.00000     2.52295     0.00000  0.0
    515    514    516    528   5     0.00000     0.00000     0.00000  0.0
    515    514    516    529   5     0.00000     0.00000     0.00000  0.0
    514    516    517    518   5    -8.00818    -1.52298     2.46438  0.0
    514    516    517    530   5     0.00000     0.00000    -0.94140  0.0
    514    516    517    531   5     0.00000     0.00000    -0.94140  0.0
    528    516    517    518   5     0.00000     0.00000     1.25520  0.0
    528    516    517    530   5     0.00000     0.00000     1.25520  0.0
    528    516    517    531   5     0.00000     0.00000     1.25520  0.0
    529    516    517    518   5     0.00000     0.00000     1.25520  0.0
    529    516    517    530   5     0.00000     0.00000     1.25520  0.0
    529    516    517    531   5     0.00000     0.00000     1.25520  0.0
    516    517    518    519   5     4.74884    -0.63178     1.67360  0.0
    516    517    518    532   5     0.00000     0.00000     1.25520  0.0
    516    517    518    533   5     0.00000     0.00000     1.25520  0.0
    530    517    518    519   5     0.00000     0.00000     1.25520  0.0
    530    517    518    532   5     0.00000     0.00000     1.25520  0.0
    530    517    518    533   5     0.00000     0.00000     1.25520  0.0
    531    517    518    519   5     0.00000     0.00000     1.25520  0.0
    531    517    518    532   5     0.00000     0.00000     1.25520  0.0
    531    517    518    533   5     0.00000     0.00000     1.25520  0.0
    517    518    519    520   5    -8.00818    -1.52298     2.46438  0.0
    517    518    519    534   5     0.00000     0.00000     1.25520  0.0
    517    518    519    535   5     0.00000     0.00000     1.25520  0.0
    532    518    519    520   5     0.00000     0.00000    -0.94140  0.0
    532    518    519    534   5     0.00000     0.00000     1.25520  0.0
    532    518    519    535   5     0.00000     0.00000     1.25520  0.0
    533    518    519    520   5     0.00000     0.00000    -0.94140  0.0
    533    518    519    534   5     0.00000     0.00000     1.25520  0.0
    533    518    519    535   5     0.00000     0.00000     1.25520  0.0
    518    519    520    521   5     0.00000     2.52295     0.00000  0.0
    518    519    520    522   5    11.69428    -0.66526    -1.56900  0.0
    534    519    520    521   5     0.00000     0.00000     0.00000  0.0
    534    519    520    522   5     0.00000     0.00000     0.00000  0.0
    535    519    520    521   5     0.00000     0.00000     0.00000  0.0
    535    519    520    522   5     0.00000     0.00000     0.00000  0.0
    519    520    522    523   5    12.53945    12.88254     0.00000  0.0
    519    520    522    536   5     0.00000    20.50160     0.00000  0.0
    521    520    522    523   5     0.00000    25.47638     0.00000  0.0
    521    520    522    536   5     0.00000    20.50160     0.00000  0.0
    520    522    523    524   5    -3.67774    -0.67781     0.28033  0.0
    520    522    523    537   5     0.00000     0.00000     0.00000  0.0
    520    522    523    538   5     0.00000     0.00000     0.00000  0.0
    536    522    523    524   5     0.00000     0.00000     0.00000  0.0
    536    522    523    537   5     0.00000     0.00000     0.00000  0.0
    536    522    523    538   5     0.00000     0.00000     0.00000  0.0
    522    523    524    525   5     3.67355     4.10869     2.37651  0.0
    522    523    524    539   5     0.00000     0.00000     1.25520  0.0
    522    523    524    540   5     0.00000     0.00000     1.25520  0.0
    537    523    524    525   5     0.00000     0.00000     1.25520  0.0
    537    523    524    539   5     0.00000     0.00000     1.25520  0.0
    537    523    524    540   5     0.00000     0.00000     1.25520  0.0
    538    523    524    525   5     0.00000     0.00000     1.25520  0.0
    538    523    524    539   5     0.00000     0.00000     1.25520  0.0
    538    523    524    540   5     0.00000     0.00000     1.25520  0.0
    523    524    525    526   5     4.74884    -0.63178     1.67360  0.0
    523    524    525    541   5     0.00000     0.00000     1.25520  0.0
    523    524    525    542   5     0.00000     0.00000     1.25520  0.0
    539    524    525    526   5     0.00000     0.00000     1.25520  0.0
    539    524    525    541   5     0.00000     0.00000     1.25520  0.0
    539    524    525    542   5     0.00000     0.00000     1.25520  0.0
    540    524    525    526   5     0.00000     0.00000     1.25520  0.0
    540    524    525    541   5     0.00000     0.00000     1.25520  0.0
    540    524    525    542   5     0.00000     0.00000     1.25520  0.0
    524    525    526    527   5     3.67355     4.10869     2.37651  0.0
    524    525    526    543   5     0.00000     0.00000     1.25520  0.0
    524    525    526    544   5     0.00000     0.00000     1.25520  0.0
    541    525    526    527   5     0.00000     0.00000     1.25520  0.0
    541    525    526    543   5     0.00000     0.00000     1.25520  0.0
    541    525    526    544   5     0.00000     0.00000     1.25520  0.0
    542    525    526    527   5     0.00000     0.00000     1.25520  0.0
    542    525    526    543   5     0.00000     0.00000     1.25520  0.0
    542    525    526    544   5     0.00000     0.00000     1.25520  0.0
    525    526    527    545   5     0.00000     0.00000     0.00000  0.0
    525    526    527    546   5    -3.67774    -0.67781     0.28033  0.0
    543    526    527    545   5     0.00000     0.00000     0.00000  0.0
    543    526    527    546   5     0.00000     0.00000     0.00000  0.0
    544    526    527    545   5     0.00000     0.00000     0.00000  0.0
    544    526    527    546   5     0.00000     0.00000     0.00000  0.0
    526    527    546    547   5     0.00000    25.47638     0.00000  0.0
    526    527    546    548   5    12.53945    12.88254     0.00000  0.0
    545    527    546    547   5     0.00000    20.50160     0.00000  0.0
    545    527    546    548   5     0.00000    20.50160     0.00000  0.0
    527    546    548    549   5    11.69428    -0.66526    -1.56900  0.0
    527    546    548    560   5     0.00000     0.00000     0.00000  0.0
    527    546    548    561   5     0.00000     0.00000     0.00000  0.0
    547    546    548    549   5     0.00000     2.52295     0.00000  0.0
    547    546    548    560   5     0.00000     0.00000     0.00000  0.0
    547    546    548    561   5     0.00000     0.00000     0.00000  0.0
    546    548    549    550   5    -8.00818    -1.52298     2.46438  0.0
    546    548    549    562   5     0.00000     0.00000    -0.94140  0.0
    546    548    549    563   5     0.00000     0.00000    -0.94140  0.0
    560    548    549    550   5     0.00000     0.00000     1.25520  0.0
    560    548    549    562   5     0.00000     0.00000     1.25520  0.0
    560    548    549    563   5     0.00000     0.00000     1.25520  0.0
    561    548    549    550   5     0.00000     0.00000     1.25520  0.0
    561    548    549    562   5     0.00000     0.00000     1.25520  0.0
    561    548    549    563   5     0.00000     0.00000     1.25520  0.0
    548    549    550    551   5     4.74884    -0.63178     1.67360  0.0
    548    549    550    564   5     0.00000     0.00000     1.25520  0.0
    548    549    550    565   5     0.00000     0.00000     1.25520  0.0
    562    549    550    551   5     0.00000     0.00000     1.25520  0.0
    562    549    550    564   5     0.00000     0.00000     1.25520  0.0
    562    549    550    565   5     0.00000     0.00000     1.25520  0.0
    563    549    550    551   5     0.00000     0.00000     1.25520  0.0
    563    549    550    564   5     0.00000     0.00000     1.25520  0.0
    563    549    550    565   5     0.00000     0.00000     1.25520  0.0
    549    550    551    552   5    -8.00818    -1.52298     2.46438  0.0
    549    550    551    566   5     0.00000     0.00000     1.25520  0.0
    549    550    551    567   5     0.00000     0.00000     1.25520  0.0
    564    550    551    552   5     0.00000     0.00000    -0.94140  0.0
    564    550    551    566   5     0.00000     0.00000     1.25520  0.0
    564    550    551    567   5     0.00000     0.00000     1.25520  0.0
    565    550    551    552   5     0.00000     0.00000    -0.94140  0.0
    565    550    551    566   5     0.00000     0.00000     1.25520  0.0
    565    550    551    567   5     0.00000     0.00000     1.25520  0.0
    550    551    552    553   5     0.00000     2.52295     0.00000  0.0
    550    551    552    554   5    11.69428    -0.66526    -1.56900  0.0
    566    551    552    553   5     0.00000     0.00000     0.00000  0.0
    566    551    552    554   5     0.00000     0.00000     0.00000  0.0
    567    551    552    553   5     0.00000     0.00000     0.00000  0.0
    567    551    552    554   5     0.00000     0.00000     0.00000  0.0
    551    552    554    555   5    12.53945    12.88254     0.00000  0.0
    551    552    554    568   5     0.00000    20.50160     0.00000  0.0
    553    552    554    555   5     0.00000    25.47638     0.00000  0.0
    553    552    554    568   5     0.00000    20.50160     0.00000  0.0
    552    554    555    556   5    -3.67774    -0.67781     0.28033  0.0
    552    554    555    569   5     0.00000     0.00000     0.00000  0.0
    552    554    555    570   5     0.00000     0.00000     0.00000  0.0
    568    554    555    556   5     0.00000     0.00000     0.00000  0.0
    568    554    555    569   5     0.00000     0.00000     0.00000  0.0
    568    554    555    570   5     0.00000     0.00000     0.00000  0.0
    554    555    556    557   5     3.67355     4.10869     2.37651  0.0
    554    555    556    571   5     0.00000     0.00000     1.25520  0.0
    554    555    556    572   5     0.00000     0.00000     1.25520  0.0
    569    555    556    557   5     0.00000     0.00000     1.25520  0.0
    569    555    556    571   5     0.00000     0.00000     1.25520  0.0
    569    555    556    572   5     0.00000     0.00000     1.25520  0.0
    570    555    556    557   5     0.00000     0.00000     1.25520  0.0
    570    555    556    571   5     0.00000     0.00000     1.25520  0.0
    570    555    556    572   5     0.00000     0.00000     1.25520  0.0
    555    556    557    558   5     4.74884    -0.63178     1.67360  0.0
    555    556    557    573   5     0.00000     0.00000     1.25520  0.0
    555    556    557    574   5     0.00000     0.00000     1.25520  0.0
    571    556    557    558   5     0.00000     0.00000     1.25520  0.0
    571    556    557    573   5     0.00000     0.00000     1.25520  0.0
    571    556    557    574   5     0.00000     0.00000     1.25520  0.0
    572    556    557    558   5     0.00000     0.00000     1.25520  0.0
    572    556    557    573   5     0.00000     0.00000     1.25520  0.0
    572    556    557    574   5     0.00000     0.00000     1.25520  0.0
    556    557    558    559   5     3.67355     4.10869     2.37651  0.0
    556    557    558    575   5     0.00000     0.00000     1.25520  0.0
    556    557    558    576   5     0.00000     0.00000     1.25520  0.0
    573    557    558    559   5     0.00000     0.00000     1.25520  0.0
    573    557    558    575   5     0.00000     0.00000     1.25520  0.0
    573    557    558    576   5     0.00000     0.00000     1.25520  0.0
    574    557    558    559   5     0.00000     0.00000     1.25520  0.0
    574    557    558    575   5     0.00000     0.00000     1.25520  0.0
    574    557    558    576   5     0.00000     0.00000     1.25520  0.0
    557    558    559    577   5     0.00000     0.00000     0.00000  0.0
    557    558    559    578   5    -3.67774    -0.67781     0.28033  0.0
    575    558    559    577   5     0.00000     0.00000     0.00000  0.0
    575    558    559    578   5     0.00000     0.00000     0.00000  0.0
    576    558    559    577   5     0.00000     0.00000     0.00000  0.0
    576    558    559    578   5     0.00000     0.00000     0.00000  0.0
    558    559    578    579   5     0.00000    25.47638     0.00000  0.0
    558    559    578    580   5    12.53945    12.88254     0.00000  0.0
    577    559    578    579   5     0.00000    20.50160     0.00000  0.0
    577    559    578    580   5     0.00000    20.50160     0.00000  0.0
    559    578    580    581   5    11.69428    -0.66526    -1.56900  0.0
    559    578    580    592   5     0.00000     0.00000     0.00000  0.0
    559    578    580    593   5     0.00000     0.00000     0.00000  0.0
    579    578    580    581   5     0.00000     2.52295     0.00000  0.0
    579    578    580    592   5     0.00000     0.00000     0.00000  0.0
    579    578    580    593   5     0.00000     0.00000     0.00000  0.0
    578    580    581    582   5    -8.00818    -1.52298     2.46438  0.0
    578    580    581    594   5     0.00000     0.00000    -0.94140  0.0
    578    580    581    595   5     0.00000     0.00000    -0.94140  0.0
    592    580    581    582   5     0.00000     0.00000     1.25520  0.0
    592    580    581    594   5     0.00000     0.00000     1.25520  0.0
    592    580    581    595   5     0.00000     0.00000     1.25520  0.0
    593    580    581    582   5     0.00000     0.00000     1.25520  0.0
    593    580    581    594   5     0.00000     0.00000     1.25520  0.0
    593    580    581    595   5     0.00000     0.00000     1.25520  0.0
    580    581    582    583   5     4.74884    -0.63178     1.67360  0.0
    580    581    582    596   5     0.00000     0.00000     1.25520  0.0
    580    581    582    597   5     0.00000     0.00000     1.25520  0.0
    594    581    582    583   5     0.00000     0.00000     1.25520  0.0
    594    581    582    596   5     0.00000     0.00000     1.25520  0.0
    594    581    582    597   5     0.00000     0.00000     1.25520  0.0
    595    581    582    583   5     0.00000     0.00000     1.25520  0.0
    595    581    582    596   5     0.00000     0.00000     1.25520  0.0
    595    581    582    597   5     0.00000     0.00000     1.25520  0.0
    581    582    583    584   5    -8.00818    -1.52298     2.46438  0.0
    581    582    583    598   5     0.00000     0.00000     1.25520  0.0
    581    582    583    599   5     0.00000     0.00000     1.25520  0.0
    596    582    583    584   5     0.00000     0.00000    -0.94140  0.0
    596    582    583    598   5     0.00000     0.00000     1.25520  0.0
    596    582    583    599   5     0.00000     0.00000     1.25520  0.0
    597    582    583    584   5     0.00000     0.00000    -0.94140  0.0
    597    582    583    598   5     0.00000     0.00000     1.25520  0.0
    597    582    583    599   5     0.00000     0.00000     1.25520  0.0
    582    583    584    585   5     0.00000     2.52295     0.00000  0.0
    582    583    584    586   5    11.69428    -0.66526    -1.56900  0.0
    598    583    584    585   5     0.00000     0.00000     0.00000  0.0
    598    583    584    586   5     0.00000     0.00000     0.00000  0.0
    599    583    584    585   5     0.00000     0.00000     0.00000  0.0
    599    583    584    586   5     0.00000     0.00000     0.00000  0.0
    583    584    586    587   5    12.53945    12.88254     0.00000  0.0
    583    584    586    600   5     0.00000    20.50160     0.00000  0.0
    585    584    586    587   5     0.00000    25.47638     0.00000  0.0
    585    584    586    600   5     0.00000    20.50160     0.00000  0.0
    584    586    587    588   5    -3.67774    -0.67781     0.28033  0.0
    584    586    587    601   5     0.00000     0.00000     0.00000  0.0
    584    586    587    602   5     0.00000     0.00000     0.00000  0.0
    600    586    587    588   5     0.00000     0.00000     0.00000  0.0
    600    586    587    601   5     0.00000     0.00000     0.00000  0.0
    600    586    587    602   5     0.00000     0.00000     0.00000  0.0
    586    587    588    589   5     3.67355     4.10869     2.37651  0.0
    586    587    588    603   5     0.00000     0.00000     1.25520  0.0
    586    587    588    604   5     0.00000     0.00000     1.25520  0.0
    601    587    588    589   5     0.00000     0.00000     1.25520  0.0
    601    587    588    603   5     0.00000     0.00000     1.25520  0.0
    601    587    588    604   5     0.00000     0.00000     1.25520  0.0
    602    587    588    589   5     0.00000     0.00000     1.25520  0.0
    602    587    588    603   5     0.00000     0.00000     1.25520  0.0
    602    587    588    604   5     0.00000     0.00000     1.25520  0.0
    587    588    589    590   5     4.74884    -0.63178     1.67360  0.0
    587    588    589    605   5     0.00000     0.00000     1.25520  0.0
    587    588    589    606   5     0.00000     0.00000     1.25520  0.0
    603    588    589    590   5     0.00000     0.00000     1.25520  0.0
    603    588    589    605   5     0.00000     0.00000     1.25520  0.0
    603    588    589    606   5     0.00000     0.00000     1.25520  0.0
    604    588    589    590   5     0.00000     0.00000     1.25520  0.0
    604    588    589    605   5     0.00000     0.00000     1.25520  0.0
    604    588    589    606   5     0.00000     0.00000     1.25520  0.0
    588    589    590    591   5     3.67355     4.10869     2.37651  0.0
    588    589    590    607   5     0.00000     0.00000     1.25520  0.0
    588    589    590    608   5     0.00000     0.00000     1.25520  0.0
    605    589    590    591   5     0.00000     0.00000     1.25520  0.0
    605    589    590    607   5     0.00000     0.00000     1.25520  0.0
    605    589    590    608   5     0.00000     0.00000     1.25520  0.0
    606    589    590    591   5     0.00000     0.00000     1.25520  0.0
    606    589    590    607   5     0.00000     0.00000     1.25520  0.0
    606    589    590    608   5     0.00000     0.00000     1.25520  0.0
    589    590    591    609   5     0.00000     0.00000     0.00000  0.0
    589    590    591    610   5    -3.67774    -0.67781     0.28033  0.0
    607    590    591    609   5     0.00000     0.00000     0.00000  0.0
    607    590    591    610   5     0.00000     0.00000     0.00000  0.0
    608    590    591    609   5     0.00000     0.00000     0.00000  0.0
    608    590    591    610   5     0.00000     0.00000     0.00000  0.0
    590    591    610    611   5     0.00000    25.47638     0.00000  0.0
    590    591    610    612   5    12.53945    12.88254     0.00000  0.0
    609    591    610    611   5     0.00000    20.50160     0.00000  0.0
    609    591    610    612   5     0.00000    20.50160     0.00000  0.0
    591    610    612    613   5    11.69428    -0.66526    -1.56900  0.0
    591    610    612    624   5     0.00000     0.00000     0.00000  0.0
    591    610    612    625   5     0.00000     0.00000     0.00000  0.0
    611    610    612    613   5     0.00000     2.52295     0.00000  0.0
    611    610    612    624   5     0.00000     0.00000     0.00000  0.0
    611    610    612    625   5     0.00000     0.00000     0.00000  0.0
    610    612    613    614   5    -8.00818    -1.52298     2.46438  0.0
    610    612    613    626   5     0.00000     0.00000    -0.94140  0.0
    610    612    613    627   5     0.00000     0.00000    -0.94140  0.0
    624    612    613    614   5     0.00000     0.00000     1.25520  0.0
    624    612    613    626   5     0.00000     0.00000     1.25520  0.0
    624    612    613    627   5     0.00000     0.00000     1.25520  0.0
    625    612    613    614   5     0.00000     0.00000     1.25520  0.0
    625    612    613    626   5     0.00000     0.00000     1.25520  0.0
    625    612    613    627   5     0.00000     0.00000     1.25520  0.0
    612    613    614    615   5     4.74884    -0.63178     1.67360  0.0
    612    613    614    628   5     0.00000     0.00000     1.25520  0.0
    612    613    614    629   5     0.00000     0.00000     1.25520  0.0
    626    613    614    615   5     0.00000     0.00000     1.25520  0.0
    626    613    614    628   5     0.00000     0.00000     1.25520  0.0
    626    613    614    629   5     0.00000     0.00000     1.25520  0.0
    627    613    614    615   5     0.00000     0.00000     1.25520  0.0
    627    613    614    628   5     0.00000     0.00000     1.25520  0.0
    627    613    614    629   5     0.00000     0.00000     1.25520  0.0
    613    614    615    616   5    -8.00818    -1.52298     2.46438  0.0
    613    614    615    630   5     0.00000     0.00000     1.25520  0.0
    613    614    615    631   5     0.00000     0.00000     1.25520  0.0
    628    614    615    616   5     0.00000     0.00000    -0.94140  0.0
    628    614    615    630   5     0.00000     0.00000     1.25520  0.0
    628    614    615    631   5     0.00000     0.00000     1.25520  0.0
    629    614    615    616   5     0.00000     0.00000    -0.94140  0.0
    629    614    615    630   5     0.00000     0.00000     1.25520  0.0
    629    614    615    631   5     0.00000     0.00000     1.25520  0.0
    614    615    616    617   5     0.00000     2.52295     0.00000  0.0
    614    615    616    618   5    11.69428    -0.66526    -1.56900  0.0
    630    615    616    617   5     0.00000     0.00000     0.00000  0.0
    630    615    616    618   5     0.00000     0.00000     0.00000  0.0
    631    615    616    617   5     0.00000     0.00000     0.00000  0.0
    631    615    616    618   5     0.00000     0.00000     0.00000  0.0
    615    616    618    619   5    12.53945    12.88254     0.00000  0.0
    615    616    618    632   5     0.00000    20.50160     0.00000  0.0
    617    616    618    619   5     0.00000    25.47638     0.00000  0.0
    617    616    618    632   5     0.00000    20.50160     0.00000  0.0
    616    618    619    620   5    -3.67774    -0.67781     0.28033  0.0
    616    618    619    633   5     0.00000     0.00000     0.00000  0.0
    616    618    619    634   5     0.00000     0.00000     0.00000  0.0
    632    618    619    620   5     0.00000     0.00000     0.00000  0.0
    632    618    619    633   5     0.00000     0.00000     0.00000  0.0
    632    618    619    634   5     0.00000     0.00000     0.00000  0.0
    618    619    620    621   5     3.67355     4.10869     2.37651  0.0
    618    619    620    635   5     0.00000     0.00000     1.25520  0.0
    618    619    620    636   5     0.00000     0.00000     1.25520  0.0
    633    619    620    621   5     0.00000     0.00000     1.25520  0.0
    633    619    620    635   5     0.00000     0.00000     1.25520  0.0
    633    619    620    636   5     0.00000     0.00000     1.25520  0.0
    634    619    620    621   5     0.00000     0.00000     1.25520  0.0
    634    619    620    635   5     0.00000     0.00000     1.25520  0.0
    634    619    620    636   5     0.00000     0.00000     1.25520  0.0
    619    620    621    622   5     4.74884    -0.63178     1.67360  0.0
    619    620    621    637   5     0.00000     0.00000     1.25520  0.0
    619    620    621    638   5     0.00000     0.00000     1.25520  0.0
    635    620    621    622   5     0.00000     0.00000     1.25520  0.0
    635    620    621    637   5     0.00000     0.00000     1.25520  0.0
    635    620    621    638   5     0.00000     0.00000     1.25520  0.0
    636    620    621    622   5     0.00000     0.00000     1.25520  0.0
    636    620    621    637   5     0.00000     0.00000     1.25520  0.0
    636    620    621    638   5     0.00000     0.00000     1.25520  0.0
    620    621    622    623   5    12.83651    -0.83262     0.47698  0.0
    620    621    622    639   5     0.00000     0.00000     1.25520  0.0
    620    621    622    640   5     0.00000     0.00000     1.25520  0.0
    637    621    622    623   5     0.00000     0.00000     1.25520  0.0
    637    621    622    639   5     0.00000     0.00000     1.25520  0.0
    637    621    622    640   5     0.00000     0.00000     1.25520  0.0
    638    621    622    623   5     0.00000     0.00000     1.25520  0.0
    638    621    622    639   5     0.00000     0.00000     1.25520  0.0
    638    621    622    640   5     0.00000     0.00000     1.25520  0.0
    621    622    623    641   5    -0.49790     0.74057     0.98324  0.0
    621    622    623    642   5    -0.49790     0.74057     0.98324  0.0
    639    622    623    641   5     0.00000     0.00000     1.67360  0.0
    639    622    623    642   5     0.00000     0.00000     1.67360  0.0
    640    622    623    641   5     0.00000     0.00000     1.67360  0.0
    640    622    623    642   5     0.00000     0.00000     1.67360  0.0

[ dihedrals ]
; Improper dihedrals
; h   i   j   k   funct
      2      3      1     33   5     0.00000    87.86400     0.00000  0.0
      6      8      7      9   5     0.00000    87.86400     0.00000  0.0
      7     10      9     23   5     0.00000     8.36800     0.00000  0.0
     13     32     14     34   5     0.00000     8.36800     0.00000  0.0
     14     35     34     36   5     0.00000    87.86400     0.00000  0.0
     39     41     40     42   5     0.00000    87.86400     0.00000  0.0
     40     43     42     56   5     0.00000     8.36800     0.00000  0.0
     46     65     47     66   5     0.00000     8.36800     0.00000  0.0
     47     67     66     68   5     0.00000    87.86400     0.00000  0.0
     71     73     72     74   5     0.00000    87.86400     0.00000  0.0
     72     75     74     88   5     0.00000     8.36800     0.00000  0.0
     78     97     79     98   5     0.00000     8.36800     0.00000  0.0
     79     99     98    100   5     0.00000    87.86400     0.00000  0.0
    103    105    104    106   5     0.00000    87.86400     0.00000  0.0
    104    107    106    120   5     0.00000     8.36800     0.00000  0.0
    110    129    111    130   5     0.00000     8.36800     0.00000  0.0
    111    131    130    132   5     0.00000    87.86400     0.00000  0.0
    135    137    136    138   5     0.00000    87.86400     0.00000  0.0
    136    139    138    152   5     0.00000     8.36800     0.00000  0.0
    142    161    143    162   5     0.00000     8.36800     0.00000  0.0
    143    163    162    164   5     0.00000    87.86400     0.00000  0.0
    167    169    168    170   5     0.00000    87.86400     0.00000  0.0
    168    171    170    184   5     0.00000     8.36800     0.00000  0.0
    174    193    175    194   5     0.00000     8.36800     0.00000  0.0
    175    195    194    196   5     0.00000    87.86400     0.00000  0.0
    199    201    200    202   5     0.00000    87.86400     0.00000  0.0
    200    203    202    216   5     0.00000     8.36800     0.00000  0.0
    206    225    207    226   5     0.00000     8.36800     0.00000  0.0
    207    227    226    228   5     0.00000    87.86400     0.00000  0.0
    231    233    232    234   5     0.00000    87.86400     0.00000  0.0
    232    235    234    248   5     0.00000     8.36800     0.00000  0.0
    238    257    239    258   5     0.00000     8.36800     0.00000  0.0
    239    259    258    260   5     0.00000    87.86400     0.00000  0.0
    263    265    264    266   5     0.00000    87.86400     0.00000  0.0
    264    267    266    280   5     0.00000     8.36800     0.00000  0.0
    270    289    271    290   5     0.00000     8.36800     0.00000  0.0
    271    291    290    292   5     0.00000    87.86400     0.00000  0.0
    295    297    296    298   5     0.00000    87.86400     0.00000  0.0
    296    299    298    312   5     0.00000     8.36800     0.00000  0.0
    302    321    303    322   5     0.00000     8.36800     0.00000  0.0
    303    323    322    324   5     0.00000    87.86400     0.00000  0.0
    327    329    328    330   5     0.00000    87.86400     0.00000  0.0
    328    331    330    344   5     0.00000     8.36800     0.00000  0.0
    334    353    335    354   5     0.00000     8.36800     0.00000  0.0
    335    355    354    356   5     0.00000    87.86400     0.00000  0.0
    359    361    360    362   5     0.00000    87.86400     0.00000  0.0
    360    363    362    376   5     0.00000     8.36800     0.00000  0.0
    366    385    367    386   5     0.00000     8.36800     0.00000  0.0
    367    387    386    388   5     0.00000    87.86400     0.00000  0.0
    391    393    392    394   5     0.00000    87.86400     0.00000  0.0
    392    395    394    408   5     0.00000     8.36800     0.00000  0.0
    398    417    399    418   5     0.00000     8.36800     0.00000  0.0
    399    419    418    420   5     0.00000    87.86400     0.00000  0.0
    423    425    424    426   5     0.00000    87.86400     0.00000  0.0
    424    427    426    440   5     0.00000     8.36800     0.00000  0.0
    430    449    431    450   5     0.00000     8.36800     0.00000  0.0
    431    451    450    452   5     0.00000    87.86400     0.00000  0.0
    455    457    456    458   5     0.00000    87.86400     0.00000  0.0
    456    459    458    472   5     0.00000     8.36800     0.00000  0.0
    462    481    463    482   5     0.00000     8.36800     0.00000  0.0
    463    483    482    484   5     0.00000    87.86400     0.00000  0.0
    487    489    488    490   5     0.00000    87.86400     0.00000  0.0
    488    491    490    504   5     0.00000     8.36800     0.00000  0.0
    494    513    495    514   5     0.00000     8.36800     0.00000  0.0
    495    515    514    516   5     0.00000    87.86400     0.00000  0.0
    519    521    520    522   5     0.00000    87.86400     0.00000  0.0
    520    523    522    536   5     0.00000     8.36800     0.00000  0.0
    526    545    527    546   5     0.00000     8.36800     0.00000  0.0
    527    547    546    548   5     0.00000    87.86400     0.00000  0.0
    551    553    552    554   5     0.00000    87.86400     0.00000  0.0
    552    555    554    568   5     0.00000     8.36800     0.00000  0.0
    558    577    559    578   5     0.00000     8.36800     0.00000  0.0
    559    579    578    580   5     0.00000    87.86400     0.00000  0.0
    583    585    584    586   5     0.00000    87.86400     0.00000  0.0
    584    587    586    600   5     0.00000     8.36800     0.00000  0.0
    590    609    591    610   5     0.00000     8.36800     0.00000  0.0
    591    611    610    612   5     0.00000    87.86400     0.00000  0.0
    615    617    616    618   5     0.00000    87.86400     0.00000  0.0
    616    619    618    632   5     0.00000     8.36800     0.00000  0.0
